Built with Packmol
37000
    1ACTN    C1    1   5.297   3.036   2.236
    1ACTN    O1    2   5.453   3.214   2.274
    1ACTN    C2    3   5.415   3.122   2.200
    1ACTN    C3    4   5.462   3.130   2.062
    1ACTN    H1    5   5.327   2.934   2.260
    1ACTN    H2    6   5.230   3.033   2.151
    1ACTN    H3    7   5.245   3.077   2.323
    1ACTN    H4    8   5.547   3.062   2.055
    1ACTN    H5    9   5.504   3.229   2.037
    1ACTN    H6   10   5.388   3.104   1.988
    2ACTN    C1   11   5.104   5.438   3.951
    2ACTN    O1   12   5.337   5.393   3.911
    2ACTN    C2   13   5.219   5.383   3.871
    2ACTN    C3   14   5.204   5.357   3.728
    2ACTN    H1   15   5.042   5.359   3.993
    2ACTN    H2   16   5.044   5.500   3.887
    2ACTN    H3   17   5.142   5.497   4.036
    2ACTN    H4   18   5.185   5.250   3.719
    2ACTN    H5   19   5.296   5.373   3.672
    2ACTN    H6   20   5.123   5.412   3.681
    3ACTN    C1   21   3.095   0.995   7.701
    3ACTN    O1   22   3.306   0.901   7.769
    3ACTN    C2   23   3.203   0.963   7.802
    3ACTN    C3   24   3.173   0.964   7.945
    3ACTN    H1   25   3.090   1.101   7.680
    3ACTN    H2   26   3.000   0.962   7.742
    3ACTN    H3   27   3.115   0.943   7.607
    3ACTN    H4   28   3.208   1.060   7.983
    3ACTN    H5   29   3.232   0.890   8.001
    3ACTN    H6   30   3.069   0.951   7.969
    4ACTN    C1   31   2.007   6.499   1.520
    4ACTN    O1   32   2.134   6.510   1.723
    4ACTN    C2   33   2.112   6.451   1.616
    4ACTN    C3   34   2.219   6.362   1.571
    4ACTN    H1   35   1.922   6.432   1.515
    4ACTN    H2   36   2.053   6.508   1.421
    4ACTN    H3   37   1.970   6.597   1.552
    4ACTN    H4   38   2.189   6.261   1.598
    4ACTN    H5   39   2.313   6.378   1.624
    4ACTN    H6   40   2.238   6.366   1.464
    5ACTN    C1   41   1.775   6.051   3.746
    5ACTN    O1   42   2.004   6.118   3.766
    5ACTN    C2   43   1.895   6.097   3.823
    5ACTN    C3   44   1.903   6.078   3.968
    5ACTN    H1   45   1.698   6.128   3.740
    5ACTN    H2   46   1.734   5.964   3.796
    5ACTN    H3   47   1.803   6.025   3.643
    5ACTN    H4   48   1.875   6.174   4.012
    5ACTN    H5   49   2.005   6.061   4.003
    5ACTN    H6   50   1.839   6.000   4.006
    6ACTN    C1   51   5.195   1.102   5.401
    6ACTN    O1   52   5.148   1.096   5.636
    6ACTN    C2   53   5.222   1.136   5.544
    6ACTN    C3   54   5.307   1.251   5.580
    6ACTN    H1   55   5.270   1.034   5.360
    6ACTN    H2   56   5.197   1.194   5.343
    6ACTN    H3   57   5.098   1.054   5.391
    6ACTN    H4   58   5.405   1.210   5.602
    6ACTN    H5   59   5.276   1.299   5.673
    6ACTN    H6   60   5.315   1.325   5.502
    7ACTN    C1   61   1.647   0.633   2.561
    7ACTN    O1   62   1.675   0.647   2.323
    7ACTN    C2   63   1.636   0.702   2.428
    7ACTN    C3   64   1.620   0.847   2.421
    7ACTN    H1   65   1.549   0.604   2.601
    7ACTN    H2   66   1.695   0.701   2.631
    7ACTN    H3   67   1.706   0.541   2.551
    7ACTN    H4   68   1.513   0.865   2.406
    7ACTN    H5   69   1.668   0.890   2.332
    7ACTN    H6   70   1.654   0.900   2.509
    8ACTN    C1   71   6.453   5.579   6.227
    8ACTN    O1   72   6.686   5.524   6.217
    8ACTN    C2   73   6.579   5.538   6.156
    8ACTN    C3   74   6.591   5.554   6.011
    8ACTN    H1   75   6.380   5.498   6.231
    8ACTN    H2   76   6.410   5.663   6.173
    8ACTN    H3   77   6.476   5.609   6.330
    8ACTN    H4   78   6.570   5.457   5.967
    8ACTN    H5   79   6.694   5.576   5.979
    8ACTN    H6   80   6.525   5.628   5.969
    9ACTN    C1   81   6.562   3.582   1.044
    9ACTN    O1   82   6.794   3.554   0.990
    9ACTN    C2   83   6.675   3.541   0.955
    9ACTN    C3   84   6.655   3.524   0.811
    9ACTN    H1   85   6.506   3.496   1.082
    9ACTN    H2   86   6.495   3.645   0.988
    9ACTN    H3   87   6.600   3.636   1.131
    9ACTN    H4   88   6.641   3.418   0.794
    9ACTN    H5   89   6.743   3.551   0.752
    9ACTN    H6   90   6.569   3.578   0.772
   10ACTN    C1   91   4.771   0.144   1.873
   10ACTN    O1   92   4.609   0.321   1.883
   10ACTN    C2   93   4.718   0.276   1.922
   10ACTN    C3   94   4.809   0.375   1.980
   10ACTN    H1   95   4.770   0.068   1.952
   10ACTN    H2   96   4.872   0.158   1.838
   10ACTN    H3   97   4.708   0.106   1.792
   10ACTN    H4   98   4.800   0.365   2.088
   10ACTN    H5   99   4.779   0.478   1.959
   10ACTN    H6  100   4.913   0.362   1.952
   11ACTN    C1  101   7.137   1.202   4.666
   11ACTN    O1  102   7.010   1.041   4.541
   11ACTN    C2  103   7.070   1.069   4.646
   11ACTN    C3  104   7.036   0.984   4.761
   11ACTN    H1  105   7.245   1.193   4.667
   11ACTN    H2  106   7.103   1.243   4.761
   11ACTN    H3  107   7.110   1.270   4.584
   11ACTN    H4  108   7.115   0.910   4.769
   11ACTN    H5  109   6.945   0.926   4.744
   11ACTN    H6  110   7.027   1.038   4.854
   12ACTN    C1  111   7.165   1.962   2.235
   12ACTN    O1  112   7.010   1.799   2.317
   12ACTN    C2  113   7.068   1.907   2.335
   12ACTN    C3  114   7.005   1.995   2.434
   12ACTN    H1  115   7.267   1.960   2.272
   12ACTN    H2  116   7.137   2.065   2.213
   12ACTN    H3  117   7.163   1.902   2.143
   12ACTN    H4  118   7.062   1.983   2.526
   12ACTN    H5  119   6.903   1.964   2.460
   12ACTN    H6  120   7.004   2.100   2.406
   13ACTN    C1  121   3.351   6.803   1.025
   13ACTN    O1  122   3.588   6.782   0.991
   13ACTN    C2  123   3.473   6.751   0.954
   13ACTN    C3  124   3.463   6.700   0.817
   13ACTN    H1  125   3.299   6.724   1.079
   13ACTN    H2  126   3.284   6.846   0.951
   13ACTN    H3  127   3.380   6.880   1.098
   13ACTN    H4  128   3.458   6.592   0.825
   13ACTN    H5  129   3.554   6.719   0.758
   13ACTN    H6  130   3.378   6.736   0.762
   14ACTN    C1  131   5.248   3.164   0.198
   14ACTN    O1  132   5.475   3.240   0.182
   14ACTN    C2  133   5.378   3.215   0.255
   14ACTN    C3  134   5.410   3.195   0.397
   14ACTN    H1  135   5.169   3.238   0.206
   14ACTN    H2  136   5.219   3.075   0.253
   14ACTN    H3  137   5.261   3.140   0.092
   14ACTN    H4  138   5.385   3.289   0.447
   14ACTN    H5  139   5.517   3.182   0.414
   14ACTN    H6  140   5.355   3.114   0.443
   15ACTN    C1  141   5.766   0.998   2.118
   15ACTN    O1  142   5.596   1.166   2.139
   15ACTN    C2  143   5.675   1.105   2.065
   15ACTN    C3  144   5.643   1.112   1.922
   15ACTN    H1  145   5.870   1.030   2.117
   15ACTN    H2  146   5.755   0.910   2.056
   15ACTN    H3  147   5.740   0.974   2.222
   15ACTN    H4  148   5.709   1.189   1.881
   15ACTN    H5  149   5.542   1.149   1.903
   15ACTN    H6  150   5.658   1.019   1.869
   16ACTN    C1  151   3.652   5.908   5.811
   16ACTN    O1  152   3.871   5.984   5.874
   16ACTN    C2  153   3.799   5.890   5.834
   16ACTN    C3  154   3.872   5.780   5.771
   16ACTN    H1  155   3.593   5.853   5.884
   16ACTN    H2  156   3.628   5.872   5.712
   16ACTN    H3  157   3.625   6.014   5.820
   16ACTN    H4  158   3.881   5.702   5.846
   16ACTN    H5  159   3.975   5.806   5.746
   16ACTN    H6  160   3.823   5.740   5.683
   17ACTN    C1  161   2.904   2.210   3.872
   17ACTN    O1  162   2.710   2.072   3.837
   17ACTN    C2  163   2.762   2.185   3.828
   17ACTN    C3  164   2.695   2.277   3.736
   17ACTN    H1  165   2.908   2.272   3.962
   17ACTN    H2  166   2.956   2.260   3.791
   17ACTN    H3  167   2.953   2.115   3.895
   17ACTN    H4  168   2.633   2.342   3.797
   17ACTN    H5  169   2.624   2.226   3.670
   17ACTN    H6  170   2.763   2.337   3.676
   18ACTN    C1  171   1.887   0.223   2.194
   18ACTN    O1  172   2.108   0.316   2.180
   18ACTN    C2  173   2.011   0.265   2.121
   18ACTN    C3  174   2.008   0.288   1.976
   18ACTN    H1  175   1.876   0.115   2.197
   18ACTN    H2  176   1.801   0.266   2.144
   18ACTN    H3  177   1.891   0.258   2.298
   18ACTN    H4  178   2.047   0.198   1.930
   18ACTN    H5  179   2.077   0.367   1.945
   18ACTN    H6  180   1.910   0.310   1.937
   19ACTN    C1  181   4.158   0.831   5.651
   19ACTN    O1  182   4.382   0.809   5.734
   19ACTN    C2  183   4.300   0.875   5.667
   19ACTN    C3  184   4.338   1.015   5.644
   19ACTN    H1  185   4.136   0.799   5.549
   19ACTN    H2  186   4.093   0.914   5.677
   19ACTN    H3  187   4.137   0.746   5.717
   19ACTN    H4  188   4.379   1.019   5.543
   19ACTN    H5  189   4.420   1.048   5.708
   19ACTN    H6  190   4.256   1.085   5.652
   20ACTN    C1  191   6.417   3.295   5.410
   20ACTN    O1  192   6.478   3.509   5.319
   20ACTN    C2  193   6.457   3.440   5.420
   20ACTN    C3  194   6.513   3.493   5.544
   20ACTN    H1  195   6.314   3.279   5.440
   20ACTN    H2  196   6.483   3.237   5.474
   20ACTN    H3  197   6.426   3.261   5.306
   20ACTN    H4  198   6.431   3.542   5.596
   20ACTN    H5  199   6.586   3.573   5.526
   20ACTN    H6  200   6.557   3.418   5.608
   21ACTN    C1  201   5.966   6.207   0.239
   21ACTN    O1  202   6.160   6.066   0.219
   21ACTN    C2  203   6.046   6.082   0.266
   21ACTN    C3  204   5.979   5.959   0.310
   21ACTN    H1  205   5.955   6.268   0.328
   21ACTN    H2  206   5.868   6.178   0.204
   21ACTN    H3  207   6.017   6.268   0.163
   21ACTN    H4  208   5.991   5.955   0.418
   21ACTN    H5  209   6.028   5.869   0.273
   21ACTN    H6  210   5.874   5.955   0.285
   22ACTN    C1  211   4.123   6.061   1.116
   22ACTN    O1  212   4.092   6.297   1.090
   22ACTN    C2  213   4.061   6.193   1.150
   22ACTN    C3  214   3.997   6.213   1.281
   22ACTN    H1  215   4.051   5.993   1.069
   22ACTN    H2  216   4.160   6.015   1.207
   22ACTN    H3  217   4.205   6.075   1.045
   22ACTN    H4  218   3.890   6.201   1.264
   22ACTN    H5  219   4.007   6.316   1.317
   22ACTN    H6  220   4.030   6.145   1.357
   23ACTN    C1  221   2.978   4.035   2.442
   23ACTN    O1  222   3.096   3.924   2.265
   23ACTN    C2  223   3.079   3.938   2.387
   23ACTN    C3  224   3.128   3.827   2.470
   23ACTN    H1  225   3.025   4.119   2.492
   23ACTN    H2  226   2.915   3.982   2.513
   23ACTN    H3  227   2.916   4.075   2.361
   23ACTN    H4  228   3.224   3.860   2.509
   23ACTN    H5  229   3.151   3.738   2.411
   23ACTN    H6  230   3.063   3.800   2.551
   24ACTN    C1  231   5.991   1.235   1.392
   24ACTN    O1  232   6.172   1.143   1.522
   24ACTN    C2  233   6.060   1.198   1.521
   24ACTN    C3  234   5.983   1.186   1.645
   24ACTN    H1  235   5.987   1.342   1.377
   24ACTN    H2  236   5.891   1.195   1.395
   24ACTN    H3  237   6.046   1.192   1.307
   24ACTN    H4  238   5.996   1.280   1.699
   24ACTN    H5  239   6.024   1.110   1.712
   24ACTN    H6  240   5.878   1.167   1.630
   25ACTN    C1  241   7.350   2.706   7.704
   25ACTN    O1  242   7.290   2.717   7.936
   25ACTN    C2  243   7.377   2.691   7.851
   25ACTN    C3  244   7.515   2.690   7.901
   25ACTN    H1  245   7.346   2.609   7.653
   25ACTN    H2  246   7.429   2.766   7.660
   25ACTN    H3  247   7.253   2.755   7.688
   25ACTN    H4  248   7.540   2.585   7.916
   25ACTN    H5  249   7.524   2.735   8.000
   25ACTN    H6  250   7.587   2.736   7.835
   26ACTN    C1  251   1.329   2.311   6.544
   26ACTN    O1  252   1.258   2.101   6.452
   26ACTN    C2  253   1.271   2.223   6.437
   26ACTN    C3  254   1.266   2.269   6.298
   26ACTN    H1  255   1.254   2.376   6.589
   26ACTN    H2  256   1.407   2.372   6.500
   26ACTN    H3  257   1.371   2.249   6.624
   26ACTN    H4  258   1.165   2.306   6.281
   26ACTN    H5  259   1.277   2.187   6.226
   26ACTN    H6  260   1.338   2.347   6.274
   27ACTN    C1  261   7.211   4.031   2.674
   27ACTN    O1  262   7.292   4.247   2.738
   27ACTN    C2  263   7.195   4.171   2.725
   27ACTN    C3  264   7.076   4.209   2.802
   27ACTN    H1  265   7.168   4.019   2.575
   27ACTN    H2  266   7.161   3.963   2.743
   27ACTN    H3  267   7.317   4.006   2.667
   27ACTN    H4  268   7.009   4.259   2.731
   27ACTN    H5  269   7.097   4.285   2.878
   27ACTN    H6  270   7.024   4.126   2.848
   28ACTN    C1  271   5.261   2.457   7.574
   28ACTN    O1  272   5.142   2.250   7.548
   28ACTN    C2  273   5.208   2.341   7.494
   28ACTN    C3  274   5.265   2.308   7.364
   28ACTN    H1  275   5.209   2.550   7.549
   28ACTN    H2  276   5.366   2.468   7.552
   28ACTN    H3  277   5.247   2.439   7.681
   28ACTN    H4  278   5.199   2.352   7.289
   28ACTN    H5  279   5.263   2.201   7.343
   28ACTN    H6  280   5.365   2.345   7.349
   29ACTN    C1  281   2.080   3.553   5.946
   29ACTN    O1  282   2.003   3.653   5.742
   29ACTN    C2  283   1.982   3.630   5.862
   29ACTN    C3  284   1.882   3.716   5.925
   29ACTN    H1  285   2.042   3.455   5.974
   29ACTN    H2  286   2.100   3.610   6.036
   29ACTN    H3  287   2.174   3.538   5.890
   29ACTN    H4  288   1.789   3.658   5.928
   29ACTN    H5  289   1.857   3.803   5.865
   29ACTN    H6  290   1.907   3.748   6.025
   30ACTN    C1  291   4.557   4.432   7.268
   30ACTN    O1  292   4.771   4.326   7.251
   30ACTN    C2  293   4.706   4.431   7.249
   30ACTN    C3  294   4.784   4.554   7.272
   30ACTN    H1  295   4.504   4.459   7.177
   30ACTN    H2  296   4.532   4.503   7.346
   30ACTN    H3  297   4.523   4.332   7.298
   30ACTN    H4  298   4.801   4.597   7.173
   30ACTN    H5  299   4.884   4.533   7.311
   30ACTN    H6  300   4.735   4.626   7.336
   31ACTN    C1  301   3.735   4.896   0.162
   31ACTN    O1  302   3.565   4.907   0.331
   31ACTN    C2  303   3.633   4.836   0.255
   31ACTN    C3  304   3.639   4.694   0.289
   31ACTN    H1  305   3.704   4.890   0.058
   31ACTN    H2  306   3.828   4.843   0.175
   31ACTN    H3  307   3.749   5.003   0.185
   31ACTN    H4  308   3.566   4.644   0.225
   31ACTN    H5  309   3.603   4.674   0.391
   31ACTN    H6  310   3.736   4.649   0.276
   32ACTN    C1  311   1.281   6.332   4.236
   32ACTN    O1  312   1.181   6.451   4.419
   32ACTN    C2  313   1.206   6.447   4.297
   32ACTN    C3  314   1.124   6.535   4.213
   32ACTN    H1  315   1.381   6.360   4.203
   32ACTN    H2  316   1.224   6.296   4.151
   32ACTN    H3  317   1.292   6.251   4.310
   32ACTN    H4  318   1.185   6.623   4.194
   32ACTN    H5  319   1.037   6.574   4.266
   32ACTN    H6  320   1.093   6.491   4.120
   33ACTN    C1  321   4.258   2.704   0.201
   33ACTN    O1  322   4.163   2.542   0.351
   33ACTN    C2  323   4.254   2.570   0.270
   33ACTN    C3  324   4.374   2.488   0.280
   33ACTN    H1  325   4.237   2.695   0.095
   33ACTN    H2  326   4.357   2.746   0.215
   33ACTN    H3  327   4.183   2.771   0.245
   33ACTN    H4  328   4.367   2.414   0.200
   33ACTN    H5  329   4.378   2.429   0.372
   33ACTN    H6  330   4.467   2.543   0.270
   34ACTN    C1  331   0.961   1.858   1.102
   34ACTN    O1  332   1.165   1.794   1.212
   34ACTN    C2  333   1.079   1.882   1.192
   34ACTN    C3  334   1.077   1.990   1.291
   34ACTN    H1  335   0.968   1.916   1.010
   34ACTN    H2  336   0.871   1.886   1.156
   34ACTN    H3  337   0.956   1.752   1.074
   34ACTN    H4  338   1.131   2.073   1.247
   34ACTN    H5  339   1.133   1.965   1.382
   34ACTN    H6  340   0.977   2.022   1.319
   35ACTN    C1  341   7.068   5.906   0.394
   35ACTN    O1  342   7.289   5.968   0.323
   35ACTN    C2  343   7.198   5.979   0.408
   35ACTN    C3  344   7.242   6.028   0.539
   35ACTN    H1  345   6.985   5.974   0.373
   35ACTN    H2  346   7.048   5.852   0.486
   35ACTN    H3  347   7.073   5.835   0.310
   35ACTN    H4  348   7.216   6.134   0.542
   35ACTN    H5  349   7.351   6.025   0.551
   35ACTN    H6  350   7.196   5.977   0.623
   36ACTN    C1  351   2.205   1.415   7.680
   36ACTN    O1  352   2.199   1.616   7.811
   36ACTN    C2  353   2.155   1.501   7.792
   36ACTN    C3  354   2.087   1.441   7.907
   36ACTN    H1  355   2.129   1.401   7.602
   36ACTN    H2  356   2.233   1.318   7.720
   36ACTN    H3  357   2.292   1.462   7.632
   36ACTN    H4  358   1.980   1.454   7.889
   36ACTN    H5  359   2.106   1.496   8.000
   36ACTN    H6  360   2.109   1.337   7.922
   37ACTN    C1  361   5.656   4.246   2.624
   37ACTN    O1  362   5.762   4.054   2.720
   37ACTN    C2  363   5.701   4.161   2.739
   37ACTN    C3  364   5.640   4.175   2.871
   37ACTN    H1  365   5.713   4.339   2.617
   37ACTN    H2  366   5.551   4.269   2.637
   37ACTN    H3  367   5.671   4.193   2.529
   37ACTN    H4  368   5.708   4.238   2.929
   37ACTN    H5  369   5.636   4.081   2.926
   37ACTN    H6  370   5.542   4.221   2.869
   38ACTN    C1  371   5.476   3.750   1.861
   38ACTN    O1  372   5.616   3.587   1.968
   38ACTN    C2  373   5.506   3.644   1.963
   38ACTN    C3  374   5.396   3.574   2.031
   38ACTN    H1  375   5.467   3.849   1.906
   38ACTN    H2  376   5.383   3.725   1.811
   38ACTN    H3  377   5.558   3.755   1.788
   38ACTN    H4  378   5.385   3.622   2.128
   38ACTN    H5  379   5.422   3.470   2.055
   38ACTN    H6  380   5.303   3.576   1.977
   39ACTN    C1  381   4.928   7.081   3.674
   39ACTN    O1  382   4.706   6.994   3.648
   39ACTN    C2  383   4.808   7.040   3.594
   39ACTN    C3  384   4.821   7.012   3.450
   39ACTN    H1  385   4.942   7.189   3.674
   39ACTN    H2  386   5.016   7.034   3.632
   39ACTN    H3  387   4.916   7.049   3.779
   39ACTN    H4  388   4.788   7.102   3.399
   39ACTN    H5  389   4.752   6.934   3.417
   39ACTN    H6  390   4.921   6.986   3.419
   40ACTN    C1  391   7.713   5.946   0.055
   40ACTN    O1  392   7.514   5.818   0.014
   40ACTN    C2  393   7.564   5.924   0.054
   40ACTN    C3  394   7.472   6.039   0.056
   40ACTN    H1  395   7.752   5.950   0.157
   40ACTN    H2  396   7.734   6.039   0.005
   40ACTN    H3  397   7.763   5.863   0.004
   40ACTN    H4  398   7.440   6.050   0.159
   40ACTN    H5  399   7.380   6.020  -0.000
   40ACTN    H6  400   7.516   6.131   0.022
   41ACTN    C1  401   0.940   2.153   5.567
   41ACTN    O1  402   0.743   2.031   5.505
   41ACTN    C2  403   0.802   2.140   5.509
   41ACTN    C3  404   0.750   2.242   5.418
   41ACTN    H1  405   0.940   2.209   5.660
   41ACTN    H2  406   1.003   2.205   5.495
   41ACTN    H3  407   0.982   2.054   5.587
   41ACTN    H4  408   0.687   2.307   5.478
   41ACTN    H5  409   0.682   2.201   5.342
   41ACTN    H6  410   0.826   2.301   5.369
   42ACTN    C1  411   6.170   1.894   1.941
   42ACTN    O1  412   6.275   1.839   2.150
   42ACTN    C2  413   6.171   1.868   2.089
   42ACTN    C3  414   6.047   1.834   2.159
   42ACTN    H1  415   6.152   1.999   1.918
   42ACTN    H2  416   6.092   1.834   1.896
   42ACTN    H3  417   6.268   1.868   1.898
   42ACTN    H4  418   6.011   1.926   2.205
   42ACTN    H5  419   6.063   1.766   2.243
   42ACTN    H6  420   5.970   1.794   2.095
   43ACTN    C1  421   5.658   4.092   7.417
   43ACTN    O1  422   5.517   4.135   7.227
   43ACTN    C2  423   5.526   4.114   7.350
   43ACTN    C3  424   5.409   4.155   7.428
   43ACTN    H1  425   5.670   3.989   7.451
   43ACTN    H2  426   5.666   4.159   7.502
   43ACTN    H3  427   5.740   4.112   7.346
   43ACTN    H4  428   5.351   4.064   7.447
   43ACTN    H5  429   5.341   4.220   7.372
   43ACTN    H6  430   5.433   4.202   7.522
   44ACTN    C1  431   7.109   6.694   3.786
   44ACTN    O1  432   7.092   6.773   3.560
   44ACTN    C2  433   7.129   6.683   3.637
   44ACTN    C3  434   7.152   6.553   3.574
   44ACTN    H1  435   7.204   6.708   3.838
   44ACTN    H2  436   7.062   6.604   3.820
   44ACTN    H3  437   7.047   6.781   3.809
   44ACTN    H4  438   7.259   6.545   3.560
   44ACTN    H5  439   7.110   6.547   3.474
   44ACTN    H6  440   7.117   6.469   3.633
   45ACTN    C1  441   7.004   0.719   7.169
   45ACTN    O1  442   6.895   0.872   7.318
   45ACTN    C2  443   6.974   0.777   7.304
   45ACTN    C3  444   7.066   0.755   7.416
   45ACTN    H1  445   6.963   0.619   7.157
   45ACTN    H2  446   7.112   0.715   7.157
   45ACTN    H3  447   6.960   0.782   7.090
   45ACTN    H4  448   7.023   0.674   7.475
   45ACTN    H5  449   7.068   0.840   7.486
   45ACTN    H6  450   7.167   0.730   7.387
   46ACTN    C1  451   4.896   2.518   0.554
   46ACTN    O1  452   4.931   2.437   0.777
   46ACTN    C2  453   4.851   2.477   0.691
   46ACTN    C3  454   4.711   2.442   0.716
   46ACTN    H1  455   4.887   2.626   0.539
   46ACTN    H2  456   4.835   2.466   0.481
   46ACTN    H3  457   5.002   2.492   0.540
   46ACTN    H4  458   4.664   2.530   0.759
   46ACTN    H5  459   4.700   2.365   0.792
   46ACTN    H6  460   4.657   2.412   0.627
   47ACTN    C1  461   3.656   5.747   5.431
   47ACTN    O1  462   3.723   5.549   5.314
   47ACTN    C2  463   3.712   5.608   5.423
   47ACTN    C3  464   3.714   5.521   5.541
   47ACTN    H1  465   3.733   5.820   5.459
   47ACTN    H2  466   3.578   5.748   5.506
   47ACTN    H3  467   3.616   5.777   5.334
   47ACTN    H4  468   3.815   5.527   5.581
   47ACTN    H5  469   3.701   5.415   5.515
   47ACTN    H6  470   3.643   5.548   5.617
   48ACTN    C1  471   6.869   1.153   7.648
   48ACTN    O1  472   6.976   1.293   7.811
   48ACTN    C2  473   6.922   1.284   7.699
   48ACTN    C3  474   6.875   1.411   7.643
   48ACTN    H1  475   6.928   1.115   7.565
   48ACTN    H2  476   6.766   1.168   7.615
   48ACTN    H3  477   6.871   1.078   7.727
   48ACTN    H4  478   6.951   1.442   7.571
   48ACTN    H5  479   6.873   1.491   7.717
   48ACTN    H6  480   6.779   1.405   7.594
   49ACTN    C1  481   5.344   5.139   1.874
   49ACTN    O1  482   5.310   5.365   1.803
   49ACTN    C2  483   5.292   5.279   1.890
   49ACTN    C3  484   5.258   5.330   2.023
   49ACTN    H1  485   5.263   5.067   1.859
   49ACTN    H2  486   5.399   5.112   1.963
   49ACTN    H3  487   5.409   5.133   1.786
   49ACTN    H4  488   5.150   5.321   2.032
   49ACTN    H5  489   5.277   5.438   2.033
   49ACTN    H6  490   5.306   5.278   2.104
   50ACTN    C1  491   0.210   7.606   2.823
   50ACTN    O1  492   0.000   7.491   2.803
   50ACTN    C2  493   0.089   7.559   2.748
   50ACTN    C3  494   0.090   7.551   2.602
   50ACTN    H1  495   0.209   7.714   2.837
   50ACTN    H2  496   0.298   7.578   2.766
   50ACTN    H3  497   0.213   7.560   2.922
   50ACTN    H4  498   0.040   7.642   2.566
   50ACTN    H5  499   0.029   7.469   2.563
   50ACTN    H6  500   0.189   7.545   2.558
   51ACTN    C1  501   6.821   6.094   2.727
   51ACTN    O1  502   6.907   5.885   2.808
   51ACTN    C2  503   6.808   5.951   2.772
   51ACTN    C3  504   6.690   5.872   2.734
   51ACTN    H1  505   6.776   6.163   2.798
   51ACTN    H2  506   6.771   6.105   2.631
   51ACTN    H3  507   6.927   6.121   2.717
   51ACTN    H4  508   6.624   5.874   2.821
   51ACTN    H5  509   6.714   5.766   2.720
   51ACTN    H6  510   6.638   5.909   2.647
   52ACTN    C1  511   3.449   6.825   1.394
   52ACTN    O1  512   3.677   6.888   1.351
   52ACTN    C2  513   3.588   6.802   1.342
   52ACTN    C3  514   3.613   6.697   1.243
   52ACTN    H1  515   3.428   6.765   1.482
   52ACTN    H2  516   3.378   6.801   1.315
   52ACTN    H3  517   3.438   6.931   1.423
   52ACTN    H4  518   3.651   6.611   1.298
   52ACTN    H5  519   3.694   6.723   1.174
   52ACTN    H6  520   3.526   6.668   1.186
   53ACTN    C1  521   7.862   0.554   3.302
   53ACTN    O1  522   7.626   0.533   3.336
   53ACTN    C2  523   7.731   0.480   3.298
   53ACTN    C3  524   7.729   0.334   3.292
   53ACTN    H1  525   7.899   0.577   3.203
   53ACTN    H2  526   7.935   0.492   3.353
   53ACTN    H3  527   7.850   0.649   3.356
   53ACTN    H4  528   7.713   0.308   3.187
   53ACTN    H5  529   7.643   0.291   3.344
   53ACTN    H6  530   7.819   0.286   3.327
   54ACTN    C1  531   3.152   2.034   3.053
   54ACTN    O1  532   3.264   1.823   3.039
   54ACTN    C2  533   3.237   1.923   3.107
   54ACTN    C3  534   3.254   1.906   3.252
   54ACTN    H1  535   3.209   2.125   3.037
   54ACTN    H2  536   3.073   2.055   3.125
   54ACTN    H3  537   3.108   2.005   2.957
   54ACTN    H4  538   3.350   1.952   3.276
   54ACTN    H5  539   3.266   1.801   3.280
   54ACTN    H6  540   3.176   1.951   3.311
   55ACTN    C1  541   4.381   4.670   6.138
   55ACTN    O1  542   4.243   4.483   6.079
   55ACTN    C2  543   4.330   4.530   6.155
   55ACTN    C3  544   4.345   4.459   6.283
   55ACTN    H1  545   4.485   4.671   6.104
   55ACTN    H2  546   4.375   4.720   6.234
   55ACTN    H3  547   4.321   4.723   6.064
   55ACTN    H4  548   4.432   4.395   6.272
   55ACTN    H5  549   4.262   4.391   6.303
   55ACTN    H6  550   4.359   4.525   6.368
   56ACTN    C1  551   2.410   0.563   4.923
   56ACTN    O1  552   2.263   0.753   4.920
   56ACTN    C2  553   2.346   0.683   4.859
   56ACTN    C3  554   2.344   0.697   4.713
   56ACTN    H1  555   2.516   0.580   4.943
   56ACTN    H2  556   2.399   0.479   4.856
   56ACTN    H3  557   2.362   0.541   5.019
   56ACTN    H4  558   2.426   0.765   4.688
   56ACTN    H5  559   2.254   0.749   4.677
   56ACTN    H6  560   2.356   0.604   4.659
   57ACTN    C1  561   1.229   7.673   0.524
   57ACTN    O1  562   1.377   7.738   0.347
   57ACTN    C2  563   1.362   7.713   0.468
   57ACTN    C3  564   1.486   7.681   0.540
   57ACTN    H1  565   1.188   7.750   0.589
   57ACTN    H2  566   1.242   7.582   0.581
   57ACTN    H3  567   1.157   7.656   0.443
   57ACTN    H4  568   1.514   7.772   0.592
   57ACTN    H5  569   1.570   7.661   0.472
   57ACTN    H6  570   1.477   7.600   0.610
   58ACTN    C1  571   6.597   7.021   3.460
   58ACTN    O1  572   6.676   7.165   3.634
   58ACTN    C2  573   6.579   7.117   3.574
   58ACTN    C3  574   6.451   7.125   3.645
   58ACTN    H1  575   6.569   7.065   3.365
   58ACTN    H2  576   6.535   6.934   3.479
   58ACTN    H3  577   6.702   6.991   3.453
   58ACTN    H4  578   6.398   7.210   3.603
   58ACTN    H5  579   6.464   7.150   3.751
   58ACTN    H6  580   6.391   7.036   3.636
   59ACTN    C1  581   2.039   2.099   5.896
   59ACTN    O1  582   2.211   2.015   6.040
   59ACTN    C2  583   2.111   1.991   5.970
   59ACTN    C3  584   2.096   1.850   5.931
   59ACTN    H1  585   1.941   2.119   5.939
   59ACTN    H2  586   2.027   2.068   5.793
   59ACTN    H3  587   2.096   2.193   5.901
   59ACTN    H4  588   2.022   1.808   6.000
   59ACTN    H5  589   2.186   1.792   5.948
   59ACTN    H6  590   2.062   1.837   5.829
   60ACTN    C1  591   2.341   3.369   2.842
   60ACTN    O1  592   2.214   3.463   3.023
   60ACTN    C2  593   2.286   3.483   2.924
   60ACTN    C3  594   2.277   3.618   2.867
   60ACTN    H1  595   2.448   3.359   2.854
   60ACTN    H2  596   2.318   3.388   2.738
   60ACTN    H3  597   2.295   3.275   2.875
   60ACTN    H4  598   2.364   3.672   2.905
   60ACTN    H5  599   2.191   3.674   2.905
   60ACTN    H6  600   2.277   3.621   2.759
   61ACTN    C1  601   4.653   2.645   3.286
   61ACTN    O1  602   4.651   2.407   3.256
   61ACTN    C2  603   4.644   2.519   3.204
   61ACTN    C3  604   4.670   2.523   3.060
   61ACTN    H1  605   4.558   2.698   3.290
   61ACTN    H2  606   4.728   2.710   3.242
   61ACTN    H3  607   4.681   2.620   3.389
   61ACTN    H4  608   4.573   2.526   3.011
   61ACTN    H5  609   4.716   2.430   3.023
   61ACTN    H6  610   4.730   2.607   3.028
   62ACTN    C1  611   5.546   2.544   3.232
   62ACTN    O1  612   5.493   2.506   3.463
   62ACTN    C2  613   5.464   2.485   3.343
   62ACTN    C3  614   5.378   2.368   3.319
   62ACTN    H1  615   5.491   2.621   3.178
   62ACTN    H2  616   5.573   2.464   3.163
   62ACTN    H3  617   5.636   2.591   3.272
   62ACTN    H4  618   5.278   2.408   3.306
   62ACTN    H5  619   5.371   2.303   3.407
   62ACTN    H6  620   5.406   2.310   3.233
   63ACTN    C1  621   4.138   4.104   2.704
   63ACTN    O1  622   4.240   4.289   2.819
   63ACTN    C2  623   4.199   4.172   2.824
   63ACTN    C3  624   4.251   4.093   2.936
   63ACTN    H1  625   4.031   4.088   2.717
   63ACTN    H2  626   4.188   4.009   2.691
   63ACTN    H3  627   4.152   4.167   2.615
   63ACTN    H4  628   4.173   4.093   3.012
   63ACTN    H5  629   4.337   4.140   2.985
   63ACTN    H6  630   4.276   3.991   2.910
   64ACTN    C1  631   1.716   0.388   0.311
   64ACTN    O1  632   1.485   0.375   0.249
   64ACTN    C2  633   1.587   0.444   0.258
   64ACTN    C3  634   1.587   0.566   0.177
   64ACTN    H1  635   1.742   0.430   0.409
   64ACTN    H2  636   1.795   0.412   0.241
   64ACTN    H3  637   1.708   0.280   0.323
   64ACTN    H4  638   1.561   0.648   0.244
   64ACTN    H5  639   1.508   0.566   0.101
   64ACTN    H6  640   1.682   0.588   0.129
   65ACTN    C1  641   6.146   7.706   4.845
   65ACTN    O1  642   6.374   7.735   4.776
   65ACTN    C2  643   6.254   7.764   4.758
   65ACTN    C3  644   6.230   7.886   4.681
   65ACTN    H1  645   6.083   7.636   4.791
   65ACTN    H2  646   6.084   7.787   4.881
   65ACTN    H3  647   6.190   7.652   4.929
   65ACTN    H4  648   6.207   7.853   4.579
   65ACTN    H5  649   6.320   7.947   4.670
   65ACTN    H6  650   6.149   7.947   4.719
   66ACTN    C1  651   1.029   4.750   5.007
   66ACTN    O1  652   1.205   4.792   4.849
   66ACTN    C2  653   1.171   4.743   4.958
   66ACTN    C3  654   1.263   4.643   5.012
   66ACTN    H1  655   1.019   4.816   5.093
   66ACTN    H2  656   0.998   4.650   5.035
   66ACTN    H3  657   0.964   4.789   4.927
   66ACTN    H4  658   1.323   4.694   5.087
   66ACTN    H5  659   1.336   4.608   4.938
   66ACTN    H6  660   1.215   4.557   5.056
   67ACTN    C1  661   5.537   1.434   2.047
   67ACTN    O1  662   5.597   1.370   1.823
   67ACTN    C2  663   5.508   1.405   1.902
   67ACTN    C3  664   5.386   1.457   1.839
   67ACTN    H1  665   5.494   1.359   2.113
   67ACTN    H2  666   5.495   1.531   2.071
   67ACTN    H3  667   5.645   1.434   2.064
   67ACTN    H4  668   5.314   1.376   1.839
   67ACTN    H5  669   5.401   1.481   1.733
   67ACTN    H6  670   5.344   1.543   1.889
   68ACTN    C1  671   6.395   3.221   0.370
   68ACTN    O1  672   6.225   3.350   0.262
   68ACTN    C2  673   6.260   3.286   0.362
   68ACTN    C3  674   6.184   3.313   0.484
   68ACTN    H1  675   6.389   3.112   0.366
   68ACTN    H2  676   6.442   3.250   0.463
   68ACTN    H3  677   6.457   3.252   0.285
   68ACTN    H4  678   6.111   3.232   0.493
   68ACTN    H5  679   6.122   3.404   0.476
   68ACTN    H6  680   6.244   3.319   0.573
   69ACTN    C1  681   1.898   1.392   6.405
   69ACTN    O1  682   2.082   1.262   6.324
   69ACTN    C2  683   1.959   1.271   6.341
   69ACTN    C3  684   1.878   1.180   6.260
   69ACTN    H1  685   1.858   1.371   6.504
   69ACTN    H2  686   1.817   1.427   6.341
   69ACTN    H3  687   1.973   1.471   6.417
   69ACTN    H4  688   1.852   1.097   6.324
   69ACTN    H5  689   1.935   1.135   6.178
   69ACTN    H6  690   1.788   1.225   6.220
   70ACTN    C1  691   7.428   3.657   7.619
   70ACTN    O1  692   7.234   3.593   7.744
   70ACTN    C2  693   7.285   3.615   7.632
   70ACTN    C3  694   7.213   3.558   7.518
   70ACTN    H1  695   7.437   3.761   7.586
   70ACTN    H2  696   7.476   3.593   7.546
   70ACTN    H3  697   7.479   3.649   7.716
   70ACTN    H4  698   7.154   3.639   7.475
   70ACTN    H5  699   7.138   3.483   7.549
   70ACTN    H6  700   7.277   3.515   7.443
   71ACTN    C1  701   0.213   3.611   6.491
   71ACTN    O1  702   0.410   3.746   6.472
   71ACTN    C2  703   0.325   3.675   6.415
   71ACTN    C3  704   0.316   3.694   6.270
   71ACTN    H1  705   0.224   3.502   6.496
   71ACTN    H2  706   0.120   3.634   6.441
   71ACTN    H3  707   0.211   3.648   6.594
   71ACTN    H4  708   0.372   3.613   6.225
   71ACTN    H5  709   0.367   3.785   6.236
   71ACTN    H6  710   0.214   3.694   6.232
   72ACTN    C1  711   3.057   4.733   2.315
   72ACTN    O1  712   3.064   4.972   2.298
   72ACTN    C2  713   3.123   4.864   2.282
   72ACTN    C3  714   3.239   4.868   2.192
   72ACTN    H1  715   3.102   4.685   2.402
   72ACTN    H2  716   3.067   4.667   2.229
   72ACTN    H3  717   2.951   4.749   2.337
   72ACTN    H4  718   3.327   4.873   2.256
   72ACTN    H5  719   3.242   4.960   2.133
   72ACTN    H6  720   3.247   4.783   2.126
   73ACTN    C1  721   5.626   5.425   7.223
   73ACTN    O1  722   5.682   5.653   7.273
   73ACTN    C2  723   5.719   5.534   7.266
   73ACTN    C3  724   5.864   5.515   7.258
   73ACTN    H1  725   5.601   5.358   7.306
   73ACTN    H2  726   5.673   5.368   7.144
   73ACTN    H3  727   5.531   5.468   7.187
   73ACTN    H4  728   5.897   5.488   7.359
   73ACTN    H5  729   5.918   5.608   7.235
   73ACTN    H6  730   5.895   5.438   7.189
   74ACTN    C1  731   7.377   7.252   7.686
   74ACTN    O1  732   7.314   7.049   7.797
   74ACTN    C2  733   7.300   7.172   7.787
   74ACTN    C3  734   7.178   7.225   7.848
   74ACTN    H1  735   7.452   7.316   7.733
   74ACTN    H2  736   7.307   7.314   7.631
   74ACTN    H3  737   7.430   7.185   7.617
   74ACTN    H4  738   7.207   7.265   7.945
   74ACTN    H5  739   7.105   7.147   7.871
   74ACTN    H6  740   7.130   7.303   7.789
   75ACTN    C1  741   6.947   4.760   3.854
   75ACTN    O1  742   6.893   4.990   3.812
   75ACTN    C2  743   6.932   4.881   3.766
   75ACTN    C3  744   6.921   4.867   3.621
   75ACTN    H1  745   7.051   4.733   3.869
   75ACTN    H2  746   6.894   4.678   3.808
   75ACTN    H3  747   6.904   4.781   3.953
   75ACTN    H4  748   7.021   4.886   3.581
   75ACTN    H5  749   6.858   4.943   3.576
   75ACTN    H6  750   6.887   4.769   3.589
   76ACTN    C1  751   2.921   7.619   0.070
   76ACTN    O1  752   2.821   7.401   0.078
   76ACTN    C2  753   2.905   7.479   0.124
   76ACTN    C3  754   2.956   7.445   0.258
   76ACTN    H1  755   3.015   7.631   0.016
   76ACTN    H2  756   2.919   7.688   0.154
   76ACTN    H3  757   2.840   7.641   0.000
   76ACTN    H4  758   3.052   7.397   0.242
   76ACTN    H5  759   2.895   7.370   0.308
   76ACTN    H6  760   2.968   7.530   0.324
   77ACTN    C1  761   0.352   6.606   2.884
   77ACTN    O1  762   0.289   6.788   2.741
   77ACTN    C2  763   0.317   6.750   2.855
   77ACTN    C3  764   0.354   6.855   2.950
   77ACTN    H1  765   0.275   6.556   2.941
   77ACTN    H2  766   0.445   6.605   2.940
   77ACTN    H3  767   0.365   6.552   2.789
   77ACTN    H4  768   0.265   6.876   3.009
   77ACTN    H5  769   0.376   6.950   2.900
   77ACTN    H6  770   0.436   6.830   3.015
   78ACTN    C1  771   7.399   2.610   3.485
   78ACTN    O1  772   7.426   2.630   3.248
   78ACTN    C2  773   7.397   2.558   3.344
   78ACTN    C3  774   7.321   2.437   3.311
   78ACTN    H1  775   7.481   2.567   3.543
   78ACTN    H2  776   7.305   2.586   3.532
   78ACTN    H3  777   7.414   2.719   3.485
   78ACTN    H4  778   7.393   2.355   3.309
   78ACTN    H5  779   7.280   2.440   3.210
   78ACTN    H6  780   7.242   2.414   3.381
   79ACTN    C1  781   3.293   4.035   0.548
   79ACTN    O1  782   3.524   4.077   0.497
   79ACTN    C2  783   3.436   4.064   0.584
   79ACTN    C3  784   3.486   4.036   0.719
   79ACTN    H1  785   3.228   4.120   0.569
   79ACTN    H2  786   3.260   3.950   0.607
   79ACTN    H3  787   3.285   4.013   0.441
   79ACTN    H4  788   3.484   4.130   0.773
   79ACTN    H5  789   3.591   4.006   0.719
   79ACTN    H6  790   3.428   3.962   0.773
   80ACTN    C1  791   3.603   5.217   2.483
   80ACTN    O1  792   3.462   5.023   2.470
   80ACTN    C2  793   3.517   5.117   2.411
   80ACTN    C3  794   3.528   5.101   2.265
   80ACTN    H1  795   3.557   5.315   2.488
   80ACTN    H2  796   3.698   5.225   2.430
   80ACTN    H3  797   3.621   5.183   2.586
   80ACTN    H4  798   3.447   5.159   2.222
   80ACTN    H5  799   3.509   4.998   2.233
   80ACTN    H6  800   3.622   5.134   2.224
   81ACTN    C1  801   1.303   4.752   2.523
   81ACTN    O1  802   1.334   4.574   2.681
   81ACTN    C2  803   1.364   4.689   2.645
   81ACTN    C3  804   1.423   4.773   2.750
   81ACTN    H1  805   1.376   4.765   2.444
   81ACTN    H2  806   1.263   4.849   2.550
   81ACTN    H3  807   1.223   4.688   2.484
   81ACTN    H4  808   1.531   4.772   2.732
   81ACTN    H5  809   1.411   4.730   2.850
   81ACTN    H6  810   1.388   4.875   2.751
   82ACTN    C1  811   0.320   4.847   1.368
   82ACTN    O1  812   0.238   5.070   1.332
   82ACTN    C2  813   0.269   4.960   1.283
   82ACTN    C3  814   0.213   4.933   1.150
   82ACTN    H1  815   0.426   4.827   1.349
   82ACTN    H2  816   0.262   4.759   1.345
   82ACTN    H3  817   0.310   4.873   1.474
   82ACTN    H4  818   0.292   4.955   1.079
   82ACTN    H5  819   0.132   5.003   1.123
   82ACTN    H6  820   0.178   4.832   1.136
   83ACTN    C1  821   5.554   1.283   4.447
   83ACTN    O1  822   5.772   1.213   4.376
   83ACTN    C2  823   5.667   1.185   4.436
   83ACTN    C3  824   5.643   1.042   4.456
   83ACTN    H1  825   5.541   1.320   4.549
   83ACTN    H2  826   5.463   1.234   4.415
   83ACTN    H3  827   5.574   1.370   4.383
   83ACTN    H4  828   5.673   1.020   4.559
   83ACTN    H5  829   5.708   0.979   4.395
   83ACTN    H6  830   5.540   1.012   4.441
   84ACTN    C1  831   4.850   7.149   7.637
   84ACTN    O1  832   5.024   7.312   7.613
   84ACTN    C2  833   4.976   7.218   7.679
   84ACTN    C3  834   5.070   7.152   7.770
   84ACTN    H1  835   4.767   7.170   7.705
   84ACTN    H2  836   4.868   7.042   7.635
   84ACTN    H3  837   4.819   7.184   7.537
   84ACTN    H4  838   5.050   7.192   7.869
   84ACTN    H5  839   5.174   7.179   7.750
   84ACTN    H6  840   5.061   7.044   7.772
   85ACTN    C1  841   0.980   7.620   7.671
   85ACTN    O1  842   0.821   7.735   7.809
   85ACTN    C2  843   0.901   7.740   7.713
   85ACTN    C3  844   0.879   7.852   7.621
   85ACTN    H1  845   1.087   7.632   7.692
   85ACTN    H2  846   0.967   7.606   7.564
   85ACTN    H3  847   0.946   7.531   7.725
   85ACTN    H4  848   0.953   7.928   7.648
   85ACTN    H5  849   0.783   7.901   7.635
   85ACTN    H6  850   0.891   7.826   7.517
   86ACTN    C1  851   3.657   1.331   5.663
   86ACTN    O1  852   3.711   1.363   5.431
   86ACTN    C2  853   3.641   1.305   5.516
   86ACTN    C3  854   3.517   1.245   5.464
   86ACTN    H1  855   3.700   1.246   5.715
   86ACTN    H2  856   3.560   1.353   5.705
   86ACTN    H3  857   3.725   1.416   5.678
   86ACTN    H4  858   3.538   1.139   5.451
   86ACTN    H5  859   3.492   1.281   5.364
   86ACTN    H6  860   3.432   1.258   5.529
   87ACTN    C1  861   7.617   7.946   6.494
   87ACTN    O1  862   7.489   7.751   6.551
   87ACTN    C2  863   7.597   7.798   6.512
   87ACTN    C3  864   7.713   7.709   6.525
   87ACTN    H1  865   7.626   7.974   6.390
   87ACTN    H2  866   7.707   7.975   6.547
   87ACTN    H3  867   7.531   8.000   6.536
   87ACTN    H4  868   7.729   7.665   6.427
   87ACTN    H5  869   7.692   7.623   6.590
   87ACTN    H6  870   7.803   7.758   6.559
   88ACTN    C1  871   1.187   1.426   0.658
   88ACTN    O1  872   1.178   1.626   0.791
   88ACTN    C2  873   1.199   1.503   0.786
   88ACTN    C3  874   1.277   1.450   0.898
   88ACTN    H1  875   1.101   1.359   0.659
   88ACTN    H2  876   1.277   1.369   0.644
   88ACTN    H3  877   1.173   1.496   0.574
   88ACTN    H4  878   1.205   1.405   0.967
   88ACTN    H5  879   1.325   1.528   0.957
   88ACTN    H6  880   1.350   1.376   0.870
   89ACTN    C1  881   1.092   2.543   0.532
   89ACTN    O1  882   1.325   2.488   0.545
   89ACTN    C2  883   1.216   2.471   0.488
   89ACTN    C3  884   1.225   2.414   0.353
   89ACTN    H1  885   1.019   2.475   0.577
   89ACTN    H2  886   1.047   2.590   0.445
   89ACTN    H3  887   1.117   2.619   0.607
   89ACTN    H4  888   1.203   2.308   0.363
   89ACTN    H5  889   1.327   2.417   0.313
   89ACTN    H6  890   1.158   2.458   0.282
   90ACTN    C1  891   3.806   7.561   3.057
   90ACTN    O1  892   3.894   7.611   3.275
   90ACTN    C2  893   3.899   7.539   3.174
   90ACTN    C3  894   4.024   7.464   3.157
   90ACTN    H1  895   3.734   7.480   3.048
   90ACTN    H2  896   3.866   7.565   2.967
   90ACTN    H3  897   3.751   7.654   3.070
   90ACTN    H4  898   4.003   7.363   3.192
   90ACTN    H5  899   4.104   7.500   3.222
   90ACTN    H6  900   4.059   7.460   3.055
   91ACTN    C1  901   4.436   0.862   2.463
   91ACTN    O1  902   4.441   0.622   2.474
   91ACTN    C2  903   4.482   0.730   2.519
   91ACTN    C3  904   4.542   0.723   2.653
   91ACTN    H1  905   4.515   0.914   2.409
   91ACTN    H2  906   4.402   0.924   2.546
   91ACTN    H3  907   4.353   0.846   2.393
   91ACTN    H4  908   4.650   0.721   2.638
   91ACTN    H5  909   4.520   0.629   2.703
   91ACTN    H6  910   4.515   0.805   2.717
   92ACTN    C1  911   5.099   1.105   6.941
   92ACTN    O1  912   5.316   1.004   6.955
   92ACTN    C2  913   5.194   0.993   6.972
   92ACTN    C3  914   5.145   0.855   6.981
   92ACTN    H1  915   5.056   1.148   7.032
   92ACTN    H2  916   5.020   1.067   6.878
   92ACTN    H3  917   5.152   1.186   6.890
   92ACTN    H4  918   5.132   0.834   7.087
   92ACTN    H5  919   5.219   0.782   6.947
   92ACTN    H6  920   5.052   0.838   6.929
   93ACTN    C1  921   6.473   1.331   3.434
   93ACTN    O1  922   6.673   1.451   3.491
   93ACTN    C2  923   6.567   1.399   3.529
   93ACTN    C3  924   6.560   1.371   3.673
   93ACTN    H1  925   6.381   1.386   3.420
   93ACTN    H2  926   6.451   1.232   3.473
   93ACTN    H3  927   6.521   1.321   3.335
   93ACTN    H4  928   6.502   1.452   3.717
   93ACTN    H5  929   6.658   1.377   3.721
   93ACTN    H6  930   6.514   1.276   3.697
   94ACTN    C1  931   5.466   2.095   0.092
   94ACTN    O1  932   5.349   2.293   0.160
   94ACTN    C2  933   5.457   2.240   0.132
   94ACTN    C3  934   5.566   2.333   0.099
   94ACTN    H1  935   5.515   2.035   0.168
   94ACTN    H2  936   5.523   2.089  -0.000
   94ACTN    H3  937   5.365   2.054   0.077
   94ACTN    H4  938   5.626   2.342   0.189
   94ACTN    H5  939   5.529   2.434   0.080
   94ACTN    H6  940   5.628   2.301   0.017
   95ACTN    C1  941   4.429   3.459   1.732
   95ACTN    O1  942   4.233   3.585   1.676
   95ACTN    C2  943   4.322   3.507   1.638
   95ACTN    C3  944   4.292   3.433   1.515
   95ACTN    H1  945   4.527   3.500   1.707
   95ACTN    H2  946   4.434   3.351   1.726
   95ACTN    H3  947   4.406   3.490   1.834
   95ACTN    H4  948   4.344   3.485   1.435
   95ACTN    H5  949   4.186   3.438   1.487
   95ACTN    H6  950   4.323   3.329   1.517
   96ACTN    C1  951   7.590   4.764   7.167
   96ACTN    O1  952   7.360   4.705   7.137
   96ACTN    C2  953   7.453   4.728   7.216
   96ACTN    C3  954   7.412   4.760   7.352
   96ACTN    H1  955   7.662   4.685   7.186
   96ACTN    H2  956   7.622   4.854   7.217
   96ACTN    H3  957   7.588   4.781   7.058
   96ACTN    H4  958   7.425   4.669   7.410
   96ACTN    H5  959   7.305   4.783   7.360
   96ACTN    H6  960   7.469   4.840   7.398
   97ACTN    C1  961   2.117   6.796   6.049
   97ACTN    O1  962   2.115   7.035   6.072
   97ACTN    C2  963   2.050   6.929   6.073
   97ACTN    C3  964   1.921   6.935   6.141
   97ACTN    H1  965   2.087   6.753   5.953
   97ACTN    H2  966   2.089   6.729   6.129
   97ACTN    H3  967   2.226   6.809   6.046
   97ACTN    H4  968   1.846   6.946   6.063
   97ACTN    H5  969   1.909   7.026   6.202
   97ACTN    H6  970   1.898   6.849   6.202
   98ACTN    C1  971   6.155   6.091   1.748
   98ACTN    O1  972   6.382   6.016   1.763
   98ACTN    C2  973   6.283   6.064   1.821
   98ACTN    C3  974   6.285   6.053   1.967
   98ACTN    H1  975   6.136   6.198   1.737
   98ACTN    H2  976   6.074   6.047   1.804
   98ACTN    H3  977   6.160   6.048   1.647
   98ACTN    H4  978   6.318   6.149   2.005
   98ACTN    H5  979   6.360   5.982   2.003
   98ACTN    H6  980   6.189   6.028   2.010
   99ACTN    C1  981   3.217   6.085   3.111
   99ACTN    O1  982   3.074   6.193   2.951
   99ACTN    C2  983   3.153   6.204   3.046
   99ACTN    C3  984   3.212   6.338   3.062
   99ACTN    H1  985   3.179   6.068   3.212
   99ACTN    H2  986   3.324   6.101   3.116
   99ACTN    H3  987   3.195   5.994   3.053
   99ACTN    H4  988   3.156   6.387   3.140
   99ACTN    H5  989   3.198   6.400   2.973
   99ACTN    H6  990   3.317   6.337   3.088
  100ACTN    C1  991   0.349   5.922   7.249
  100ACTN    O1  992   0.525   6.071   7.314
  100ACTN    C2  993   0.421   6.011   7.346
  100ACTN    C3  994   0.399   5.998   7.490
  100ACTN    H1  995   0.253   5.965   7.218
  100ACTN    H2  996   0.331   5.827   7.297
  100ACTN    H3  997   0.409   5.909   7.159
  100ACTN    H4  998   0.328   6.076   7.517
  100ACTN    H5  999   0.488   6.021   7.549
  100ACTN    H6 1000   0.360   5.902   7.520
  101ACTN    C1 1001   7.005   5.105   5.649
  101ACTN    O1 1002   7.220   5.155   5.555
  101ACTN    C2 1003   7.097   5.149   5.539
  101ACTN    C3 1004   7.046   5.226   5.425
  101ACTN    H1 1005   6.960   5.008   5.629
  101ACTN    H2 1006   6.926   5.179   5.659
  101ACTN    H3 1007   7.060   5.097   5.743
  101ACTN    H4 1008   7.031   5.154   5.344
  101ACTN    H5 1009   7.119   5.297   5.386
  101ACTN    H6 1010   6.953   5.278   5.445
  102ACTN    C1 1011   3.355   6.370   6.821
  102ACTN    O1 1012   3.497   6.442   7.001
  102ACTN    C2 1013   3.419   6.356   6.956
  102ACTN    C3 1014   3.428   6.225   7.022
  102ACTN    H1 1015   3.249   6.388   6.828
  102ACTN    H2 1016   3.372   6.278   6.766
  102ACTN    H3 1017   3.400   6.455   6.767
  102ACTN    H4 1018   3.345   6.221   7.092
  102ACTN    H5 1019   3.518   6.215   7.083
  102ACTN    H6 1020   3.421   6.141   6.953
  103ACTN    C1 1021   4.269   5.136   3.976
  103ACTN    O1 1022   4.493   5.207   3.924
  103ACTN    C2 1023   4.407   5.185   4.011
  103ACTN    C3 1024   4.460   5.168   4.147
  103ACTN    H1 1025   4.194   5.212   3.993
  103ACTN    H2 1026   4.248   5.049   4.036
  103ACTN    H3 1027   4.265   5.110   3.869
  103ACTN    H4 1028   4.445   5.263   4.197
  103ACTN    H5 1029   4.568   5.152   4.148
  103ACTN    H6 1030   4.412   5.089   4.203
  104ACTN    C1 1031   3.861   2.934   6.381
  104ACTN    O1 1032   4.022   2.811   6.510
  104ACTN    C2 1033   3.960   2.917   6.494
  104ACTN    C3 1034   3.955   3.005   6.611
  104ACTN    H1 1035   3.897   3.003   6.306
  104ACTN    H2 1036   3.768   2.971   6.423
  104ACTN    H3 1037   3.844   2.837   6.332
  104ACTN    H4 1038   4.031   3.082   6.594
  104ACTN    H5 1039   3.986   2.955   6.703
  104ACTN    H6 1040   3.859   3.053   6.626
  105ACTN    C1 1041   1.638   3.725   3.246
  105ACTN    O1 1042   1.852   3.630   3.193
  105ACTN    C2 1043   1.728   3.626   3.177
  105ACTN    C3 1044   1.683   3.553   3.059
  105ACTN    H1 1045   1.577   3.678   3.322
  105ACTN    H2 1046   1.572   3.769   3.171
  105ACTN    H3 1047   1.697   3.803   3.294
  105ACTN    H4 1048   1.652   3.455   3.094
  105ACTN    H5 1049   1.764   3.532   2.989
  105ACTN    H6 1050   1.601   3.600   3.006
  106ACTN    C1 1051   3.288   4.988   0.903
  106ACTN    O1 1052   3.294   4.926   1.135
  106ACTN    C2 1053   3.229   4.975   1.040
  106ACTN    C3 1054   3.084   4.977   1.059
  106ACTN    H1 1055   3.307   5.092   0.876
  106ACTN    H2 1056   3.219   4.944   0.831
  106ACTN    H3 1057   3.385   4.935   0.898
  106ACTN    H4 1058   3.059   5.079   1.090
  106ACTN    H5 1059   3.051   4.915   1.142
  106ACTN    H6 1060   3.027   4.952   0.971
  107ACTN    C1 1061   3.711   4.653   2.280
  107ACTN    O1 1062   3.660   4.463   2.142
  107ACTN    C2 1063   3.630   4.533   2.240
  107ACTN    C3 1064   3.492   4.518   2.287
  107ACTN    H1 1065   3.765   4.636   2.373
  107ACTN    H2 1066   3.644   4.737   2.292
  107ACTN    H3 1067   3.785   4.675   2.202
  107ACTN    H4 1068   3.496   4.451   2.372
  107ACTN    H5 1069   3.428   4.467   2.214
  107ACTN    H6 1070   3.444   4.611   2.316
  108ACTN    C1 1071   3.284   3.792   1.937
  108ACTN    O1 1072   3.305   4.027   1.983
  108ACTN    C2 1073   3.301   3.936   1.898
  108ACTN    C3 1074   3.270   3.981   1.762
  108ACTN    H1 1075   3.374   3.734   1.919
  108ACTN    H2 1076   3.203   3.750   1.879
  108ACTN    H3 1077   3.261   3.785   2.044
  108ACTN    H4 1078   3.366   3.986   1.709
  108ACTN    H5 1079   3.232   4.083   1.758
  108ACTN    H6 1080   3.203   3.915   1.708
  109ACTN    C1 1081   5.579   3.426   2.475
  109ACTN    O1 1082   5.612   3.662   2.499
  109ACTN    C2 1083   5.617   3.562   2.425
  109ACTN    C3 1084   5.620   3.591   2.282
  109ACTN    H1 1085   5.666   3.360   2.483
  109ACTN    H2 1086   5.509   3.382   2.405
  109ACTN    H3 1087   5.534   3.433   2.574
  109ACTN    H4 1088   5.724   3.583   2.251
  109ACTN    H5 1089   5.592   3.695   2.259
  109ACTN    H6 1090   5.560   3.524   2.222
  110ACTN    C1 1091   4.997   2.007   0.284
  110ACTN    O1 1092   5.133   2.204   0.301
  110ACTN    C2 1093   5.061   2.120   0.359
  110ACTN    C3 1094   5.079   2.114   0.504
  110ACTN    H1 1095   4.889   2.018   0.278
  110ACTN    H2 1096   5.021   1.914   0.336
  110ACTN    H3 1097   5.036   2.003   0.182
  110ACTN    H4 1098   4.996   2.170   0.548
  110ACTN    H5 1099   5.169   2.165   0.538
  110ACTN    H6 1100   5.078   2.013   0.544
  111ACTN    C1 1101   0.599   3.412   0.634
  111ACTN    O1 1102   0.369   3.461   0.587
  111ACTN    C2 1103   0.480   3.427   0.544
  111ACTN    C3 1104   0.478   3.362   0.412
  111ACTN    H1 1105   0.674   3.489   0.617
  111ACTN    H2 1106   0.644   3.315   0.616
  111ACTN    H3 1107   0.568   3.420   0.739
  111ACTN    H4 1108   0.506   3.439   0.340
  111ACTN    H5 1109   0.377   3.331   0.382
  111ACTN    H6 1110   0.545   3.278   0.403
  112ACTN    C1 1111   4.208   0.794   2.882
  112ACTN    O1 1112   4.022   0.645   2.851
  112ACTN    C2 1113   4.068   0.745   2.909
  112ACTN    C3 1114   3.968   0.834   2.968
  112ACTN    H1 1115   4.273   0.778   2.968
  112ACTN    H2 1116   4.204   0.900   2.860
  112ACTN    H3 1117   4.251   0.739   2.797
  112ACTN    H4 1118   3.965   0.810   3.074
  112ACTN    H5 1119   3.867   0.814   2.932
  112ACTN    H6 1120   3.990   0.939   2.955
  113ACTN    C1 1121   4.417   2.056   5.529
  113ACTN    O1 1122   4.542   1.884   5.419
  113ACTN    C2 1123   4.501   1.932   5.526
  113ACTN    C3 1124   4.503   1.840   5.640
  113ACTN    H1 1125   4.470   2.141   5.572
  113ACTN    H2 1126   4.328   2.036   5.589
  113ACTN    H3 1127   4.387   2.084   5.427
  113ACTN    H4 1128   4.592   1.864   5.697
  113ACTN    H5 1129   4.516   1.735   5.609
  113ACTN    H6 1130   4.416   1.847   5.703
  114ACTN    C1 1131   5.181   2.333   4.662
  114ACTN    O1 1132   5.274   2.513   4.533
  114ACTN    C2 1133   5.216   2.403   4.534
  114ACTN    C3 1134   5.148   2.368   4.409
  114ACTN    H1 1135   5.240   2.244   4.678
  114ACTN    H2 1136   5.076   2.306   4.659
  114ACTN    H3 1137   5.199   2.400   4.747
  114ACTN    H4 1138   5.214   2.300   4.356
  114ACTN    H5 1139   5.136   2.454   4.342
  114ACTN    H6 1140   5.051   2.321   4.423
  115ACTN    C1 1141   7.418   0.854   7.231
  115ACTN    O1 1142   7.532   0.778   7.035
  115ACTN    C2 1143   7.467   0.749   7.136
  115ACTN    C3 1144   7.406   0.615   7.134
  115ACTN    H1 1145   7.470   0.850   7.327
  115ACTN    H2 1146   7.312   0.838   7.248
  115ACTN    H3 1147   7.434   0.954   7.189
  115ACTN    H4 1148   7.471   0.551   7.193
  115ACTN    H5 1149   7.406   0.571   7.034
  115ACTN    H6 1150   7.306   0.613   7.174
  116ACTN    C1 1151   6.643   0.648   5.030
  116ACTN    O1 1152   6.710   0.576   5.249
  116ACTN    C2 1153   6.617   0.605   5.172
  116ACTN    C3 1154   6.486   0.553   5.211
  116ACTN    H1 1155   6.619   0.753   5.015
  116ACTN    H2 1156   6.581   0.588   4.964
  116ACTN    H3 1157   6.749   0.635   5.005
  116ACTN    H4 1158   6.433   0.637   5.258
  116ACTN    H5 1159   6.492   0.477   5.289
  116ACTN    H6 1160   6.427   0.515   5.129
  117ACTN    C1 1161   2.631   3.945   1.765
  117ACTN    O1 1162   2.409   3.875   1.824
  117ACTN    C2 1163   2.498   3.961   1.833
  117ACTN    C3 1164   2.451   4.094   1.874
  117ACTN    H1 1165   2.712   3.930   1.837
  117ACTN    H2 1166   2.652   4.035   1.708
  117ACTN    H3 1167   2.629   3.858   1.699
  117ACTN    H4 1168   2.473   4.102   1.980
  117ACTN    H5 1169   2.342   4.104   1.867
  117ACTN    H6 1170   2.497   4.176   1.821
  118ACTN    C1 1171   3.803   0.258   7.511
  118ACTN    O1 1172   3.698   0.306   7.300
  118ACTN    C2 1173   3.724   0.222   7.388
  118ACTN    C3 1174   3.641   0.102   7.385
  118ACTN    H1 1175   3.902   0.213   7.511
  118ACTN    H2 1176   3.747   0.223   7.598
  118ACTN    H3 1177   3.816   0.367   7.516
  118ACTN    H4 1178   3.699   0.025   7.335
  118ACTN    H5 1179   3.552   0.114   7.323
  118ACTN    H6 1180   3.611   0.067   7.483
  119ACTN    C1 1181   7.843   3.044   3.432
  119ACTN    O1 1182   7.992   2.871   3.360
  119ACTN    C2 1183   7.878   2.921   3.354
  119ACTN    C3 1184   7.799   2.881   3.238
  119ACTN    H1 1185   7.772   3.023   3.513
  119ACTN    H2 1186   7.798   3.116   3.364
  119ACTN    H3 1187   7.933   3.087   3.478
  119ACTN    H4 1188   7.731   2.804   3.273
  119ACTN    H5 1189   7.859   2.832   3.161
  119ACTN    H6 1190   7.742   2.962   3.193
  120ACTN    C1 1191   1.847   2.597   5.787
  120ACTN    O1 1192   1.733   2.800   5.728
  120ACTN    C2 1193   1.797   2.701   5.690
  120ACTN    C3 1194   1.783   2.668   5.548
  120ACTN    H1 1195   1.955   2.599   5.797
  120ACTN    H2 1196   1.816   2.500   5.752
  120ACTN    H3 1197   1.805   2.616   5.887
  120ACTN    H4 1198   1.873   2.708   5.499
  120ACTN    H5 1199   1.700   2.721   5.501
  120ACTN    H6 1200   1.775   2.563   5.527
  121ACTN    C1 1201   1.551   5.239   4.166
  121ACTN    O1 1202   1.427   5.043   4.107
  121ACTN    C2 1203   1.504   5.134   4.071
  121ACTN    C3 1204   1.577   5.107   3.946
  121ACTN    H1 1205   1.508   5.337   4.143
  121ACTN    H2 1206   1.660   5.246   4.159
  121ACTN    H3 1207   1.522   5.214   4.268
  121ACTN    H4 1208   1.523   5.160   3.868
  121ACTN    H5 1209   1.572   5.002   3.917
  121ACTN    H6 1210   1.680   5.139   3.948
  122ACTN    C1 1211   1.372   4.757   4.614
  122ACTN    O1 1212   1.263   4.970   4.602
  122ACTN    C2 1213   1.337   4.893   4.666
  122ACTN    C3 1214   1.419   4.957   4.769
  122ACTN    H1 1215   1.325   4.677   4.672
  122ACTN    H2 1216   1.479   4.745   4.618
  122ACTN    H3 1217   1.337   4.746   4.510
  122ACTN    H4 1218   1.368   4.940   4.864
  122ACTN    H5 1219   1.422   5.066   4.759
  122ACTN    H6 1220   1.520   4.919   4.775
  123ACTN    C1 1221   0.187   5.784   0.577
  123ACTN    O1 1222   0.283   6.003   0.552
  123ACTN    C2 1223   0.249   5.896   0.498
  123ACTN    C3 1224   0.234   5.902   0.353
  123ACTN    H1 1225   0.253   5.698   0.586
  123ACTN    H2 1226   0.096   5.753   0.526
  123ACTN    H3 1227   0.163   5.818   0.678
  123ACTN    H4 1228   0.326   5.860   0.311
  123ACTN    H5 1229   0.230   6.005   0.315
  123ACTN    H6 1230   0.149   5.847   0.315
  124ACTN    C1 1231   1.696   6.236   1.024
  124ACTN    O1 1232   1.793   6.446   1.089
  124ACTN    C2 1233   1.730   6.345   1.123
  124ACTN    C3 1234   1.729   6.317   1.267
  124ACTN    H1 1235   1.590   6.232   1.003
  124ACTN    H2 1236   1.728   6.141   1.066
  124ACTN    H3 1237   1.748   6.255   0.929
  124ACTN    H4 1238   1.634   6.353   1.304
  124ACTN    H5 1239   1.804   6.376   1.321
  124ACTN    H6 1240   1.741   6.213   1.292
  125ACTN    C1 1241   6.333   0.623   3.418
  125ACTN    O1 1242   6.559   0.665   3.488
  125ACTN    C2 1243   6.438   0.672   3.515
  125ACTN    C3 1244   6.407   0.686   3.657
  125ACTN    H1 1245   6.275   0.706   3.377
  125ACTN    H2 1246   6.267   0.556   3.471
  125ACTN    H3 1247   6.381   0.571   3.335
  125ACTN    H4 1248   6.386   0.792   3.673
  125ACTN    H5 1249   6.493   0.666   3.721
  125ACTN    H6 1250   6.323   0.627   3.691
  126ACTN    C1 1251   1.763   4.396   3.602
  126ACTN    O1 1252   1.895   4.596   3.617
  126ACTN    C2 1253   1.878   4.485   3.564
  126ACTN    C3 1254   1.948   4.466   3.436
  126ACTN    H1 1255   1.796   4.307   3.656
  126ACTN    H2 1256   1.712   4.365   3.511
  126ACTN    H3 1257   1.694   4.450   3.667
  126ACTN    H4 1258   2.038   4.409   3.459
  126ACTN    H5 1259   1.985   4.560   3.394
  126ACTN    H6 1260   1.890   4.414   3.362
  127ACTN    C1 1261   4.254   5.710   7.295
  127ACTN    O1 1262   4.254   5.471   7.283
  127ACTN    C2 1263   4.259   5.579   7.222
  127ACTN    C3 1264   4.313   5.571   7.086
  127ACTN    H1 1265   4.161   5.763   7.276
  127ACTN    H2 1266   4.337   5.771   7.261
  127ACTN    H3 1267   4.261   5.694   7.403
  127ACTN    H4 1268   4.227   5.571   7.019
  127ACTN    H5 1269   4.364   5.476   7.066
  127ACTN    H6 1270   4.379   5.652   7.060
  128ACTN    C1 1271   3.199   2.930   1.888
  128ACTN    O1 1272   3.198   2.767   1.712
  128ACTN    C2 1273   3.154   2.803   1.823
  128ACTN    C3 1274   3.027   2.740   1.862
  128ACTN    H1 1275   3.259   2.911   1.977
  128ACTN    H2 1276   3.111   2.988   1.916
  128ACTN    H3 1277   3.261   2.988   1.819
  128ACTN    H4 1278   3.053   2.661   1.931
  128ACTN    H5 1279   2.978   2.689   1.778
  128ACTN    H6 1280   2.957   2.808   1.908
  129ACTN    C1 1281   2.777   0.863   4.559
  129ACTN    O1 1282   2.995   0.763   4.569
  129ACTN    C2 1283   2.912   0.840   4.620
  129ACTN    C3 1284   2.938   0.873   4.760
  129ACTN    H1 1285   2.767   0.962   4.517
  129ACTN    H2 1286   2.702   0.849   4.637
  129ACTN    H3 1287   2.760   0.791   4.478
  129ACTN    H4 1288   2.986   0.971   4.761
  129ACTN    H5 1289   3.010   0.807   4.807
  129ACTN    H6 1290   2.848   0.877   4.821
  130ACTN    C1 1291   0.742   6.138   0.999
  130ACTN    O1 1292   0.905   6.087   0.831
  130ACTN    C2 1293   0.785   6.101   0.860
  130ACTN    C3 1294   0.696   6.122   0.746
  130ACTN    H1 1295   0.691   6.055   1.049
  130ACTN    H2 1296   0.674   6.222   0.992
  130ACTN    H3 1297   0.829   6.164   1.060
  130ACTN    H4 1298   0.649   6.025   0.725
  130ACTN    H5 1299   0.750   6.147   0.654
  130ACTN    H6 1300   0.619   6.196   0.763
  131ACTN    C1 1301   6.732   5.114   1.406
  131ACTN    O1 1302   6.959   5.097   1.330
  131ACTN    C2 1303   6.879   5.090   1.425
  131ACTN    C3 1304   6.928   5.018   1.543
  131ACTN    H1 1305   6.699   5.207   1.452
  131ACTN    H2 1306   6.678   5.031   1.450
  131ACTN    H3 1307   6.709   5.121   1.299
  131ACTN    H4 1308   6.961   5.094   1.614
  131ACTN    H5 1309   7.018   4.959   1.522
  131ACTN    H6 1310   6.854   4.954   1.589
  132ACTN    C1 1311   7.410   3.940   6.414
  132ACTN    O1 1312   7.523   3.763   6.299
  132ACTN    C2 1313   7.418   3.826   6.317
  132ACTN    C3 1314   7.319   3.812   6.210
  132ACTN    H1 1315   7.350   3.916   6.501
  132ACTN    H2 1316   7.367   4.026   6.363
  132ACTN    H3 1317   7.511   3.966   6.450
  132ACTN    H4 1318   7.246   3.739   6.245
  132ACTN    H5 1319   7.360   3.768   6.119
  132ACTN    H6 1320   7.268   3.904   6.185
  133ACTN    C1 1321   2.259   4.437   5.775
  133ACTN    O1 1322   2.345   4.220   5.721
  133ACTN    C2 1323   2.330   4.309   5.807
  133ACTN    C3 1324   2.345   4.265   5.946
  133ACTN    H1 1325   2.327   4.522   5.774
  133ACTN    H2 1326   2.183   4.454   5.851
  133ACTN    H3 1327   2.213   4.431   5.676
  133ACTN    H4 1328   2.446   4.293   5.976
  133ACTN    H5 1329   2.344   4.156   5.956
  133ACTN    H6 1330   2.273   4.307   6.014
  134ACTN    C1 1331   4.027   6.320   3.718
  134ACTN    O1 1332   3.933   6.541   3.707
  134ACTN    C2 1333   3.960   6.441   3.776
  134ACTN    C3 1334   3.963   6.466   3.921
  134ACTN    H1 1335   3.960   6.234   3.714
  134ACTN    H2 1336   4.113   6.295   3.780
  134ACTN    H3 1337   4.060   6.341   3.615
  134ACTN    H4 1338   3.868   6.430   3.960
  134ACTN    H5 1339   3.965   6.572   3.945
  134ACTN    H6 1340   4.044   6.416   3.972
  135ACTN    C1 1341   4.693   1.129   3.020
  135ACTN    O1 1342   4.578   1.339   3.043
  135ACTN    C2 1343   4.667   1.262   3.085
  135ACTN    C3 1344   4.770   1.326   3.167
  135ACTN    H1 1345   4.664   1.046   3.085
  135ACTN    H2 1346   4.799   1.122   2.998
  135ACTN    H3 1347   4.634   1.120   2.928
  135ACTN    H4 1348   4.744   1.304   3.271
  135ACTN    H5 1349   4.768   1.435   3.161
  135ACTN    H6 1350   4.870   1.291   3.147
  136ACTN    C1 1351   6.386   4.946   0.610
  136ACTN    O1 1352   6.200   5.091   0.655
  136ACTN    C2 1353   6.247   4.999   0.586
  136ACTN    C3 1354   6.149   4.920   0.511
  136ACTN    H1 1355   6.454   4.973   0.530
  136ACTN    H2 1356   6.380   4.838   0.618
  136ACTN    H3 1357   6.426   4.988   0.703
  136ACTN    H4 1358   6.150   4.958   0.409
  136ACTN    H5 1359   6.047   4.936   0.546
  136ACTN    H6 1360   6.170   4.814   0.510
  137ACTN    C1 1361   4.132   5.084   6.097
  137ACTN    O1 1362   4.021   5.185   6.284
  137ACTN    C2 1363   4.048   5.081   6.221
  137ACTN    C3 1364   4.030   4.956   6.296
  137ACTN    H1 1365   4.074   5.062   6.008
  137ACTN    H2 1366   4.211   5.011   6.107
  137ACTN    H3 1367   4.175   5.184   6.083
  137ACTN    H4 1368   3.934   4.915   6.266
  137ACTN    H5 1369   4.020   4.973   6.404
  137ACTN    H6 1370   4.108   4.883   6.279
  138ACTN    C1 1371   3.541   2.672   0.163
  138ACTN    O1 1372   3.680   2.477   0.148
  138ACTN    C2 1373   3.604   2.547   0.217
  138ACTN    C3 1374   3.547   2.480   0.335
  138ACTN    H1 1375   3.582   2.762   0.209
  138ACTN    H2 1376   3.434   2.668   0.182
  138ACTN    H3 1377   3.560   2.680   0.055
  138ACTN    H4 1378   3.606   2.512   0.420
  138ACTN    H5 1379   3.559   2.372   0.331
  138ACTN    H6 1380   3.443   2.504   0.352
  139ACTN    C1 1381   4.046   2.943   5.270
  139ACTN    O1 1382   4.132   2.741   5.173
  139ACTN    C2 1383   4.156   2.848   5.232
  139ACTN    C3 1384   4.287   2.855   5.297
  139ACTN    H1 1385   4.049   3.034   5.211
  139ACTN    H2 1386   4.058   2.968   5.375
  139ACTN    H3 1387   3.948   2.895   5.253
  139ACTN    H4 1388   4.352   2.911   5.230
  139ACTN    H5 1389   4.335   2.757   5.307
  139ACTN    H6 1390   4.285   2.903   5.394
  140ACTN    C1 1391   1.812   4.796   3.382
  140ACTN    O1 1392   1.716   4.835   3.166
  140ACTN    C2 1393   1.712   4.857   3.288
  140ACTN    C3 1394   1.635   4.975   3.328
  140ACTN    H1 1395   1.768   4.720   3.446
  140ACTN    H2 1396   1.854   4.875   3.444
  140ACTN    H3 1397   1.893   4.747   3.325
  140ACTN    H4 1398   1.538   4.937   3.361
  140ACTN    H5 1399   1.612   5.040   3.244
  140ACTN    H6 1400   1.680   5.033   3.407
  141ACTN    C1 1401   7.462   2.302   1.560
  141ACTN    O1 1402   7.551   2.413   1.753
  141ACTN    C2 1403   7.480   2.322   1.708
  141ACTN    C3 1404   7.453   2.212   1.801
  141ACTN    H1 1405   7.361   2.326   1.528
  141ACTN    H2 1406   7.484   2.198   1.537
  141ACTN    H3 1407   7.531   2.367   1.505
  141ACTN    H4 1408   7.353   2.230   1.841
  141ACTN    H5 1409   7.518   2.215   1.889
  141ACTN    H6 1410   7.457   2.114   1.757
  142ACTN    C1 1411   6.085   3.675   0.574
  142ACTN    O1 1412   6.285   3.804   0.537
  142ACTN    C2 1413   6.192   3.773   0.614
  142ACTN    C3 1414   6.216   3.803   0.755
  142ACTN    H1 1415   5.989   3.723   0.559
  142ACTN    H2 1416   6.077   3.600   0.652
  142ACTN    H3 1417   6.113   3.627   0.479
  142ACTN    H4 1418   6.163   3.897   0.776
  142ACTN    H5 1419   6.321   3.826   0.776
  142ACTN    H6 1420   6.181   3.727   0.823
  143ACTN    C1 1421   0.694   2.775   2.588
  143ACTN    O1 1422   0.679   2.902   2.385
  143ACTN    C2 1423   0.695   2.902   2.509
  143ACTN    C3 1424   0.756   3.024   2.563
  143ACTN    H1 1425   0.605   2.767   2.651
  143ACTN    H2 1426   0.782   2.773   2.651
  143ACTN    H3 1427   0.694   2.689   2.521
  143ACTN    H4 1428   0.673   3.084   2.602
  143ACTN    H5 1429   0.801   3.087   2.486
  143ACTN    H6 1430   0.828   3.006   2.641
  144ACTN    C1 1431   0.625   0.500   3.467
  144ACTN    O1 1432   0.544   0.707   3.375
  144ACTN    C2 1433   0.637   0.625   3.383
  144ACTN    C3 1434   0.736   0.633   3.276
  144ACTN    H1 1435   0.689   0.504   3.554
  144ACTN    H2 1436   0.652   0.415   3.405
  144ACTN    H3 1437   0.522   0.489   3.502
  144ACTN    H4 1438   0.821   0.688   3.317
  144ACTN    H5 1439   0.702   0.694   3.191
  144ACTN    H6 1440   0.770   0.537   3.239
  145ACTN    C1 1441   6.561   7.611   3.147
  145ACTN    O1 1442   6.339   7.618   3.239
  145ACTN    C2 1443   6.457   7.583   3.253
  145ACTN    C3 1444   6.498   7.555   3.391
  145ACTN    H1 1445   6.594   7.520   3.098
  145ACTN    H2 1446   6.646   7.659   3.194
  145ACTN    H3 1447   6.518   7.677   3.070
  145ACTN    H4 1448   6.495   7.447   3.402
  145ACTN    H5 1449   6.425   7.592   3.464
  145ACTN    H6 1450   6.596   7.592   3.417
  146ACTN    C1 1451   5.526   1.874   6.209
  146ACTN    O1 1452   5.530   1.755   6.001
  146ACTN    C2 1453   5.474   1.774   6.110
  146ACTN    C3 1454   5.335   1.727   6.118
  146ACTN    H1 1455   5.568   1.826   6.298
  146ACTN    H2 1456   5.444   1.939   6.240
  146ACTN    H3 1457   5.606   1.934   6.164
  146ACTN    H4 1458   5.338   1.631   6.169
  146ACTN    H5 1459   5.293   1.705   6.019
  146ACTN    H6 1460   5.269   1.794   6.171
  147ACTN    C1 1461   7.378   1.634   2.859
  147ACTN    O1 1462   7.333   1.647   2.623
  147ACTN    C2 1463   7.326   1.702   2.735
  147ACTN    C3 1464   7.307   1.847   2.731
  147ACTN    H1 1465   7.297   1.605   2.926
  147ACTN    H2 1466   7.444   1.703   2.910
  147ACTN    H3 1467   7.433   1.543   2.832
  147ACTN    H4 1468   7.201   1.864   2.749
  147ACTN    H5 1469   7.325   1.889   2.632
  147ACTN    H6 1470   7.365   1.901   2.805
  148ACTN    C1 1471   3.912   0.940   6.308
  148ACTN    O1 1472   3.997   0.735   6.400
  148ACTN    C2 1473   4.019   0.854   6.368
  148ACTN    C3 1474   4.138   0.914   6.430
  148ACTN    H1 1475   3.931   0.963   6.203
  148ACTN    H2 1476   3.908   1.033   6.364
  148ACTN    H3 1477   3.815   0.889   6.314
  148ACTN    H4 1478   4.217   0.909   6.355
  148ACTN    H5 1479   4.176   0.854   6.514
  148ACTN    H6 1480   4.124   1.016   6.462
  149ACTN    C1 1481   7.094   4.308   3.522
  149ACTN    O1 1482   6.979   4.515   3.565
  149ACTN    C2 1483   7.016   4.404   3.607
  149ACTN    C3 1484   7.016   4.390   3.753
  149ACTN    H1 1485   7.035   4.221   3.494
  149ACTN    H2 1486   7.181   4.277   3.577
  149ACTN    H3 1487   7.124   4.358   3.429
  149ACTN    H4 1488   6.925   4.338   3.779
  149ACTN    H5 1489   7.008   4.487   3.804
  149ACTN    H6 1490   7.102   4.336   3.792
  150ACTN    C1 1491   3.320   7.149   2.172
  150ACTN    O1 1492   3.456   6.951   2.174
  150ACTN    C2 1493   3.402   7.042   2.107
  150ACTN    C3 1494   3.457   7.061   1.972
  150ACTN    H1 1495   3.214   7.140   2.149
  150ACTN    H2 1496   3.356   7.246   2.137
  150ACTN    H3 1497   3.331   7.143   2.281
  150ACTN    H4 1498   3.389   7.010   1.904
  150ACTN    H5 1499   3.553   7.010   1.959
  150ACTN    H6 1500   3.467   7.165   1.943
  151ACTN    C1 1501   3.435   2.974   0.123
  151ACTN    O1 1502   3.307   3.152   0.026
  151ACTN    C2 1503   3.308   3.047   0.092
  151ACTN    C3 1504   3.188   3.023   0.173
  151ACTN    H1 1505   3.442   2.879   0.069
  151ACTN    H2 1506   3.439   2.955   0.229
  151ACTN    H3 1507   3.521   3.035   0.093
  151ACTN    H4 1508   3.126   2.953   0.116
  151ACTN    H5 1509   3.125   3.113   0.183
  151ACTN    H6 1510   3.207   2.983   0.271
  152ACTN    C1 1511   4.766   5.785   6.667
  152ACTN    O1 1512   4.898   5.657   6.821
  152ACTN    C2 1513   4.887   5.707   6.707
  152ACTN    C3 1514   5.013   5.721   6.633
  152ACTN    H1 1515   4.706   5.732   6.594
  152ACTN    H2 1516   4.798   5.880   6.625
  152ACTN    H3 1517   4.702   5.803   6.755
  152ACTN    H4 1518   5.018   5.637   6.564
  152ACTN    H5 1519   5.101   5.709   6.697
  152ACTN    H6 1520   5.021   5.814   6.578
  153ACTN    C1 1521   7.351   2.072   5.312
  153ACTN    O1 1522   7.220   2.014   5.505
  153ACTN    C2 1523   7.333   2.034   5.457
  153ACTN    C3 1524   7.439   2.061   5.554
  153ACTN    H1 1525   7.397   1.992   5.255
  153ACTN    H2 1526   7.413   2.160   5.308
  153ACTN    H3 1527   7.253   2.093   5.267
  153ACTN    H4 1528   7.493   1.967   5.567
  153ACTN    H5 1529   7.400   2.084   5.654
  153ACTN    H6 1530   7.508   2.139   5.524
  154ACTN    C1 1531   7.377   4.808   6.203
  154ACTN    O1 1532   7.213   4.938   6.085
  154ACTN    C2 1533   7.286   4.838   6.087
  154ACTN    C3 1534   7.246   4.731   5.994
  154ACTN    H1 1535   7.482   4.819   6.176
  154ACTN    H2 1536   7.359   4.706   6.235
  154ACTN    H3 1537   7.356   4.877   6.285
  154ACTN    H4 1538   7.311   4.741   5.907
  154ACTN    H5 1539   7.145   4.745   5.955
  154ACTN    H6 1540   7.255   4.631   6.035
  155ACTN    C1 1541   7.315   6.143   6.037
  155ACTN    O1 1542   7.077   6.155   6.012
  155ACTN    C2 1543   7.174   6.144   6.088
  155ACTN    C3 1544   7.146   6.176   6.229
  155ACTN    H1 1545   7.362   6.045   6.048
  155ACTN    H2 1546   7.373   6.216   6.093
  155ACTN    H3 1547   7.317   6.168   5.930
  155ACTN    H4 1548   7.133   6.080   6.279
  155ACTN    H5 1549   7.051   6.227   6.242
  155ACTN    H6 1550   7.225   6.232   6.277
  156ACTN    C1 1551   7.230   7.164   3.167
  156ACTN    O1 1552   7.069   7.274   3.027
  156ACTN    C2 1553   7.134   7.274   3.133
  156ACTN    C3 1554   7.143   7.404   3.200
  156ACTN    H1 1555   7.194   7.102   3.249
  156ACTN    H2 1556   7.325   7.208   3.195
  156ACTN    H3 1557   7.244   7.098   3.080
  156ACTN    H4 1558   7.068   7.403   3.279
  156ACTN    H5 1559   7.114   7.487   3.135
  156ACTN    H6 1560   7.240   7.425   3.242
  157ACTN    C1 1561   6.569   0.566   6.815
  157ACTN    O1 1562   6.424   0.650   6.986
  157ACTN    C2 1563   6.489   0.554   6.941
  157ACTN    C3 1564   6.517   0.447   7.038
  157ACTN    H1 1565   6.526   0.508   6.733
  157ACTN    H2 1566   6.670   0.530   6.835
  157ACTN    H3 1567   6.573   0.671   6.782
  157ACTN    H4 1568   6.444   0.369   7.018
  157ACTN    H5 1569   6.498   0.478   7.141
  157ACTN    H6 1570   6.616   0.407   7.030
  158ACTN    C1 1571   6.032   3.443   1.360
  158ACTN    O1 1572   6.107   3.582   1.179
  158ACTN    C2 1573   6.048   3.574   1.288
  158ACTN    C3 1574   6.035   3.700   1.361
  158ACTN    H1 1575   5.929   3.409   1.360
  158ACTN    H2 1576   6.067   3.455   1.462
  158ACTN    H3 1577   6.092   3.365   1.309
  158ACTN    H4 1578   5.933   3.736   1.342
  158ACTN    H5 1579   6.099   3.779   1.321
  158ACTN    H6 1580   6.051   3.692   1.467
  159ACTN    C1 1581   2.870   3.036   5.973
  159ACTN    O1 1582   2.795   2.882   6.141
  159ACTN    C2 1583   2.834   2.899   6.024
  159ACTN    C3 1584   2.883   2.779   5.956
  159ACTN    H1 1585   2.799   3.072   5.899
  159ACTN    H2 1586   2.968   3.030   5.927
  159ACTN    H3 1587   2.872   3.108   6.056
  159ACTN    H4 1588   2.801   2.745   5.893
  159ACTN    H5 1589   2.900   2.696   6.025
  159ACTN    H6 1590   2.971   2.795   5.896
  160ACTN    C1 1591   0.408   3.089   1.798
  160ACTN    O1 1592   0.354   3.320   1.758
  160ACTN    C2 1593   0.405   3.215   1.715
  160ACTN    C3 1594   0.423   3.208   1.570
  160ACTN    H1 1595   0.508   3.064   1.831
  160ACTN    H2 1596   0.369   3.008   1.738
  160ACTN    H3 1597   0.346   3.102   1.888
  160ACTN    H4 1598   0.527   3.233   1.551
  160ACTN    H5 1599   0.366   3.286   1.518
  160ACTN    H6 1600   0.400   3.112   1.527
  161ACTN    C1 1601   5.529   7.213   4.771
  161ACTN    O1 1602   5.345   7.062   4.739
  161ACTN    C2 1603   5.422   7.147   4.689
  161ACTN    C3 1604   5.430   7.145   4.543
  161ACTN    H1 1605   5.508   7.318   4.788
  161ACTN    H2 1606   5.623   7.203   4.718
  161ACTN    H3 1607   5.537   7.164   4.869
  161ACTN    H4 1608   5.366   7.226   4.508
  161ACTN    H5 1609   5.386   7.055   4.499
  161ACTN    H6 1610   5.530   7.159   4.504
  162ACTN    C1 1611   7.902   5.192   0.540
  162ACTN    O1 1612   7.669   5.174   0.599
  162ACTN    C2 1613   7.788   5.162   0.634
  162ACTN    C3 1614   7.810   5.162   0.779
  162ACTN    H1 1615   7.956   5.102   0.512
  162ACTN    H2 1616   7.970   5.261   0.590
  162ACTN    H3 1617   7.863   5.238   0.448
  162ACTN    H4 1618   7.822   5.057   0.808
  162ACTN    H5 1619   7.722   5.195   0.835
  162ACTN    H6 1620   7.896   5.219   0.811
  163ACTN    C1 1621   3.099   1.581   2.605
  163ACTN    O1 1622   3.121   1.781   2.475
  163ACTN    C2 1623   3.142   1.659   2.484
  163ACTN    C3 1624   3.169   1.591   2.357
  163ACTN    H1 1625   3.184   1.548   2.664
  163ACTN    H2 1626   3.043   1.495   2.572
  163ACTN    H3 1627   3.037   1.644   2.670
  163ACTN    H4 1628   3.277   1.579   2.352
  163ACTN    H5 1629   3.144   1.652   2.270
  163ACTN    H6 1630   3.122   1.494   2.348
  164ACTN    C1 1631   5.357   2.960   2.609
  164ACTN    O1 1632   5.225   3.020   2.801
  164ACTN    C2 1633   5.249   3.037   2.680
  164ACTN    C3 1634   5.141   3.101   2.604
  164ACTN    H1 1635   5.440   3.024   2.581
  164ACTN    H2 1636   5.314   2.916   2.520
  164ACTN    H3 1637   5.396   2.881   2.675
  164ACTN    H4 1638   5.168   3.205   2.593
  164ACTN    H5 1639   5.046   3.102   2.658
  164ACTN    H6 1640   5.124   3.058   2.506
  165ACTN    C1 1641   7.395   4.330   3.271
  165ACTN    O1 1642   7.215   4.180   3.221
  165ACTN    C2 1643   7.336   4.207   3.208
  165ACTN    C3 1644   7.422   4.095   3.169
  165ACTN    H1 1645   7.424   4.404   3.197
  165ACTN    H2 1646   7.483   4.301   3.328
  165ACTN    H3 1647   7.322   4.377   3.338
  165ACTN    H4 1648   7.438   4.106   3.062
  165ACTN    H5 1649   7.372   3.998   3.179
  165ACTN    H6 1650   7.516   4.092   3.220
  166ACTN    C1 1651   5.094   6.252   7.416
  166ACTN    O1 1652   5.255   6.429   7.407
  166ACTN    C2 1653   5.206   6.328   7.352
  166ACTN    C3 1654   5.232   6.317   7.209
  166ACTN    H1 1655   5.126   6.154   7.450
  166ACTN    H2 1656   5.015   6.240   7.343
  166ACTN    H3 1657   5.056   6.306   7.503
  166ACTN    H4 1658   5.314   6.246   7.199
  166ACTN    H5 1659   5.271   6.409   7.165
  166ACTN    H6 1660   5.148   6.282   7.151
  167ACTN    C1 1661   2.127   3.376   3.701
  167ACTN    O1 1662   1.945   3.258   3.805
  167ACTN    C2 1663   2.047   3.328   3.819
  167ACTN    C3 1664   2.059   3.395   3.949
  167ACTN    H1 1665   2.224   3.328   3.695
  167ACTN    H2 1666   2.141   3.483   3.711
  167ACTN    H3 1667   2.073   3.354   3.608
  167ACTN    H4 1668   2.127   3.335   4.008
  167ACTN    H5 1669   1.965   3.394   4.006
  167ACTN    H6 1670   2.095   3.497   3.944
  168ACTN    C1 1671   5.778   2.026   6.838
  168ACTN    O1 1672   5.629   1.919   6.682
  168ACTN    C2 1673   5.724   1.997   6.700
  168ACTN    C3 1674   5.806   2.024   6.582
  168ACTN    H1 1675   5.756   2.127   6.870
  168ACTN    H2 1676   5.885   2.012   6.836
  168ACTN    H3 1677   5.732   1.957   6.911
  168ACTN    H4 1678   5.772   2.121   6.543
  168ACTN    H5 1679   5.787   1.954   6.500
  168ACTN    H6 1680   5.912   2.028   6.601
  169ACTN    C1 1681   0.386   3.247   3.128
  169ACTN    O1 1682   0.178   3.366   3.113
  169ACTN    C2 1683   0.257   3.300   3.183
  169ACTN    C3 1684   0.237   3.314   3.328
  169ACTN    H1 1685   0.385   3.138   3.119
  169ACTN    H2 1686   0.466   3.276   3.195
  169ACTN    H3 1687   0.404   3.288   3.029
  169ACTN    H4 1688   0.181   3.227   3.360
  169ACTN    H5 1689   0.173   3.399   3.354
  169ACTN    H6 1690   0.329   3.321   3.384
  170ACTN    C1 1691   6.748   5.034   7.475
  170ACTN    O1 1692   6.962   4.942   7.416
  170ACTN    C2 1693   6.850   4.980   7.378
  170ACTN    C3 1694   6.840   5.011   7.235
  170ACTN    H1 1695   6.664   4.966   7.486
  170ACTN    H2 1696   6.712   5.129   7.437
  170ACTN    H3 1697   6.793   5.047   7.574
  170ACTN    H4 1698   6.794   4.924   7.188
  170ACTN    H5 1699   6.938   5.019   7.187
  170ACTN    H6 1700   6.782   5.100   7.213
  171ACTN    C1 1701   2.948   7.705   6.643
  171ACTN    O1 1702   2.836   7.915   6.614
  171ACTN    C2 1703   2.884   7.832   6.693
  171ACTN    C3 1704   2.914   7.883   6.827
  171ACTN    H1 1705   2.889   7.617   6.668
  171ACTN    H2 1706   3.046   7.696   6.689
  171ACTN    H3 1707   2.958   7.708   6.534
  171ACTN    H4 1708   2.831   7.851   6.890
  171ACTN    H5 1709   2.912   7.992   6.832
  171ACTN    H6 1710   3.007   7.847   6.868
  172ACTN    C1 1711   1.664   4.340   3.166
  172ACTN    O1 1712   1.626   4.531   3.306
  172ACTN    C2 1713   1.592   4.466   3.206
  172ACTN    C3 1714   1.457   4.493   3.157
  172ACTN    H1 1715   1.721   4.353   3.074
  172ACTN    H2 1716   1.590   4.262   3.151
  172ACTN    H3 1717   1.734   4.311   3.245
  172ACTN    H4 1718   1.468   4.561   3.072
  172ACTN    H5 1719   1.396   4.548   3.229
  172ACTN    H6 1720   1.403   4.404   3.125
  173ACTN    C1 1721   7.222   3.692   1.601
  173ACTN    O1 1722   7.007   3.587   1.626
  173ACTN    C2 1723   7.105   3.610   1.553
  173ACTN    C3 1724   7.120   3.520   1.439
  173ACTN    H1 1725   7.227   3.788   1.551
  173ACTN    H2 1726   7.313   3.636   1.582
  173ACTN    H3 1727   7.212   3.711   1.709
  173ACTN    H4 1728   7.080   3.573   1.352
  173ACTN    H5 1729   7.057   3.430   1.447
  173ACTN    H6 1730   7.221   3.489   1.419
  174ACTN    C1 1731   1.838   0.582   3.189
  174ACTN    O1 1732   1.681   0.758   3.231
  174ACTN    C2 1733   1.720   0.667   3.155
  174ACTN    C3 1734   1.621   0.622   3.056
  174ACTN    H1 1735   1.923   0.602   3.124
  174ACTN    H2 1736   1.809   0.478   3.178
  174ACTN    H3 1737   1.870   0.601   3.292
  174ACTN    H4 1738   1.647   0.672   2.963
  174ACTN    H5 1739   1.520   0.657   3.079
  174ACTN    H6 1740   1.619   0.515   3.041
  175ACTN    C1 1741   6.305   2.825   6.086
  175ACTN    O1 1742   6.088   2.723   6.073
  175ACTN    C2 1743   6.182   2.778   6.013
  175ACTN    C3 1744   6.185   2.757   5.868
  175ACTN    H1 1745   6.311   2.934   6.089
  175ACTN    H2 1746   6.392   2.786   6.034
  175ACTN    H3 1747   6.303   2.789   6.189
  175ACTN    H4 1748   6.142   2.846   5.823
  175ACTN    H5 1749   6.119   2.675   5.837
  175ACTN    H6 1750   6.284   2.740   5.828
  176ACTN    C1 1751   4.221   2.439   3.676
  176ACTN    O1 1752   4.383   2.602   3.748
  176ACTN    C2 1753   4.293   2.521   3.780
  176ACTN    C3 1754   4.294   2.480   3.920
  176ACTN    H1 1755   4.118   2.470   3.665
  176ACTN    H2 1756   4.225   2.335   3.707
  176ACTN    H3 1757   4.270   2.451   3.579
  176ACTN    H4 1758   4.217   2.539   3.970
  176ACTN    H5 1759   4.386   2.507   3.972
  176ACTN    H6 1760   4.274   2.374   3.935
  177ACTN    C1 1761   6.117   6.047   3.492
  177ACTN    O1 1762   5.952   6.201   3.412
  177ACTN    C2 1763   5.988   6.123   3.501
  177ACTN    C3 1764   5.921   6.141   3.630
  177ACTN    H1 1765   6.102   5.941   3.477
  177ACTN    H2 1766   6.172   6.062   3.585
  177ACTN    H3 1767   6.177   6.084   3.408
  177ACTN    H4 1768   5.843   6.065   3.635
  177ACTN    H5 1769   5.867   6.236   3.636
  177ACTN    H6 1770   5.986   6.131   3.716
  178ACTN    C1 1771   0.520   3.201   7.818
  178ACTN    O1 1772   0.409   3.047   7.672
  178ACTN    C2 1773   0.473   3.065   7.777
  178ACTN    C3 1774   0.461   2.957   7.876
  178ACTN    H1 1775   0.629   3.210   7.811
  178ACTN    H2 1776   0.489   3.219   7.920
  178ACTN    H3 1777   0.477   3.277   7.752
  178ACTN    H4 1778   0.551   2.897   7.865
  178ACTN    H5 1779   0.379   2.888   7.853
  178ACTN    H6 1780   0.452   2.991   7.977
  179ACTN    C1 1781   5.479   2.728   0.170
  179ACTN    O1 1782   5.542   2.954   0.223
  179ACTN    C2 1783   5.482   2.851   0.258
  179ACTN    C3 1784   5.453   2.840   0.401
  179ACTN    H1 1785   5.379   2.710   0.129
  179ACTN    H2 1786   5.509   2.643   0.230
  179ACTN    H3 1787   5.547   2.741   0.086
  179ACTN    H4 1788   5.349   2.870   0.414
  179ACTN    H5 1789   5.510   2.913   0.460
  179ACTN    H6 1790   5.468   2.741   0.442
  180ACTN    C1 1791   1.638   4.675   1.438
  180ACTN    O1 1792   1.526   4.881   1.385
  180ACTN    C2 1793   1.523   4.773   1.446
  180ACTN    C3 1794   1.427   4.766   1.556
  180ACTN    H1 1795   1.611   4.586   1.383
  180ACTN    H2 1796   1.666   4.648   1.539
  180ACTN    H3 1797   1.722   4.722   1.387
  180ACTN    H4 1798   1.340   4.712   1.518
  180ACTN    H5 1799   1.388   4.864   1.585
  180ACTN    H6 1800   1.464   4.715   1.644
  181ACTN    C1 1801   3.494   4.360   5.433
  181ACTN    O1 1802   3.686   4.378   5.289
  181ACTN    C2 1803   3.607   4.434   5.367
  181ACTN    C3 1804   3.655   4.561   5.423
  181ACTN    H1 1805   3.397   4.391   5.394
  181ACTN    H2 1806   3.498   4.379   5.539
  181ACTN    H3 1807   3.504   4.252   5.413
  181ACTN    H4 1808   3.608   4.640   5.365
  181ACTN    H5 1809   3.763   4.576   5.408
  181ACTN    H6 1810   3.632   4.574   5.528
  182ACTN    C1 1811   7.352   3.303   4.850
  182ACTN    O1 1812   7.401   3.200   4.639
  182ACTN    C2 1813   7.391   3.188   4.762
  182ACTN    C3 1814   7.376   3.050   4.810
  182ACTN    H1 1815   7.434   3.337   4.912
  182ACTN    H2 1816   7.269   3.272   4.913
  182ACTN    H3 1817   7.320   3.388   4.788
  182ACTN    H4 1818   7.474   3.019   4.844
  182ACTN    H5 1819   7.352   2.980   4.729
  182ACTN    H6 1820   7.304   3.038   4.890
  183ACTN    C1 1821   4.969   6.079   7.825
  183ACTN    O1 1822   4.887   5.912   7.976
  183ACTN    C2 1823   4.928   5.939   7.862
  183ACTN    C3 1824   4.974   5.825   7.783
  183ACTN    H1 1825   4.899   6.124   7.754
  183ACTN    H2 1826   5.067   6.075   7.779
  183ACTN    H3 1827   4.971   6.142   7.914
  183ACTN    H4 1828   4.892   5.799   7.716
  183ACTN    H5 1829   4.989   5.735   7.844
  183ACTN    H6 1830   5.063   5.844   7.725
  184ACTN    C1 1831   4.436   6.609   6.197
  184ACTN    O1 1832   4.480   6.845   6.201
  184ACTN    C2 1833   4.426   6.747   6.255
  184ACTN    C3 1834   4.390   6.766   6.396
  184ACTN    H1 1835   4.340   6.574   6.158
  184ACTN    H2 1836   4.468   6.541   6.276
  184ACTN    H3 1837   4.508   6.608   6.115
  184ACTN    H4 1838   4.284   6.790   6.398
  184ACTN    H5 1839   4.439   6.854   6.440
  184ACTN    H6 1840   4.410   6.680   6.459
  185ACTN    C1 1841   4.516   4.273   5.945
  185ACTN    O1 1842   4.278   4.299   5.928
  185ACTN    C2 1843   4.378   4.231   5.901
  185ACTN    C3 1844   4.352   4.092   5.865
  185ACTN    H1 1845   4.578   4.304   5.861
  185ACTN    H2 1846   4.563   4.190   5.995
  185ACTN    H3 1847   4.509   4.359   6.013
  185ACTN    H4 1848   4.356   4.087   5.756
  185ACTN    H5 1849   4.250   4.060   5.890
  185ACTN    H6 1850   4.422   4.021   5.906
  186ACTN    C1 1851   4.815   3.872   7.924
  186ACTN    O1 1852   4.736   3.905   7.700
  186ACTN    C2 1853   4.748   3.950   7.815
  186ACTN    C3 1854   4.733   4.096   7.827
  186ACTN    H1 1855   4.744   3.839   8.000
  186ACTN    H2 1856   4.890   3.935   7.971
  186ACTN    H3 1857   4.862   3.782   7.882
  186ACTN    H4 1858   4.631   4.113   7.862
  186ACTN    H5 1859   4.738   4.146   7.730
  186ACTN    H6 1860   4.803   4.142   7.895
  187ACTN    C1 1861   0.964   1.453   3.445
  187ACTN    O1 1862   1.043   1.243   3.530
  187ACTN    C2 1863   1.010   1.360   3.554
  187ACTN    C3 1864   0.977   1.388   3.694
  187ACTN    H1 1865   1.036   1.532   3.425
  187ACTN    H2 1866   0.870   1.498   3.475
  187ACTN    H3 1867   0.950   1.397   3.351
  187ACTN    H4 1868   1.065   1.435   3.737
  187ACTN    H5 1869   0.962   1.298   3.753
  187ACTN    H6 1870   0.891   1.453   3.707
  188ACTN    C1 1871   7.714   5.065   3.647
  188ACTN    O1 1872   7.518   4.956   3.731
  188ACTN    C2 1873   7.641   4.971   3.738
  188ACTN    C3 1874   7.702   4.929   3.865
  188ACTN    H1 1875   7.777   5.012   3.576
  188ACTN    H2 1876   7.776   5.131   3.707
  188ACTN    H3 1877   7.642   5.124   3.589
  188ACTN    H4 1878   7.745   4.830   3.846
  188ACTN    H5 1879   7.628   4.912   3.944
  188ACTN    H6 1880   7.778   4.995   3.902
  189ACTN    C1 1881   5.434   4.242   7.786
  189ACTN    O1 1882   5.648   4.341   7.743
  189ACTN    C2 1883   5.538   4.349   7.801
  189ACTN    C3 1884   5.535   4.441   7.915
  189ACTN    H1 1885   5.348   4.277   7.729
  189ACTN    H2 1886   5.401   4.212   7.885
  189ACTN    H3 1887   5.476   4.156   7.733
  189ACTN    H4 1888   5.488   4.533   7.878
  189ACTN    H5 1889   5.634   4.472   7.948
  189ACTN    H6 1890   5.479   4.404   8.000
  190ACTN    C1 1891   7.055   3.507   6.567
  190ACTN    O1 1892   7.275   3.416   6.599
  190ACTN    C2 1893   7.174   3.468   6.650
  190ACTN    C3 1894   7.161   3.448   6.794
  190ACTN    H1 1895   7.044   3.615   6.560
  190ACTN    H2 1896   6.966   3.464   6.612
  190ACTN    H3 1897   7.067   3.469   6.464
  190ACTN    H4 1898   7.196   3.540   6.841
  190ACTN    H5 1899   7.228   3.371   6.833
  190ACTN    H6 1900   7.060   3.427   6.827
  191ACTN    C1 1901   5.358   7.735   7.944
  191ACTN    O1 1902   5.385   7.970   7.986
  191ACTN    C2 1903   5.311   7.878   7.946
  191ACTN    C3 1904   5.168   7.909   7.944
  191ACTN    H1 1905   5.372   7.698   7.843
  191ACTN    H2 1906   5.284   7.674   7.995
  191ACTN    H3 1907   5.455   7.727   7.996
  191ACTN    H4 1908   5.144   7.933   7.841
  191ACTN    H5 1909   5.144   8.000   8.000
  191ACTN    H6 1910   5.105   7.829   7.978
  192ACTN    C1 1911   7.651   5.011   5.521
  192ACTN    O1 1912   7.471   5.139   5.615
  192ACTN    C2 1913   7.566   5.061   5.634
  192ACTN    C3 1914   7.614   5.055   5.773
  192ACTN    H1 1915   7.636   4.905   5.502
  192ACTN    H2 1916   7.755   5.027   5.548
  192ACTN    H3 1917   7.627   5.065   5.429
  192ACTN    H4 1918   7.569   4.966   5.817
  192ACTN    H5 1919   7.577   5.138   5.834
  192ACTN    H6 1920   7.722   5.050   5.781
  193ACTN    C1 1921   2.994   2.662   0.474
  193ACTN    O1 1922   3.024   2.481   0.629
  193ACTN    C2 1923   3.053   2.531   0.519
  193ACTN    C3 1924   3.177   2.481   0.459
  193ACTN    H1 1925   2.925   2.648   0.390
  193ACTN    H2 1926   3.075   2.727   0.443
  193ACTN    H3 1927   2.938   2.708   0.555
  193ACTN    H4 1928   3.148   2.408   0.384
  193ACTN    H5 1929   3.239   2.425   0.530
  193ACTN    H6 1930   3.238   2.557   0.413
  194ACTN    C1 1931   5.158   4.293   6.472
  194ACTN    O1 1932   5.269   4.352   6.267
  194ACTN    C2 1933   5.248   4.266   6.355
  194ACTN    C3 1934   5.279   4.128   6.315
  194ACTN    H1 1935   5.214   4.299   6.565
  194ACTN    H2 1936   5.086   4.212   6.479
  194ACTN    H3 1937   5.106   4.388   6.458
  194ACTN    H4 1938   5.377   4.106   6.357
  194ACTN    H5 1939   5.293   4.118   6.207
  194ACTN    H6 1940   5.207   4.055   6.348
  195ACTN    C1 1941   4.306   0.626   0.294
  195ACTN    O1 1942   4.521   0.726   0.259
  195ACTN    C2 1943   4.437   0.642   0.223
  195ACTN    C3 1944   4.454   0.592   0.086
  195ACTN    H1 1945   4.300   0.532   0.348
  195ACTN    H2 1946   4.226   0.629   0.220
  195ACTN    H3 1947   4.292   0.707   0.366
  195ACTN    H4 1948   4.504   0.496   0.095
  195ACTN    H5 1949   4.523   0.654   0.027
  195ACTN    H6 1950   4.362   0.580   0.031
  196ACTN    C1 1951   2.696   5.894   7.494
  196ACTN    O1 1952   2.492   5.769   7.469
  196ACTN    C2 1953   2.585   5.831   7.414
  196ACTN    C3 1954   2.602   5.803   7.271
  196ACTN    H1 1955   2.691   6.003   7.492
  196ACTN    H2 1956   2.790   5.861   7.451
  196ACTN    H3 1957   2.689   5.862   7.598
  196ACTN    H4 1958   2.555   5.885   7.218
  196ACTN    H5 1959   2.548   5.714   7.239
  196ACTN    H6 1960   2.705   5.795   7.240
  197ACTN    C1 1961   2.511   6.272   2.919
  197ACTN    O1 1962   2.438   6.477   2.818
  197ACTN    C2 1963   2.453   6.411   2.922
  197ACTN    C3 1964   2.453   6.488   3.046
  197ACTN    H1 1965   2.436   6.196   2.943
  197ACTN    H2 1966   2.591   6.267   2.991
  197ACTN    H3 1967   2.549   6.250   2.819
  197ACTN    H4 1968   2.353   6.477   3.089
  197ACTN    H5 1969   2.464   6.595   3.029
  197ACTN    H6 1970   2.526   6.456   3.119
  198ACTN    C1 1971   1.961   5.149   4.490
  198ACTN    O1 1972   2.004   5.317   4.324
  198ACTN    C2 1973   2.045   5.217   4.385
  198ACTN    C3 1974   2.155   5.145   4.320
  198ACTN    H1 1975   2.002   5.163   4.590
  198ACTN    H2 1976   1.956   5.043   4.468
  198ACTN    H3 1977   1.860   5.192   4.491
  198ACTN    H4 1978   2.246   5.176   4.371
  198ACTN    H5 1979   2.169   5.175   4.216
  198ACTN    H6 1980   2.146   5.037   4.325
  199ACTN    C1 1981   2.456   4.366   0.404
  199ACTN    O1 1982   2.229   4.439   0.375
  199ACTN    C2 1983   2.340   4.416   0.323
  199ACTN    C3 1984   2.337   4.397   0.177
  199ACTN    H1 1985   2.534   4.441   0.413
  199ACTN    H2 1986   2.497   4.278   0.355
  199ACTN    H3 1987   2.423   4.341   0.505
  199ACTN    H4 1988   2.370   4.491   0.134
  199ACTN    H5 1989   2.236   4.382   0.139
  199ACTN    H6 1990   2.401   4.317   0.142
  200ACTN    C1 1991   3.528   3.291   7.113
  200ACTN    O1 1992   3.330   3.156   7.126
  200ACTN    C2 1993   3.414   3.212   7.054
  200ACTN    C3 1994   3.420   3.163   6.916
  200ACTN    H1 1995   3.517   3.397   7.095
  200ACTN    H2 1996   3.620   3.256   7.067
  200ACTN    H3 1997   3.532   3.275   7.221
  200ACTN    H4 1998   3.364   3.234   6.856
  200ACTN    H5 1999   3.368   3.068   6.903
  200ACTN    H6 2000   3.521   3.154   6.877
  201ACTN    C1 2001   4.532   6.780   3.639
  201ACTN    O1 2002   4.324   6.880   3.704
  201ACTN    C2 2003   4.385   6.807   3.624
  201ACTN    C3 2004   4.301   6.718   3.543
  201ACTN    H1 2005   4.591   6.828   3.561
  201ACTN    H2 2006   4.548   6.673   3.635
  201ACTN    H3 2007   4.568   6.819   3.736
  201ACTN    H4 2008   4.291   6.766   3.446
  201ACTN    H5 2009   4.199   6.710   3.582
  201ACTN    H6 2010   4.342   6.619   3.531
  202ACTN    C1 2011   2.996   0.124   3.257
  202ACTN    O1 2012   2.886   0.248   3.431
  202ACTN    C2 2013   2.990   0.192   3.391
  202ACTN    C3 2014   3.113   0.233   3.460
  202ACTN    H1 2015   3.003   0.016   3.267
  202ACTN    H2 2016   3.083   0.161   3.204
  202ACTN    H3 2017   2.905   0.146   3.200
  202ACTN    H4 2018   3.134   0.155   3.533
  202ACTN    H5 2019   3.100   0.324   3.519
  202ACTN    H6 2020   3.198   0.245   3.394
  203ACTN    C1 2021   5.977   4.858   3.922
  203ACTN    O1 2022   5.927   5.089   3.876
  203ACTN    C2 2023   5.953   4.976   3.831
  203ACTN    C3 2024   5.917   4.955   3.691
  203ACTN    H1 2025   6.081   4.826   3.920
  203ACTN    H2 2026   5.913   4.776   3.889
  203ACTN    H3 2027   5.952   4.885   4.025
  203ACTN    H4 2028   6.009   4.967   3.634
  203ACTN    H5 2029   5.850   5.033   3.653
  203ACTN    H6 2030   5.873   4.858   3.670
  204ACTN    C1 2031   0.679   1.297   5.255
  204ACTN    O1 2032   0.912   1.276   5.307
  204ACTN    C2 2033   0.797   1.301   5.347
  204ACTN    C3 2034   0.779   1.290   5.492
  204ACTN    H1 2035   0.638   1.397   5.237
  204ACTN    H2 2036   0.602   1.235   5.300
  204ACTN    H3 2037   0.709   1.256   5.158
  204ACTN    H4 2038   0.783   1.392   5.531
  204ACTN    H5 2039   0.862   1.239   5.542
  204ACTN    H6 2040   0.686   1.244   5.522
  205ACTN    C1 2041   2.641   7.898   6.339
  205ACTN    O1 2042   2.415   7.877   6.261
  205ACTN    C2 2043   2.493   7.887   6.358
  205ACTN    C3 2044   2.430   7.930   6.483
  205ACTN    H1 2045   2.694   7.809   6.373
  205ACTN    H2 2046   2.676   7.984   6.396
  205ACTN    H3 2047   2.665   7.912   6.233
  205ACTN    H4 2048   2.414   7.840   6.542
  205ACTN    H5 2049   2.329   7.970   6.468
  205ACTN    H6 2050   2.488   8.001   6.540
  206ACTN    C1 2051   5.554   5.368   6.017
  206ACTN    O1 2052   5.395   5.293   5.853
  206ACTN    C2 2053   5.507   5.278   5.906
  206ACTN    C3 2054   5.568   5.147   5.886
  206ACTN    H1 2055   5.635   5.433   5.985
  206ACTN    H2 2056   5.588   5.306   6.100
  206ACTN    H3 2057   5.471   5.432   6.051
  206ACTN    H4 2058   5.640   5.159   5.806
  206ACTN    H5 2059   5.497   5.073   5.848
  206ACTN    H6 2060   5.617   5.107   5.974
  207ACTN    C1 2061   4.177   1.160   6.933
  207ACTN    O1 2062   3.971   1.039   6.912
  207ACTN    C2 2063   4.070   1.088   6.856
  207ACTN    C3 2064   4.098   1.034   6.723
  207ACTN    H1 2065   4.177   1.267   6.912
  207ACTN    H2 2066   4.273   1.118   6.906
  207ACTN    H3 2067   4.160   1.148   7.041
  207ACTN    H4 2068   4.059   1.107   6.652
  207ACTN    H5 2069   4.043   0.942   6.702
  207ACTN    H6 2070   4.203   1.017   6.703
  208ACTN    C1 2071   4.341   6.448   7.865
  208ACTN    O1 2072   4.152   6.507   8.000
  208ACTN    C2 2073   4.202   6.501   7.886
  208ACTN    C3 2074   4.106   6.505   7.776
  208ACTN    H1 2075   4.410   6.526   7.834
  208ACTN    H2 2076   4.337   6.372   7.788
  208ACTN    H3 2077   4.380   6.405   7.958
  208ACTN    H4 2078   4.108   6.607   7.739
  208ACTN    H5 2079   4.003   6.489   7.809
  208ACTN    H6 2080   4.128   6.437   7.695
  209ACTN    C1 2081   5.730   1.439   5.868
  209ACTN    O1 2082   5.818   1.385   5.652
  209ACTN    C2 2083   5.728   1.368   5.735
  209ACTN    C3 2084   5.603   1.313   5.683
  209ACTN    H1 2085   5.748   1.370   5.951
  209ACTN    H2 2086   5.633   1.487   5.883
  209ACTN    H3 2087   5.809   1.514   5.869
  209ACTN    H4 2088   5.604   1.206   5.706
  209ACTN    H5 2089   5.598   1.317   5.573
  209ACTN    H6 2090   5.514   1.357   5.724
  210ACTN    C1 2091   3.247   6.114   5.363
  210ACTN    O1 2092   3.213   5.901   5.257
  210ACTN    C2 2093   3.166   5.992   5.328
  210ACTN    C3 2094   3.020   5.995   5.337
  210ACTN    H1 2095   3.273   6.115   5.469
  210ACTN    H2 2096   3.188   6.202   5.340
  210ACTN    H3 2097   3.340   6.114   5.306
  210ACTN    H4 2098   2.994   5.947   5.432
  210ACTN    H5 2099   2.971   5.932   5.261
  210ACTN    H6 2100   2.977   6.094   5.333
  211ACTN    C1 2101   6.291   0.918   7.680
  211ACTN    O1 2102   6.360   0.943   7.909
  211ACTN    C2 2103   6.329   0.866   7.816
  211ACTN    C3 2104   6.373   0.727   7.833
  211ACTN    H1 2105   6.185   0.903   7.659
  211ACTN    H2 2106   6.350   0.866   7.606
  211ACTN    H3 2107   6.311   1.026   7.675
  211ACTN    H4 2108   6.286   0.672   7.868
  211ACTN    H5 2109   6.447   0.716   7.912
  211ACTN    H6 2110   6.411   0.681   7.742
  212ACTN    C1 2111   5.559   0.815   5.870
  212ACTN    O1 2112   5.439   0.608   5.850
  212ACTN    C2 2113   5.486   0.709   5.794
  212ACTN    C3 2114   5.503   0.697   5.649
  212ACTN    H1 2115   5.503   0.908   5.876
  212ACTN    H2 2116   5.654   0.834   5.821
  212ACTN    H3 2117   5.577   0.781   5.973
  212ACTN    H4 2118   5.417   0.747   5.604
  212ACTN    H5 2119   5.495   0.593   5.614
  212ACTN    H6 2120   5.594   0.740   5.611
  213ACTN    C1 2121   1.663   5.772   1.822
  213ACTN    O1 2122   1.558   5.706   1.617
  213ACTN    C2 2123   1.660   5.750   1.674
  213ACTN    C3 2124   1.784   5.736   1.598
  213ACTN    H1 2125   1.666   5.878   1.847
  213ACTN    H2 2126   1.751   5.723   1.862
  213ACTN    H3 2127   1.572   5.731   1.868
  213ACTN    H4 2128   1.803   5.833   1.553
  213ACTN    H5 2129   1.775   5.668   1.513
  213ACTN    H6 2130   1.869   5.707   1.658
  214ACTN    C1 2131   1.949   3.300   3.006
  214ACTN    O1 2132   2.036   3.206   2.803
  214ACTN    C2 2133   1.991   3.306   2.862
  214ACTN    C3 2134   2.021   3.434   2.797
  214ACTN    H1 2135   1.841   3.309   3.017
  214ACTN    H2 2136   1.997   3.382   3.058
  214ACTN    H3 2137   1.980   3.205   3.050
  214ACTN    H4 2138   1.931   3.462   2.742
  214ACTN    H5 2139   2.099   3.426   2.721
  214ACTN    H6 2140   2.047   3.513   2.867
  215ACTN    C1 2141   5.707   5.461   4.485
  215ACTN    O1 2142   5.479   5.527   4.516
  215ACTN    C2 2143   5.573   5.508   4.438
  215ACTN    C3 2144   5.534   5.492   4.297
  215ACTN    H1 2145   5.783   5.538   4.476
  215ACTN    H2 2146   5.736   5.375   4.426
  215ACTN    H3 2147   5.702   5.433   4.591
  215ACTN    H4 2148   5.552   5.588   4.249
  215ACTN    H5 2149   5.426   5.475   4.285
  215ACTN    H6 2150   5.588   5.415   4.245
  216ACTN    C1 2151   1.008   0.149   1.710
  216ACTN    O1 2152   0.838   0.001   1.627
  216ACTN    C2 2153   0.903   0.106   1.611
  216ACTN    C3 2154   0.904   0.158   1.474
  216ACTN    H1 2155   0.977   0.238   1.765
  216ACTN    H2 2156   1.099   0.170   1.656
  216ACTN    H3 2157   1.025   0.069   1.783
  216ACTN    H4 2158   0.830   0.238   1.473
  216ACTN    H5 2159   0.867   0.085   1.401
  216ACTN    H6 2160   1.000   0.196   1.442
  217ACTN    C1 2161   6.186   1.093   1.023
  217ACTN    O1 2162   6.337   0.915   0.966
  217ACTN    C2 2163   6.274   1.016   0.929
  217ACTN    C3 2164   6.324   1.078   0.806
  217ACTN    H1 2165   6.081   1.082   0.999
  217ACTN    H2 2166   6.214   1.198   1.017
  217ACTN    H3 2167   6.200   1.057   1.126
  217ACTN    H4 2168   6.258   1.043   0.726
  217ACTN    H5 2169   6.423   1.041   0.777
  217ACTN    H6 2170   6.325   1.186   0.808
  218ACTN    C1 2171   2.456   2.700   6.878
  218ACTN    O1 2172   2.685   2.739   6.936
  218ACTN    C2 2173   2.597   2.741   6.848
  218ACTN    C3 2174   2.628   2.825   6.732
  218ACTN    H1 2175   2.430   2.607   6.828
  218ACTN    H2 2176   2.389   2.778   6.843
  218ACTN    H3 2177   2.443   2.685   6.985
  218ACTN    H4 2178   2.663   2.757   6.654
  218ACTN    H5 2179   2.712   2.892   6.750
  218ACTN    H6 2180   2.544   2.882   6.695
  219ACTN    C1 2181   3.080   2.089   6.412
  219ACTN    O1 2182   3.019   2.282   6.543
  219ACTN    C2 2183   3.032   2.158   6.537
  219ACTN    C3 2184   3.042   2.091   6.667
  219ACTN    H1 2185   3.001   2.031   6.366
  219ACTN    H2 2186   3.163   2.024   6.439
  219ACTN    H3 2187   3.114   2.164   6.339
  219ACTN    H4 2188   2.943   2.050   6.687
  219ACTN    H5 2189   3.060   2.161   6.749
  219ACTN    H6 2190   3.115   2.012   6.671
  220ACTN    C1 2191   0.599   1.618   2.945
  220ACTN    O1 2192   0.820   1.709   2.930
  220ACTN    C2 2193   0.713   1.704   2.992
  220ACTN    C3 2194   0.720   1.750   3.131
  220ACTN    H1 2195   0.515   1.678   2.909
  220ACTN    H2 2196   0.565   1.558   3.029
  220ACTN    H3 2197   0.631   1.554   2.863
  220ACTN    H4 2198   0.682   1.852   3.132
  220ACTN    H5 2199   0.823   1.758   3.168
  220ACTN    H6 2200   0.663   1.689   3.200
  221ACTN    C1 2201   4.911   2.122   2.807
  221ACTN    O1 2202   5.130   2.053   2.879
  221ACTN    C2 2203   5.009   2.026   2.870
  221ACTN    C3 2204   4.975   1.884   2.882
  221ACTN    H1 2205   4.843   2.165   2.881
  221ACTN    H2 2206   4.854   2.069   2.732
  221ACTN    H3 2207   4.965   2.205   2.761
  221ACTN    H4 2208   4.941   1.870   2.984
  221ACTN    H5 2209   5.063   1.819   2.874
  221ACTN    H6 2210   4.899   1.850   2.813
  222ACTN    C1 2211   0.703   0.993   4.038
  222ACTN    O1 2212   0.846   1.142   4.161
  222ACTN    C2 2213   0.744   1.071   4.161
  222ACTN    C3 2214   0.694   1.033   4.293
  222ACTN    H1 2215   0.613   1.033   3.993
  222ACTN    H2 2216   0.687   0.890   4.068
  222ACTN    H3 2217   0.783   0.998   3.963
  222ACTN    H4 2218   0.611   1.100   4.314
  222ACTN    H5 2219   0.766   1.053   4.372
  222ACTN    H6 2220   0.660   0.931   4.300
  223ACTN    C1 2221   1.581   1.000   3.087
  223ACTN    O1 2222   1.767   1.109   3.191
  223ACTN    C2 2223   1.719   1.058   3.089
  223ACTN    C3 2224   1.786   1.094   2.964
  223ACTN    H1 2225   1.582   0.891   3.079
  223ACTN    H2 2226   1.527   1.041   3.002
  223ACTN    H3 2227   1.528   1.025   3.180
  223ACTN    H4 2228   1.853   1.012   2.940
  223ACTN    H5 2229   1.853   1.181   2.976
  223ACTN    H6 2230   1.719   1.112   2.881
  224ACTN    C1 2231   6.375   6.767   1.094
  224ACTN    O1 2232   6.139   6.778   1.135
  224ACTN    C2 2233   6.232   6.789   1.054
  224ACTN    C3 2234   6.192   6.782   0.913
  224ACTN    H1 2235   6.432   6.859   1.093
  224ACTN    H2 2236   6.419   6.697   1.024
  224ACTN    H3 2237   6.380   6.726   1.195
  224ACTN    H4 2238   6.187   6.885   0.878
  224ACTN    H5 2239   6.090   6.744   0.900
  224ACTN    H6 2240   6.260   6.725   0.851
  225ACTN    C1 2241   6.305   3.649   6.882
  225ACTN    O1 2242   6.119   3.799   6.859
  225ACTN    C2 2243   6.213   3.740   6.805
  225ACTN    C3 2244   6.204   3.729   6.659
  225ACTN    H1 2245   6.405   3.691   6.892
  225ACTN    H2 2246   6.311   3.554   6.830
  225ACTN    H3 2247   6.265   3.633   6.983
  225ACTN    H4 2248   6.268   3.808   6.619
  225ACTN    H5 2249   6.104   3.753   6.621
  225ACTN    H6 2250   6.235   3.634   6.619
  226ACTN    C1 2251   4.334   6.646   2.211
  226ACTN    O1 2252   4.095   6.652   2.208
  226ACTN    C2 2253   4.198   6.619   2.269
  226ACTN    C3 2254   4.181   6.594   2.412
  226ACTN    H1 2255   4.385   6.554   2.181
  226ACTN    H2 2256   4.394   6.695   2.287
  226ACTN    H3 2257   4.326   6.709   2.123
  226ACTN    H4 2258   4.174   6.485   2.423
  226ACTN    H5 2259   4.085   6.631   2.450
  226ACTN    H6 2260   4.261   6.632   2.473
  227ACTN    C1 2261   0.084   4.511   4.081
  227ACTN    O1 2262   0.049   4.746   4.042
  227ACTN    C2 2263   0.093   4.657   4.117
  227ACTN    C3 2264   0.191   4.702   4.216
  227ACTN    H1 2265   0.014   4.458   4.145
  227ACTN    H2 2266   0.182   4.467   4.091
  227ACTN    H3 2267   0.048   4.501   3.978
  227ACTN    H4 2268   0.137   4.713   4.310
  227ACTN    H5 2269   0.229   4.803   4.195
  227ACTN    H6 2270   0.275   4.635   4.230
  228ACTN    C1 2271   2.734   3.705   6.195
  228ACTN    O1 2272   2.515   3.787   6.250
  228ACTN    C2 2273   2.594   3.750   6.162
  228ACTN    C3 2274   2.532   3.712   6.035
  228ACTN    H1 2275   2.808   3.776   6.160
  228ACTN    H2 2276   2.750   3.609   6.147
  228ACTN    H3 2277   2.745   3.695   6.303
  228ACTN    H4 2278   2.543   3.798   5.969
  228ACTN    H5 2279   2.424   3.699   6.043
  228ACTN    H6 2280   2.575   3.625   5.988
  229ACTN    C1 2281   4.918   5.744   5.915
  229ACTN    O1 2282   4.966   5.725   5.681
  229ACTN    C2 2283   4.919   5.672   5.783
  229ACTN    C3 2284   4.829   5.559   5.759
  229ACTN    H1 2285   4.987   5.699   5.986
  229ACTN    H2 2286   4.817   5.739   5.955
  229ACTN    H3 2287   4.948   5.848   5.901
  229ACTN    H4 2288   4.889   5.469   5.775
  229ACTN    H5 2289   4.797   5.552   5.655
  229ACTN    H6 2290   4.742   5.557   5.823
  230ACTN    C1 2291   2.855   0.515   4.188
  230ACTN    O1 2292   2.647   0.627   4.145
  230ACTN    C2 2293   2.747   0.570   4.099
  230ACTN    C3 2294   2.734   0.522   3.961
  230ACTN    H1 2295   2.947   0.572   4.180
  230ACTN    H2 2296   2.874   0.412   4.159
  230ACTN    H3 2297   2.823   0.520   4.293
  230ACTN    H4 2298   2.783   0.597   3.898
  230ACTN    H5 2299   2.629   0.522   3.927
  230ACTN    H6 2300   2.777   0.425   3.943
  231ACTN    C1 2301   5.833   6.141   3.931
  231ACTN    O1 2302   5.622   6.033   3.966
  231ACTN    C2 2303   5.727   6.076   4.016
  231ACTN    C3 2304   5.724   6.099   4.160
  231ACTN    H1 2305   5.923   6.080   3.923
  231ACTN    H2 2306   5.859   6.236   3.975
  231ACTN    H3 2307   5.795   6.157   3.829
  231ACTN    H4 2308   5.772   6.013   4.206
  231ACTN    H5 2309   5.622   6.099   4.200
  231ACTN    H6 2310   5.774   6.190   4.192
  232ACTN    C1 2311   0.108   7.186   6.424
  232ACTN    O1 2312   0.215   7.088   6.615
  232ACTN    C2 2313   0.156   7.185   6.567
  232ACTN    C3 2314   0.098   7.278   6.665
  232ACTN    H1 2315   0.165   7.255   6.363
  232ACTN    H2 2316   0.004   7.214   6.423
  232ACTN    H3 2317   0.120   7.086   6.381
  232ACTN    H4 2318   0.168   7.361   6.673
  232ACTN    H5 2319   0.094   7.235   6.766
  232ACTN    H6 2320  -0.000   7.314   6.638
  233ACTN    C1 2321   5.288   6.082   1.787
  233ACTN    O1 2322   5.069   6.169   1.834
  233ACTN    C2 2323   5.150   6.076   1.847
  233ACTN    C3 2324   5.120   5.982   1.955
  233ACTN    H1 2325   5.299   6.013   1.704
  233ACTN    H2 2326   5.360   6.058   1.864
  233ACTN    H3 2327   5.307   6.183   1.749
  233ACTN    H4 2328   5.073   5.896   1.909
  233ACTN    H5 2329   5.046   6.020   2.025
  233ACTN    H6 2330   5.207   5.949   2.011
  234ACTN    C1 2331   6.443   2.927   0.770
  234ACTN    O1 2332   6.267   2.880   0.614
  234ACTN    C2 2333   6.388   2.901   0.632
  234ACTN    C3 2334   6.476   2.858   0.524
  234ACTN    H1 2335   6.476   3.030   0.782
  234ACTN    H2 2336   6.527   2.861   0.786
  234ACTN    H3 2337   6.366   2.908   0.845
  234ACTN    H4 2338   6.499   2.947   0.466
  234ACTN    H5 2339   6.426   2.791   0.453
  234ACTN    H6 2340   6.568   2.812   0.557
  235ACTN    C1 2341   4.007   3.598   6.727
  235ACTN    O1 2342   3.792   3.497   6.690
  235ACTN    C2 2343   3.866   3.562   6.766
  235ACTN    C3 2344   3.797   3.635   6.872
  235ACTN    H1 2345   4.080   3.543   6.786
  235ACTN    H2 2346   4.020   3.704   6.743
  235ACTN    H3 2347   4.024   3.573   6.622
  235ACTN    H4 2348   3.806   3.574   6.962
  235ACTN    H5 2349   3.689   3.643   6.855
  235ACTN    H6 2350   3.837   3.734   6.891
  236ACTN    C1 2351   3.528   7.253   5.801
  236ACTN    O1 2352   3.293   7.241   5.756
  236ACTN    C2 2353   3.407   7.258   5.712
  236ACTN    C3 2354   3.422   7.238   5.567
  236ACTN    H1 2355   3.574   7.352   5.813
  236ACTN    H2 2356   3.600   7.185   5.759
  236ACTN    H3 2357   3.499   7.219   5.902
  236ACTN    H4 2358   3.422   7.337   5.523
  236ACTN    H5 2359   3.335   7.188   5.523
  236ACTN    H6 2360   3.512   7.185   5.538
  237ACTN    C1 2361   3.974   6.223   7.635
  237ACTN    O1 2362   3.833   6.404   7.567
  237ACTN    C2 2363   3.891   6.298   7.536
  237ACTN    C3 2364   3.838   6.231   7.417
  237ACTN    H1 2365   4.081   6.227   7.611
  237ACTN    H2 2366   3.942   6.119   7.636
  237ACTN    H3 2367   3.963   6.266   7.735
  237ACTN    H4 2368   3.905   6.257   7.335
  237ACTN    H5 2369   3.741   6.271   7.386
  237ACTN    H6 2370   3.832   6.124   7.426
  238ACTN    C1 2371   5.579   4.470   5.399
  238ACTN    O1 2372   5.652   4.245   5.362
  238ACTN    C2 2373   5.632   4.337   5.443
  238ACTN    C3 2374   5.623   4.296   5.584
  238ACTN    H1 2375   5.654   4.549   5.407
  238ACTN    H2 2376   5.495   4.496   5.462
  238ACTN    H3 2377   5.548   4.465   5.294
  238ACTN    H4 2378   5.720   4.316   5.628
  238ACTN    H5 2379   5.609   4.188   5.595
  238ACTN    H6 2380   5.546   4.347   5.640
  239ACTN    C1 2381   4.656   3.210   5.470
  239ACTN    O1 2382   4.832   3.143   5.322
  239ACTN    C2 2383   4.766   3.236   5.371
  239ACTN    C3 2384   4.826   3.368   5.359
  239ACTN    H1 2385   4.557   3.230   5.429
  239ACTN    H2 2386   4.672   3.274   5.556
  239ACTN    H3 2387   4.658   3.105   5.502
  239ACTN    H4 2388   4.778   3.417   5.275
  239ACTN    H5 2389   4.932   3.364   5.332
  239ACTN    H6 2390   4.815   3.430   5.448
  240ACTN    C1 2391   2.549   4.393   0.789
  240ACTN    O1 2392   2.310   4.377   0.763
  240ACTN    C2 2393   2.408   4.383   0.841
  240ACTN    C3 2394   2.375   4.424   0.978
  240ACTN    H1 2395   2.605   4.302   0.809
  240ACTN    H2 2396   2.597   4.477   0.838
  240ACTN    H3 2397   2.548   4.409   0.681
  240ACTN    H4 2398   2.372   4.333   1.037
  240ACTN    H5 2399   2.275   4.466   0.986
  240ACTN    H6 2400   2.447   4.493   1.021
  241ACTN    C1 2401   5.841   5.833   7.039
  241ACTN    O1 2402   5.962   5.805   6.833
  241ACTN    C2 2403   5.894   5.753   6.924
  241ACTN    C3 2404   5.834   5.623   6.890
  241ACTN    H1 2405   5.891   5.808   7.133
  241ACTN    H2 2406   5.735   5.814   7.049
  241ACTN    H3 2407   5.858   5.940   7.021
  241ACTN    H4 2408   5.898   5.548   6.934
  241ACTN    H5 2409   5.837   5.603   6.782
  241ACTN    H6 2410   5.733   5.611   6.926
  242ACTN    C1 2411   5.105   0.072   3.976
  242ACTN    O1 2412   5.267   0.015   3.808
  242ACTN    C2 2413   5.245   0.061   3.921
  242ACTN    C3 2414   5.360   0.062   4.011
  242ACTN    H1 2415   5.073   0.175   3.984
  242ACTN    H2 2416   5.103   0.026   4.074
  242ACTN    H3 2417   5.035   0.021   3.909
  242ACTN    H4 2418   5.399   0.163   4.010
  242ACTN    H5 2419   5.443   0.000   3.975
  242ACTN    H6 2420   5.337   0.033   4.113
  243ACTN    C1 2421   2.251   4.563   6.597
  243ACTN    O1 2422   2.176   4.381   6.735
  243ACTN    C2 2423   2.258   4.473   6.717
  243ACTN    C3 2424   2.333   4.514   6.836
  243ACTN    H1 2425   2.333   4.545   6.527
  243ACTN    H2 2426   2.254   4.666   6.631
  243ACTN    H3 2427   2.157   4.545   6.542
  243ACTN    H4 2428   2.430   4.465   6.830
  243ACTN    H5 2429   2.288   4.476   6.929
  243ACTN    H6 2430   2.346   4.621   6.845
  244ACTN    C1 2431   5.085   4.660   2.312
  244ACTN    O1 2432   5.155   4.430   2.311
  244ACTN    C2 2433   5.166   4.543   2.361
  244ACTN    C3 2434   5.228   4.547   2.494
  244ACTN    H1 2435   5.146   4.733   2.260
  244ACTN    H2 2436   5.038   4.707   2.397
  244ACTN    H3 2437   5.008   4.625   2.241
  244ACTN    H4 2438   5.332   4.575   2.478
  244ACTN    H5 2439   5.233   4.448   2.540
  244ACTN    H6 2440   5.182   4.616   2.562
  245ACTN    C1 2441   2.935   0.440   1.640
  245ACTN    O1 2442   2.981   0.213   1.577
  245ACTN    C2 2443   2.977   0.298   1.668
  245ACTN    C3 2444   2.972   0.244   1.804
  245ACTN    H1 2445   3.019   0.510   1.649
  245ACTN    H2 2446   2.858   0.467   1.711
  245ACTN    H3 2447   2.897   0.449   1.538
  245ACTN    H4 2448   3.074   0.251   1.843
  245ACTN    H5 2449   2.949   0.138   1.806
  245ACTN    H6 2450   2.905   0.297   1.870
  246ACTN    C1 2451   4.339   1.458   0.903
  246ACTN    O1 2452   4.283   1.690   0.932
  246ACTN    C2 2453   4.287   1.575   0.981
  246ACTN    C3 2454   4.279   1.570   1.127
  246ACTN    H1 2455   4.260   1.388   0.876
  246ACTN    H2 2456   4.413   1.407   0.964
  246ACTN    H3 2457   4.385   1.493   0.809
  246ACTN    H4 2458   4.176   1.545   1.151
  246ACTN    H5 2459   4.295   1.668   1.174
  246ACTN    H6 2460   4.345   1.497   1.172
  247ACTN    C1 2461   3.917   5.572   6.114
  247ACTN    O1 2462   3.976   5.772   6.234
  247ACTN    C2 2463   3.913   5.664   6.233
  247ACTN    C3 2464   3.873   5.615   6.365
  247ACTN    H1 2465   3.822   5.569   6.062
  247ACTN    H2 2466   3.942   5.472   6.149
  247ACTN    H3 2467   3.993   5.606   6.042
  247ACTN    H4 2468   3.769   5.642   6.377
  247ACTN    H5 2469   3.925   5.666   6.446
  247ACTN    H6 2470   3.884   5.508   6.377
  248ACTN    C1 2471   6.549   0.818   1.544
  248ACTN    O1 2472   6.375   0.922   1.415
  248ACTN    C2 2473   6.413   0.822   1.479
  248ACTN    C3 2474   6.306   0.733   1.524
  248ACTN    H1 2475   6.615   0.747   1.495
  248ACTN    H2 2476   6.536   0.789   1.648
  248ACTN    H3 2477   6.596   0.916   1.538
  248ACTN    H4 2478   6.305   0.650   1.454
  248ACTN    H5 2479   6.207   0.778   1.516
  248ACTN    H6 2480   6.320   0.695   1.624
  249ACTN    C1 2481   4.757   2.467   3.627
  249ACTN    O1 2482   4.733   2.230   3.649
  249ACTN    C2 2483   4.705   2.343   3.692
  249ACTN    C3 2484   4.587   2.348   3.780
  249ACTN    H1 2485   4.830   2.519   3.689
  249ACTN    H2 2486   4.673   2.534   3.608
  249ACTN    H3 2487   4.806   2.442   3.532
  249ACTN    H4 2488   4.625   2.350   3.882
  249ACTN    H5 2489   4.527   2.257   3.775
  249ACTN    H6 2490   4.523   2.434   3.763
  250ACTN    C1 2491   3.955   4.175   2.205
  250ACTN    O1 2492   4.108   3.990   2.211
  250ACTN    C2 2493   4.022   4.057   2.270
  250ACTN    C3 2494   3.960   3.991   2.386
  250ACTN    H1 2495   3.986   4.269   2.250
  250ACTN    H2 2496   3.848   4.164   2.216
  250ACTN    H3 2497   3.982   4.179   2.099
  250ACTN    H4 2498   4.010   4.031   2.474
  250ACTN    H5 2499   3.980   3.884   2.389
  250ACTN    H6 2500   3.853   4.008   2.394
  251ACTN    C1 2501   1.037   5.124   3.364
  251ACTN    O1 2502   1.087   5.335   3.467
  251ACTN    C2 2503   1.015   5.271   3.388
  251ACTN    C3 2504   0.886   5.333   3.357
  251ACTN    H1 2505   1.074   5.104   3.264
  251ACTN    H2 2506   0.942   5.073   3.378
  251ACTN    H3 2507   1.111   5.085   3.435
  251ACTN    H4 2508   0.899   5.381   3.260
  251ACTN    H5 2509   0.861   5.415   3.425
  251ACTN    H6 2510   0.803   5.264   3.353
  252ACTN    C1 2511   1.024   5.329   4.428
  252ACTN    O1 2512   1.209   5.177   4.421
  252ACTN    C2 2513   1.142   5.263   4.362
  252ACTN    C3 2514   1.207   5.326   4.247
  252ACTN    H1 2515   0.930   5.299   4.383
  252ACTN    H2 2516   1.035   5.436   4.419
  252ACTN    H3 2517   1.020   5.301   4.534
  252ACTN    H4 2518   1.168   5.277   4.159
  252ACTN    H5 2519   1.315   5.306   4.244
  252ACTN    H6 2520   1.191   5.433   4.240
  253ACTN    C1 2521   7.869   7.031   3.477
  253ACTN    O1 2522   7.700   6.865   3.517
  253ACTN    C2 2523   7.818   6.890   3.486
  253ACTN    C3 2524   7.911   6.778   3.501
  253ACTN    H1 2525   7.890   7.060   3.374
  253ACTN    H2 2526   7.960   7.038   3.536
  253ACTN    H3 2527   7.793   7.101   3.516
  253ACTN    H4 2528   7.925   6.736   3.402
  253ACTN    H5 2529   7.870   6.696   3.561
  253ACTN    H6 2530   8.007   6.806   3.542
  254ACTN    C1 2531   2.775   0.559   0.767
  254ACTN    O1 2532   2.669   0.358   0.689
  254ACTN    C2 2533   2.730   0.416   0.781
  254ACTN    C3 2534   2.716   0.354   0.913
  254ACTN    H1 2535   2.883   0.567   0.760
  254ACTN    H2 2536   2.740   0.614   0.854
  254ACTN    H3 2537   2.733   0.603   0.676
  254ACTN    H4 2538   2.807   0.297   0.929
  254ACTN    H5 2539   2.635   0.281   0.917
  254ACTN    H6 2540   2.704   0.426   0.994
  255ACTN    C1 2541   0.835   3.298   3.719
  255ACTN    O1 2542   0.936   3.431   3.891
  255ACTN    C2 2543   0.939   3.392   3.774
  255ACTN    C3 2544   1.020   3.473   3.683
  255ACTN    H1 2545   0.875   3.199   3.699
  255ACTN    H2 2546   0.796   3.340   3.627
  255ACTN    H3 2547   0.753   3.286   3.792
  255ACTN    H4 2548   1.115   3.420   3.672
  255ACTN    H5 2549   1.047   3.570   3.726
  255ACTN    H6 2550   0.976   3.489   3.586
  256ACTN    C1 2551   7.241   6.582   4.589
  256ACTN    O1 2552   7.177   6.605   4.819
  256ACTN    C2 2553   7.207   6.529   4.725
  256ACTN    C3 2554   7.247   6.394   4.765
  256ACTN    H1 2555   7.164   6.558   4.515
  256ACTN    H2 2556   7.335   6.537   4.557
  256ACTN    H3 2557   7.251   6.691   4.592
  256ACTN    H4 2558   7.160   6.330   4.750
  256ACTN    H5 2559   7.270   6.386   4.872
  256ACTN    H6 2560   7.331   6.354   4.708
  257ACTN    C1 2561   4.472   5.387   6.548
  257ACTN    O1 2562   4.236   5.369   6.585
  257ACTN    C2 2563   4.333   5.343   6.512
  257ACTN    C3 2564   4.311   5.234   6.416
  257ACTN    H1 2565   4.509   5.465   6.482
  257ACTN    H2 2566   4.538   5.300   6.541
  257ACTN    H3 2567   4.474   5.427   6.650
  257ACTN    H4 2568   4.290   5.282   6.321
  257ACTN    H5 2569   4.222   5.176   6.439
  257ACTN    H6 2570   4.396   5.168   6.405
  258ACTN    C1 2571   6.545   7.139   3.043
  258ACTN    O1 2572   6.544   6.936   2.915
  258ACTN    C2 2573   6.600   7.005   3.002
  258ACTN    C3 2574   6.693   6.933   3.089
  258ACTN    H1 2575   6.609   7.221   3.011
  258ACTN    H2 2576   6.537   7.140   3.152
  258ACTN    H3 2577   6.446   7.154   2.999
  258ACTN    H4 2578   6.793   6.953   3.051
  258ACTN    H5 2579   6.682   6.824   3.081
  258ACTN    H6 2580   6.687   6.962   3.193
  259ACTN    C1 2581   1.236   6.888   4.035
  259ACTN    O1 2582   1.316   7.052   4.190
  259ACTN    C2 2583   1.283   6.934   4.170
  259ACTN    C3 2584   1.332   6.838   4.269
  259ACTN    H1 2585   1.130   6.863   4.035
  259ACTN    H2 2586   1.293   6.799   4.008
  259ACTN    H3 2587   1.252   6.967   3.961
  259ACTN    H4 2588   1.249   6.819   4.337
  259ACTN    H5 2589   1.411   6.879   4.333
  259ACTN    H6 2590   1.366   6.744   4.227
  260ACTN    C1 2591   4.450   0.917   3.434
  260ACTN    O1 2592   4.331   1.095   3.325
  260ACTN    C2 2593   4.398   0.990   3.314
  260ACTN    C3 2594   4.384   0.921   3.186
  260ACTN    H1 2595   4.559   0.924   3.442
  260ACTN    H2 2596   4.422   0.813   3.427
  260ACTN    H3 2597   4.409   0.961   3.526
  260ACTN    H4 2598   4.471   0.948   3.127
  260ACTN    H5 2599   4.299   0.958   3.127
  260ACTN    H6 2600   4.377   0.813   3.194
  261ACTN    C1 2601   5.889   6.529   2.021
  261ACTN    O1 2602   6.023   6.382   2.155
  261ACTN    C2 2603   5.977   6.496   2.139
  261ACTN    C3 2604   5.977   6.581   2.258
  261ACTN    H1 2605   5.938   6.595   1.951
  261ACTN    H2 2606   5.799   6.577   2.059
  261ACTN    H3 2607   5.862   6.437   1.968
  261ACTN    H4 2608   6.063   6.646   2.249
  261ACTN    H5 2609   5.994   6.524   2.350
  261ACTN    H6 2610   5.887   6.640   2.270
  262ACTN    C1 2611   7.543   1.319   5.553
  262ACTN    O1 2612   7.320   1.283   5.473
  262ACTN    C2 2613   7.408   1.255   5.556
  262ACTN    C3 2614   7.358   1.192   5.679
  262ACTN    H1 2615   7.621   1.248   5.524
  262ACTN    H2 2616   7.565   1.358   5.651
  262ACTN    H3 2617   7.545   1.400   5.479
  262ACTN    H4 2618   7.376   1.085   5.668
  262ACTN    H5 2619   7.250   1.201   5.690
  262ACTN    H6 2620   7.406   1.228   5.769
  263ACTN    C1 2621   2.444   6.748   7.302
  263ACTN    O1 2622   2.630   6.600   7.271
  263ACTN    C2 2623   2.535   6.636   7.342
  263ACTN    C3 2624   2.492   6.537   7.442
  263ACTN    H1 2625   2.457   6.836   7.365
  263ACTN    H2 2626   2.342   6.714   7.310
  263ACTN    H3 2627   2.466   6.779   7.199
  263ACTN    H4 2628   2.536   6.568   7.536
  263ACTN    H5 2629   2.533   6.438   7.423
  263ACTN    H6 2630   2.385   6.530   7.453
  264ACTN    C1 2631   4.697   6.662   0.286
  264ACTN    O1 2632   4.854   6.669   0.105
  264ACTN    C2 2633   4.812   6.720   0.210
  264ACTN    C3 2634   4.907   6.811   0.276
  264ACTN    H1 2635   4.609   6.726   0.281
  264ACTN    H2 2636   4.727   6.650   0.389
  264ACTN    H3 2637   4.669   6.565   0.244
  264ACTN    H4 2638   4.876   6.912   0.248
  264ACTN    H5 2639   5.009   6.801   0.236
  264ACTN    H6 2640   4.909   6.801   0.383
  265ACTN    C1 2641   3.388   2.790   6.006
  265ACTN    O1 2642   3.618   2.808   6.070
  265ACTN    C2 2643   3.525   2.735   6.030
  265ACTN    C3 2644   3.567   2.609   5.967
  265ACTN    H1 2645   3.316   2.753   6.079
  265ACTN    H2 2646   3.356   2.761   5.906
  265ACTN    H3 2647   3.389   2.900   6.014
  265ACTN    H4 2648   3.555   2.533   6.043
  265ACTN    H5 2649   3.674   2.608   5.943
  265ACTN    H6 2650   3.510   2.583   5.879
  266ACTN    C1 2651   6.347   1.953   6.160
  266ACTN    O1 2652   6.528   1.798   6.131
  266ACTN    C2 2653   6.419   1.842   6.090
  266ACTN    C3 2654   6.387   1.809   5.950
  266ACTN    H1 2655   6.256   1.919   6.209
  266ACTN    H2 2656   6.322   2.029   6.087
  266ACTN    H3 2657   6.412   1.997   6.237
  266ACTN    H4 2658   6.319   1.724   5.954
  266ACTN    H5 2659   6.474   1.772   5.895
  266ACTN    H6 2660   6.341   1.890   5.896
  267ACTN    C1 2661   4.120   3.911   4.320
  267ACTN    O1 2662   4.329   3.891   4.204
  267ACTN    C2 2663   4.205   3.897   4.197
  267ACTN    C3 2664   4.152   3.932   4.065
  267ACTN    H1 2665   4.063   3.820   4.341
  267ACTN    H2 2666   4.052   3.993   4.305
  267ACTN    H3 2667   4.184   3.930   4.407
  267ACTN    H4 2668   4.121   3.839   4.019
  267ACTN    H5 2669   4.228   3.972   3.998
  267ACTN    H6 2670   4.068   4.000   4.069
  268ACTN    C1 2671   1.443   6.045   0.881
  268ACTN    O1 2672   1.322   6.238   0.957
  268ACTN    C2 2673   1.380   6.132   0.986
  268ACTN    C3 2674   1.421   6.120   1.126
  268ACTN    H1 2675   1.388   5.952   0.868
  268ACTN    H2 2676   1.545   6.024   0.910
  268ACTN    H3 2677   1.442   6.098   0.784
  268ACTN    H4 2678   1.345   6.058   1.174
  268ACTN    H5 2679   1.416   6.215   1.180
  268ACTN    H6 2680   1.518   6.076   1.140
  269ACTN    C1 2681   1.193   1.537   4.972
  269ACTN    O1 2682   0.960   1.488   5.006
  269ACTN    C2 2683   1.051   1.517   4.926
  269ACTN    C3 2684   1.023   1.486   4.786
  269ACTN    H1 2685   1.224   1.641   4.964
  269ACTN    H2 2686   1.258   1.476   4.911
  269ACTN    H3 2687   1.202   1.508   5.078
  269ACTN    H4 2688   0.993   1.581   4.740
  269ACTN    H5 2689   0.936   1.421   4.773
  269ACTN    H6 2690   1.107   1.444   4.732
  270ACTN    C1 2691   7.427   3.755   4.140
  270ACTN    O1 2692   7.431   3.884   3.938
  270ACTN    C2 2693   7.407   3.775   3.993
  270ACTN    C3 2694   7.319   3.685   3.917
  270ACTN    H1 2695   7.510   3.688   4.161
  270ACTN    H2 2696   7.336   3.713   4.182
  270ACTN    H3 2697   7.449   3.851   4.188
  270ACTN    H4 2698   7.385   3.613   3.868
  270ACTN    H5 2699   7.268   3.736   3.834
  270ACTN    H6 2700   7.246   3.634   3.977
  271ACTN    C1 2701   6.077   7.276   1.155
  271ACTN    O1 2702   6.309   7.329   1.124
  271ACTN    C2 2703   6.201   7.294   1.073
  271ACTN    C3 2704   6.193   7.313   0.928
  271ACTN    H1 2705   6.048   7.171   1.163
  271ACTN    H2 2706   5.997   7.332   1.108
  271ACTN    H3 2707   6.094   7.313   1.257
  271ACTN    H4 2708   6.212   7.216   0.883
  271ACTN    H5 2709   6.272   7.378   0.889
  271ACTN    H6 2710   6.097   7.350   0.894
  272ACTN    C1 2711   4.712   0.721   0.849
  272ACTN    O1 2712   4.561   0.903   0.886
  272ACTN    C2 2713   4.635   0.817   0.936
  272ACTN    C3 2714   4.677   0.842   1.074
  272ACTN    H1 2715   4.674   0.619   0.858
  272ACTN    H2 2716   4.816   0.723   0.879
  272ACTN    H3 2717   4.703   0.750   0.744
  272ACTN    H4 2718   4.613   0.780   1.136
  272ACTN    H5 2719   4.656   0.944   1.106
  272ACTN    H6 2720   4.780   0.818   1.094
  273ACTN    C1 2721   6.549   0.273   6.564
  273ACTN    O1 2722   6.755   0.215   6.456
  273ACTN    C2 2723   6.630   0.216   6.452
  273ACTN    C3 2724   6.573   0.201   6.318
  273ACTN    H1 2725   6.494   0.196   6.618
  273ACTN    H2 2726   6.478   0.344   6.523
  273ACTN    H3 2727   6.614   0.324   6.636
  273ACTN    H4 2728   6.543   0.097   6.310
  273ACTN    H5 2729   6.647   0.215   6.239
  273ACTN    H6 2730   6.488   0.265   6.299
  274ACTN    C1 2731   0.672   1.311   1.685
  274ACTN    O1 2732   0.844   1.476   1.659
  274ACTN    C2 2733   0.761   1.422   1.734
  274ACTN    C3 2734   0.784   1.441   1.877
  274ACTN    H1 2735   0.568   1.342   1.678
  274ACTN    H2 2736   0.680   1.228   1.755
  274ACTN    H3 2737   0.704   1.278   1.585
  274ACTN    H4 2738   0.717   1.520   1.908
  274ACTN    H5 2739   0.884   1.480   1.898
  274ACTN    H6 2740   0.766   1.353   1.937
  275ACTN    C1 2741   7.001   0.369   2.609
  275ACTN    O1 2742   6.999   0.582   2.499
  275ACTN    C2 2743   7.063   0.481   2.531
  275ACTN    C3 2744   7.186   0.459   2.454
  275ACTN    H1 2745   7.039   0.363   2.710
  275ACTN    H2 2746   7.021   0.276   2.557
  275ACTN    H3 2747   6.892   0.384   2.616
  275ACTN    H4 2748   7.268   0.495   2.516
  275ACTN    H5 2749   7.191   0.520   2.364
  275ACTN    H6 2750   7.204   0.355   2.428
  276ACTN    C1 2751   6.079   4.105   1.949
  276ACTN    O1 2752   6.179   4.312   1.880
  276ACTN    C2 2753   6.186   4.188   1.884
  276ACTN    C3 2754   6.279   4.129   1.787
  276ACTN    H1 2755   6.114   4.058   2.040
  276ACTN    H2 2756   6.049   4.028   1.878
  276ACTN    H3 2757   5.993   4.168   1.974
  276ACTN    H4 2758   6.370   4.107   1.843
  276ACTN    H5 2759   6.310   4.200   1.710
  276ACTN    H6 2760   6.242   4.039   1.741
  277ACTN    C1 2761   4.150   4.821   3.933
  277ACTN    O1 2762   3.957   4.686   3.979
  277ACTN    C2 2763   4.016   4.794   3.996
  277ACTN    C3 2764   3.932   4.905   4.042
  277ACTN    H1 2765   4.230   4.825   4.007
  277ACTN    H2 2766   4.145   4.916   3.881
  277ACTN    H3 2767   4.175   4.741   3.862
  277ACTN    H4 2768   3.948   4.913   4.149
  277ACTN    H5 2769   3.825   4.884   4.031
  277ACTN    H6 2770   3.954   5.000   3.995
  278ACTN    C1 2771   7.530   5.781   5.493
  278ACTN    O1 2772   7.704   5.618   5.529
  278ACTN    C2 2773   7.582   5.641   5.516
  278ACTN    C3 2774   7.501   5.525   5.480
  278ACTN    H1 2775   7.475   5.818   5.579
  278ACTN    H2 2776   7.465   5.779   5.407
  278ACTN    H3 2777   7.614   5.849   5.476
  278ACTN    H4 2778   7.454   5.491   5.572
  278ACTN    H5 2779   7.561   5.440   5.446
  278ACTN    H6 2780   7.424   5.546   5.406
  279ACTN    C1 2781   1.719   2.863   3.367
  279ACTN    O1 2782   1.764   3.097   3.342
  279ACTN    C2 2783   1.759   2.985   3.289
  279ACTN    C3 2784   1.750   2.986   3.142
  279ACTN    H1 2785   1.803   2.795   3.381
  279ACTN    H2 2786   1.641   2.812   3.312
  279ACTN    H3 2787   1.683   2.892   3.466
  279ACTN    H4 2788   1.851   2.966   3.106
  279ACTN    H5 2789   1.726   3.084   3.102
  279ACTN    H6 2790   1.682   2.912   3.102
  280ACTN    C1 2791   2.337   1.834   2.902
  280ACTN    O1 2792   2.319   1.730   3.117
  280ACTN    C2 2793   2.310   1.834   3.050
  280ACTN    C3 2794   2.232   1.941   3.112
  280ACTN    H1 2795   2.429   1.888   2.878
  280ACTN    H2 2796   2.254   1.882   2.852
  280ACTN    H3 2797   2.349   1.732   2.866
  280ACTN    H4 2798   2.305   2.010   3.155
  280ACTN    H5 2799   2.173   1.907   3.197
  280ACTN    H6 2800   2.168   1.994   3.043
  281ACTN    C1 2801   0.291   1.435   6.666
  281ACTN    O1 2802   0.490   1.305   6.698
  281ACTN    C2 2803   0.367   1.306   6.677
  281ACTN    C3 2804   0.312   1.182   6.623
  281ACTN    H1 2805   0.224   1.451   6.750
  281ACTN    H2 2806   0.232   1.432   6.574
  281ACTN    H3 2807   0.361   1.520   6.663
  281ACTN    H4 2808   0.268   1.129   6.707
  281ACTN    H5 2809   0.389   1.115   6.585
  281ACTN    H6 2810   0.238   1.197   6.546
  282ACTN    C1 2811   6.271   0.884   4.496
  282ACTN    O1 2812   6.095   0.725   4.538
  282ACTN    C2 2813   6.192   0.759   4.467
  282ACTN    C3 2814   6.251   0.651   4.387
  282ACTN    H1 2815   6.255   0.960   4.419
  282ACTN    H2 2816   6.376   0.858   4.500
  282ACTN    H3 2817   6.239   0.927   4.592
  282ACTN    H4 2818   6.211   0.664   4.286
  282ACTN    H5 2819   6.217   0.552   4.418
  282ACTN    H6 2820   6.359   0.652   4.383
  283ACTN    C1 2821   2.865   1.151   3.443
  283ACTN    O1 2822   3.006   1.130   3.250
  283ACTN    C2 2823   2.894   1.112   3.301
  283ACTN    C3 2824   2.784   1.094   3.205
  283ACTN    H1 2825   2.850   1.063   3.506
  283ACTN    H2 2826   2.775   1.212   3.444
  283ACTN    H3 2827   2.949   1.207   3.484
  283ACTN    H4 2828   2.766   0.987   3.199
  283ACTN    H5 2829   2.813   1.123   3.103
  283ACTN    H6 2830   2.693   1.145   3.232
  284ACTN    C1 2831   7.092   7.491   4.795
  284ACTN    O1 2832   7.083   7.729   4.819
  284ACTN    C2 2833   7.085   7.618   4.875
  284ACTN    C3 2834   7.123   7.619   5.016
  284ACTN    H1 2835   6.999   7.434   4.800
  284ACTN    H2 2836   7.173   7.430   4.834
  284ACTN    H3 2837   7.111   7.514   4.689
  284ACTN    H4 2838   7.030   7.613   5.073
  284ACTN    H5 2839   7.167   7.714   5.047
  284ACTN    H6 2840   7.188   7.538   5.045
  285ACTN    C1 2841   2.268   5.823   7.727
  285ACTN    O1 2842   2.062   5.705   7.764
  285ACTN    C2 2843   2.167   5.751   7.812
  285ACTN    C3 2844   2.166   5.768   7.958
  285ACTN    H1 2845   2.359   5.765   7.715
  285ACTN    H2 2846   2.291   5.917   7.775
  285ACTN    H3 2847   2.227   5.841   7.627
  285ACTN    H4 2848   2.218   5.682   7.999
  285ACTN    H5 2849   2.065   5.761   8.000
  285ACTN    H6 2850   2.213   5.859   7.992
  286ACTN    C1 2851   2.673   3.346   4.685
  286ACTN    O1 2852   2.480   3.412   4.812
  286ACTN    C2 2853   2.590   3.353   4.810
  286ACTN    C3 2854   2.651   3.332   4.941
  286ACTN    H1 2855   2.677   3.245   4.645
  286ACTN    H2 2856   2.774   3.379   4.709
  286ACTN    H3 2857   2.630   3.411   4.608
  286ACTN    H4 2858   2.630   3.228   4.968
  286ACTN    H5 2859   2.604   3.391   5.020
  286ACTN    H6 2860   2.758   3.348   4.944
  287ACTN    C1 2861   1.496   2.521   7.531
  287ACTN    O1 2862   1.339   2.417   7.382
  287ACTN    C2 2863   1.358   2.477   7.489
  287ACTN    C3 2864   1.239   2.539   7.548
  287ACTN    H1 2865   1.532   2.465   7.617
  287ACTN    H2 2866   1.491   2.626   7.558
  287ACTN    H3 2867   1.567   2.507   7.449
  287ACTN    H4 2868   1.205   2.471   7.626
  287ACTN    H5 2869   1.156   2.545   7.477
  287ACTN    H6 2870   1.257   2.637   7.590
  288ACTN    C1 2871   7.681   6.499   2.598
  288ACTN    O1 2872   7.453   6.456   2.535
  288ACTN    C2 2873   7.534   6.531   2.592
  288ACTN    C3 2874   7.487   6.668   2.613
  288ACTN    H1 2875   7.713   6.474   2.698
  288ACTN    H2 2876   7.736   6.586   2.563
  288ACTN    H3 2877   7.703   6.413   2.533
  288ACTN    H4 2878   7.454   6.674   2.717
  288ACTN    H5 2879   7.398   6.691   2.555
  288ACTN    H6 2880   7.562   6.744   2.595
  289ACTN    C1 2881   1.523   6.011   7.182
  289ACTN    O1 2882   1.312   6.113   7.128
  289ACTN    C2 2883   1.409   6.045   7.090
  289ACTN    C3 2884   1.386   5.967   6.969
  289ACTN    H1 2885   1.615   6.063   7.155
  289ACTN    H2 2886   1.540   5.904   7.177
  289ACTN    H3 2887   1.498   6.041   7.285
  289ACTN    H4 2888   1.430   6.023   6.887
  289ACTN    H5 2889   1.280   5.960   6.943
  289ACTN    H6 2890   1.428   5.867   6.971
  290ACTN    C1 2891   2.448   2.862   3.734
  290ACTN    O1 2892   2.605   3.043   3.753
  290ACTN    C2 2893   2.554   2.942   3.805
  290ACTN    C3 2894   2.630   2.883   3.915
  290ACTN    H1 2895   2.351   2.872   3.781
  290ACTN    H2 2896   2.477   2.758   3.735
  290ACTN    H3 2897   2.438   2.897   3.630
  290ACTN    H4 2898   2.584   2.918   4.007
  290ACTN    H5 2899   2.733   2.921   3.920
  290ACTN    H6 2900   2.632   2.775   3.914
  291ACTN    C1 2901   0.704   1.264   7.353
  291ACTN    O1 2902   0.567   1.405   7.491
  291ACTN    C2 2903   0.668   1.395   7.418
  291ACTN    C3 2904   0.720   1.521   7.366
  291ACTN    H1 2905   0.794   1.221   7.395
  291ACTN    H2 2906   0.720   1.283   7.247
  291ACTN    H3 2907   0.623   1.191   7.366
  291ACTN    H4 2908   0.805   1.547   7.430
  291ACTN    H5 2909   0.650   1.604   7.379
  291ACTN    H6 2910   0.752   1.517   7.263
  292ACTN    C1 2911   7.193   7.307   3.520
  292ACTN    O1 2912   7.001   7.448   3.496
  292ACTN    C2 2913   7.046   7.334   3.520
  292ACTN    C3 2914   6.953   7.244   3.588
  292ACTN    H1 2915   7.224   7.245   3.437
  292ACTN    H2 2916   7.218   7.256   3.613
  292ACTN    H3 2917   7.249   7.401   3.513
  292ACTN    H4 2918   6.911   7.179   3.510
  292ACTN    H5 2919   6.866   7.296   3.629
  292ACTN    H6 2920   6.998   7.183   3.665
  293ACTN    C1 2921   6.349   0.395   0.967
  293ACTN    O1 2922   6.471   0.600   0.995
  293ACTN    C2 2923   6.391   0.534   0.926
  293ACTN    C3 2924   6.310   0.612   0.833
  293ACTN    H1 2925   6.388   0.319   0.899
  293ACTN    H2 2926   6.240   0.391   0.965
  293ACTN    H3 2927   6.386   0.373   1.067
  293ACTN    H4 2928   6.357   0.601   0.735
  293ACTN    H5 2929   6.314   0.720   0.854
  293ACTN    H6 2930   6.206   0.581   0.827
  294ACTN    C1 2931   3.093   2.624   7.511
  294ACTN    O1 2932   3.109   2.401   7.599
  294ACTN    C2 2933   3.063   2.516   7.611
  294ACTN    C3 2934   2.947   2.527   7.701
  294ACTN    H1 2935   3.157   2.701   7.552
  294ACTN    H2 2936   2.999   2.668   7.480
  294ACTN    H3 2937   3.144   2.581   7.424
  294ACTN    H4 2938   2.986   2.564   7.795
  294ACTN    H5 2939   2.903   2.430   7.725
  294ACTN    H6 2940   2.870   2.594   7.665
  295ACTN    C1 2941   4.434   3.489   6.284
  295ACTN    O1 2942   4.616   3.571   6.152
  295ACTN    C2 2943   4.533   3.481   6.171
  295ACTN    C3 2944   4.508   3.394   6.057
  295ACTN    H1 2945   4.454   3.415   6.361
  295ACTN    H2 2946   4.334   3.472   6.244
  295ACTN    H3 2947   4.438   3.588   6.332
  295ACTN    H4 2948   4.566   3.303   6.075
  295ACTN    H5 2949   4.548   3.434   5.963
  295ACTN    H6 2950   4.404   3.368   6.042
  296ACTN    C1 2951   2.251   2.675   4.637
  296ACTN    O1 2952   2.388   2.733   4.449
  296ACTN    C2 2953   2.378   2.724   4.572
  296ACTN    C3 2954   2.504   2.723   4.646
  296ACTN    H1 2955   2.199   2.754   4.690
  296ACTN    H2 2956   2.278   2.596   4.707
  296ACTN    H3 2957   2.183   2.635   4.561
  296ACTN    H4 2958   2.519   2.824   4.683
  296ACTN    H5 2959   2.591   2.705   4.580
  296ACTN    H6 2960   2.507   2.653   4.728
  297ACTN    C1 2961   3.583   4.969   2.822
  297ACTN    O1 2962   3.638   4.964   2.589
  297ACTN    C2 2963   3.677   4.952   2.706
  297ACTN    C3 2964   3.803   4.879   2.723
  297ACTN    H1 2965   3.605   5.060   2.879
  297ACTN    H2 2966   3.593   4.883   2.888
  297ACTN    H3 2967   3.480   4.977   2.786
  297ACTN    H4 2968   3.880   4.955   2.736
  297ACTN    H5 2969   3.833   4.825   2.632
  297ACTN    H6 2970   3.804   4.811   2.807
  298ACTN    C1 2971   3.220   7.139   6.706
  298ACTN    O1 2972   3.171   7.212   6.929
  298ACTN    C2 2973   3.234   7.231   6.824
  298ACTN    C3 2974   3.287   7.367   6.807
  298ACTN    H1 2975   3.310   7.081   6.688
  298ACTN    H2 2976   3.199   7.200   6.618
  298ACTN    H3 2977   3.138   7.069   6.723
  298ACTN    H4 2978   3.392   7.363   6.834
  298ACTN    H5 2979   3.243   7.438   6.877
  298ACTN    H6 2980   3.277   7.406   6.706
  299ACTN    C1 2981   3.213   5.228   3.147
  299ACTN    O1 2982   3.164   5.375   2.964
  299ACTN    C2 2983   3.121   5.300   3.053
  299ACTN    C3 2984   2.980   5.319   3.087
  299ACTN    H1 2985   3.215   5.121   3.129
  299ACTN    H2 2986   3.180   5.247   3.248
  299ACTN    H3 2987   3.316   5.265   3.134
  299ACTN    H4 2988   2.925   5.241   3.035
  299ACTN    H5 2989   2.939   5.412   3.048
  299ACTN    H6 2990   2.959   5.313   3.193
  300ACTN    C1 2991   5.334   3.395   4.240
  300ACTN    O1 2992   5.157   3.236   4.212
  300ACTN    C2 2993   5.229   3.324   4.161
  300ACTN    C3 2994   5.235   3.322   4.014
  300ACTN    H1 2995   5.309   3.499   4.258
  300ACTN    H2 2996   5.428   3.390   4.185
  300ACTN    H3 2997   5.346   3.347   4.338
  300ACTN    H4 2998   5.166   3.400   3.980
  300ACTN    H5 2999   5.195   3.230   3.971
  300ACTN    H6 3000   5.333   3.341   3.974
  301ACTN    C1 3001   4.604   7.799   4.386
  301ACTN    O1 3002   4.397   7.919   4.410
  301ACTN    C2 3003   4.496   7.868   4.465
  301ACTN    C3 3004   4.523   7.917   4.601
  301ACTN    H1 3005   4.605   7.692   4.403
  301ACTN    H2 3006   4.700   7.841   4.415
  301ACTN    H3 3007   4.588   7.815   4.279
  301ACTN    H4 3008   4.484   7.841   4.668
  301ACTN    H5 3009   4.467   8.008   4.624
  301ACTN    H6 3010   4.628   7.933   4.622
  302ACTN    C1 3011   2.837   5.777   1.873
  302ACTN    O1 3012   2.979   5.967   1.840
  302ACTN    C2 3013   2.915   5.873   1.789
  302ACTN    C3 3014   2.886   5.888   1.646
  302ACTN    H1 3015   2.882   5.677   1.874
  302ACTN    H2 3016   2.736   5.770   1.833
  302ACTN    H3 3017   2.833   5.812   1.977
  302ACTN    H4 3018   2.960   5.828   1.594
  302ACTN    H5 3019   2.903   5.990   1.610
  302ACTN    H6 3020   2.787   5.856   1.618
  303ACTN    C1 3021   4.293   2.613   0.598
  303ACTN    O1 3022   4.330   2.705   0.816
  303ACTN    C2 3023   4.269   2.712   0.708
  303ACTN    C3 3024   4.147   2.793   0.710
  303ACTN    H1 3025   4.344   2.657   0.513
  303ACTN    H2 3026   4.197   2.574   0.566
  303ACTN    H3 3027   4.356   2.530   0.635
  303ACTN    H4 3028   4.174   2.890   0.668
  303ACTN    H5 3029   4.114   2.816   0.812
  303ACTN    H6 3030   4.065   2.751   0.654
  304ACTN    C1 3031   2.316   3.476   4.302
  304ACTN    O1 3032   2.126   3.596   4.385
  304ACTN    C2 3033   2.223   3.523   4.410
  304ACTN    C3 3034   2.264   3.520   4.551
  304ACTN    H1 3035   2.306   3.369   4.283
  304ACTN    H2 3036   2.418   3.497   4.334
  304ACTN    H3 3037   2.294   3.529   4.209
  304ACTN    H4 3038   2.221   3.430   4.594
  304ACTN    H5 3039   2.220   3.602   4.609
  304ACTN    H6 3040   2.371   3.520   4.565
  305ACTN    C1 3041   7.133   0.050   0.458
  305ACTN    O1 3042   7.177   0.285   0.431
  305ACTN    C2 3043   7.099   0.196   0.471
  305ACTN    C3 3044   6.997   0.241   0.566
  305ACTN    H1 3045   7.070   0.000   0.385
  305ACTN    H2 3046   7.118   0.004   0.555
  305ACTN    H3 3047   7.237   0.038   0.426
  305ACTN    H4 3048   6.906   0.255   0.509
  305ACTN    H5 3049   7.019   0.340   0.607
  305ACTN    H6 3050   6.979   0.172   0.647
  306ACTN    C1 3051   5.444   5.275   1.247
  306ACTN    O1 3052   5.668   5.200   1.201
  306ACTN    C2 3053   5.554   5.227   1.157
  306ACTN    C3 3054   5.548   5.249   1.012
  306ACTN    H1 3055   5.365   5.201   1.258
  306ACTN    H2 3056   5.402   5.365   1.204
  306ACTN    H3 3057   5.484   5.297   1.347
  306ACTN    H4 3058   5.511   5.157   0.968
  306ACTN    H5 3059   5.647   5.264   0.968
  306ACTN    H6 3060   5.484   5.332   0.983
  307ACTN    C1 3061   0.714   3.503   7.594
  307ACTN    O1 3062   0.560   3.450   7.418
  307ACTN    C2 3063   0.631   3.536   7.473
  307ACTN    C3 3064   0.662   3.652   7.390
  307ACTN    H1 3065   0.676   3.553   7.683
  307ACTN    H2 3066   0.816   3.537   7.575
  307ACTN    H3 3067   0.713   3.395   7.612
  307ACTN    H4 3068   0.593   3.731   7.421
  307ACTN    H5 3069   0.638   3.636   7.284
  307ACTN    H6 3070   0.764   3.687   7.399
  308ACTN    C1 3071   6.820   2.601   4.109
  308ACTN    O1 3072   6.653   2.771   4.137
  308ACTN    C2 3073   6.727   2.709   4.060
  308ACTN    C3 3074   6.689   2.715   3.918
  308ACTN    H1 3075   6.925   2.632   4.102
  308ACTN    H2 3076   6.805   2.513   4.048
  308ACTN    H3 3077   6.800   2.579   4.214
  308ACTN    H4 3078   6.753   2.790   3.873
  308ACTN    H5 3079   6.587   2.752   3.904
  308ACTN    H6 3080   6.699   2.621   3.866
  309ACTN    C1 3081   3.190   6.243   0.428
  309ACTN    O1 3082   3.130   6.471   0.380
  309ACTN    C2 3083   3.147   6.382   0.466
  309ACTN    C3 3084   3.165   6.430   0.603
  309ACTN    H1 3085   3.110   6.170   0.443
  309ACTN    H2 3086   3.275   6.215   0.488
  309ACTN    H3 3087   3.217   6.240   0.321
  309ACTN    H4 3088   3.069   6.419   0.652
  309ACTN    H5 3089   3.186   6.537   0.607
  309ACTN    H6 3090   3.241   6.377   0.659
  310ACTN    C1 3091   0.937   7.303   0.093
  310ACTN    O1 3092   0.899   7.068   0.116
  310ACTN    C2 3093   0.941   7.173   0.167
  310ACTN    C3 3094   0.953   7.171   0.313
  310ACTN    H1 3095   1.036   7.338   0.065
  310ACTN    H2 3096   0.889   7.378   0.156
  310ACTN    H3 3097   0.879   7.292  -0.000
  310ACTN    H4 3098   1.058   7.153   0.335
  310ACTN    H5 3099   0.901   7.086   0.358
  310ACTN    H6 3100   0.921   7.262   0.361
  311ACTN    C1 3101   3.072   3.302   4.090
  311ACTN    O1 3102   3.126   3.070   4.064
  311ACTN    C2 3103   3.102   3.179   4.009
  311ACTN    C3 3104   3.148   3.191   3.871
  311ACTN    H1 3105   2.968   3.333   4.079
  311ACTN    H2 3106   3.136   3.382   4.056
  311ACTN    H3 3107   3.089   3.283   4.196
  311ACTN    H4 3108   3.060   3.174   3.808
  311ACTN    H5 3109   3.217   3.111   3.842
  311ACTN    H6 3110   3.192   3.287   3.846
  312ACTN    C1 3111   2.846   5.055   4.095
  312ACTN    O1 3112   2.612   5.100   4.118
  312ACTN    C2 3113   2.728   5.133   4.146
  312ACTN    C3 3114   2.744   5.271   4.191
  312ACTN    H1 3115   2.897   5.001   4.176
  312ACTN    H2 3116   2.916   5.124   4.049
  312ACTN    H3 3117   2.813   4.980   4.022
  312ACTN    H4 3118   2.750   5.266   4.300
  312ACTN    H5 3119   2.656   5.332   4.171
  312ACTN    H6 3120   2.832   5.320   4.152
  313ACTN    C1 3121   6.458   4.277   4.879
  313ACTN    O1 3122   6.661   4.157   4.927
  313ACTN    C2 3123   6.606   4.253   4.870
  313ACTN    C3 3124   6.697   4.362   4.832
  313ACTN    H1 3125   6.408   4.259   4.784
  313ACTN    H2 3126   6.442   4.380   4.909
  313ACTN    H3 3127   6.414   4.209   4.953
  313ACTN    H4 3128   6.718   4.349   4.726
  313ACTN    H5 3129   6.794   4.355   4.881
  313ACTN    H6 3130   6.656   4.461   4.849
  314ACTN    C1 3131   0.950   5.460   0.988
  314ACTN    O1 3132   1.078   5.265   0.931
  314ACTN    C2 3133   0.966   5.319   0.939
  314ACTN    C3 3134   0.862   5.255   0.858
  314ACTN    H1 3135   0.901   5.464   1.085
  314ACTN    H2 3136   0.891   5.515   0.915
  314ACTN    H3 3137   1.049   5.507   0.999
  314ACTN    H4 3138   0.804   5.194   0.927
  314ACTN    H5 3139   0.902   5.185   0.785
  314ACTN    H6 3140   0.796   5.325   0.808
  315ACTN    C1 3141   0.529   7.359   4.694
  315ACTN    O1 3142   0.594   7.168   4.564
  315ACTN    C2 3143   0.598   7.227   4.674
  315ACTN    C3 3144   0.634   7.143   4.788
  315ACTN    H1 3145   0.600   7.440   4.707
  315ACTN    H2 3146   0.468   7.351   4.784
  315ACTN    H3 3147   0.466   7.382   4.608
  315ACTN    H4 3148   0.740   7.162   4.807
  315ACTN    H5 3149   0.629   7.036   4.765
  315ACTN    H6 3150   0.577   7.163   4.877
  316ACTN    C1 3151   2.745   5.921   6.070
  316ACTN    O1 3152   2.826   5.953   6.294
  316ACTN    C2 3153   2.781   6.004   6.190
  316ACTN    C3 3154   2.725   6.138   6.207
  316ACTN    H1 3155   2.814   5.938   5.987
  316ACTN    H2 3156   2.645   5.946   6.039
  316ACTN    H3 3157   2.751   5.814   6.095
  316ACTN    H4 3158   2.802   6.208   6.173
  316ACTN    H5 3159   2.708   6.165   6.312
  316ACTN    H6 3160   2.633   6.155   6.151
  317ACTN    C1 3161   4.191   4.660   6.628
  317ACTN    O1 3162   4.020   4.780   6.508
  317ACTN    C2 3163   4.094   4.680   6.515
  317ACTN    C3 3164   4.051   4.565   6.434
  317ACTN    H1 3165   4.294   4.670   6.595
  317ACTN    H2 3166   4.176   4.561   6.669
  317ACTN    H3 3167   4.174   4.736   6.705
  317ACTN    H4 3168   4.111   4.568   6.343
  317ACTN    H5 3169   3.948   4.576   6.398
  317ACTN    H6 3170   4.062   4.470   6.482
  318ACTN    C1 3171   6.362   4.226   2.680
  318ACTN    O1 3172   6.185   4.382   2.639
  318ACTN    C2 3173   6.238   4.301   2.717
  318ACTN    C3 3174   6.199   4.315   2.858
  318ACTN    H1 3175   6.343   4.120   2.664
  318ACTN    H2 3176   6.435   4.238   2.760
  318ACTN    H3 3177   6.403   4.266   2.586
  318ACTN    H4 3178   6.123   4.239   2.876
  318ACTN    H5 3179   6.148   4.410   2.878
  318ACTN    H6 3180   6.280   4.303   2.928
  319ACTN    C1 3181   2.704   2.901   5.418
  319ACTN    O1 3182   2.863   3.081   5.423
  319ACTN    C2 3183   2.762   3.030   5.370
  319ACTN    C3 3184   2.681   3.123   5.290
  319ACTN    H1 3185   2.718   2.820   5.346
  319ACTN    H2 3186   2.598   2.915   5.435
  319ACTN    H3 3187   2.753   2.870   5.512
  319ACTN    H4 3188   2.709   3.106   5.186
  319ACTN    H5 3189   2.707   3.228   5.308
  319ACTN    H6 3190   2.575   3.110   5.302
  320ACTN    C1 3191   5.248   3.579   2.580
  320ACTN    O1 3192   5.054   3.536   2.447
  320ACTN    C2 3193   5.111   3.523   2.556
  320ACTN    C3 3194   5.024   3.489   2.669
  320ACTN    H1 3195   5.324   3.501   2.590
  320ACTN    H2 3196   5.246   3.638   2.672
  320ACTN    H3 3197   5.278   3.643   2.496
  320ACTN    H4 3198   5.034   3.382   2.684
  320ACTN    H5 3199   4.918   3.504   2.645
  320ACTN    H6 3200   5.048   3.541   2.760
  321ACTN    C1 3201   0.905   7.341   3.694
  321ACTN    O1 3202   0.837   7.113   3.664
  321ACTN    C2 3203   0.845   7.227   3.616
  321ACTN    C3 3204   0.834   7.235   3.470
  321ACTN    H1 3205   0.830   7.414   3.724
  321ACTN    H2 3206   0.980   7.389   3.632
  321ACTN    H3 3207   0.951   7.303   3.786
  321ACTN    H4 3208   0.732   7.265   3.449
  321ACTN    H5 3209   0.845   7.137   3.422
  321ACTN    H6 3210   0.903   7.305   3.424
  322ACTN    C1 3211   7.896   1.191   2.939
  322ACTN    O1 3212   8.000   1.358   2.802
  322ACTN    C2 3213   7.895   1.311   2.849
  322ACTN    C3 3214   7.781   1.403   2.849
  322ACTN    H1 3215   7.852   1.104   2.891
  322ACTN    H2 3216   7.840   1.215   3.029
  322ACTN    H3 3217   8.000   1.165   2.966
  322ACTN    H4 3218   7.720   1.375   2.763
  322ACTN    H5 3219   7.810   1.507   2.830
  322ACTN    H6 3220   7.721   1.399   2.939
  323ACTN    C1 3221   1.326   7.651   4.318
  323ACTN    O1 3222   1.134   7.794   4.342
  323ACTN    C2 3223   1.219   7.721   4.397
  323ACTN    C3 3224   1.235   7.743   4.541
  323ACTN    H1 3225   1.311   7.543   4.316
  323ACTN    H2 3226   1.422   7.673   4.363
  323ACTN    H3 3227   1.325   7.686   4.214
  323ACTN    H4 3228   1.179   7.664   4.590
  323ACTN    H5 3229   1.188   7.836   4.575
  323ACTN    H6 3230   1.338   7.740   4.575
  324ACTN    C1 3231   0.913   0.354   0.372
  324ACTN    O1 3232   0.941   0.587   0.423
  324ACTN    C2 3233   0.939   0.470   0.464
  324ACTN    C3 3234   1.004   0.448   0.594
  324ACTN    H1 3235   0.816   0.308   0.391
  324ACTN    H2 3236   0.991   0.280   0.386
  324ACTN    H3 3237   0.913   0.389   0.268
  324ACTN    H4 3238   0.925   0.445   0.668
  324ACTN    H5 3239   1.066   0.533   0.624
  324ACTN    H6 3240   1.063   0.357   0.599
  325ACTN    C1 3241   6.672   0.500   0.699
  325ACTN    O1 3242   6.825   0.315   0.706
  325ACTN    C2 3243   6.775   0.413   0.764
  325ACTN    C3 3244   6.791   0.412   0.910
  325ACTN    H1 3245   6.710   0.599   0.676
  325ACTN    H2 3246   6.588   0.509   0.767
  325ACTN    H3 3247   6.639   0.454   0.605
  325ACTN    H4 3248   6.875   0.478   0.932
  325ACTN    H5 3249   6.822   0.315   0.949
  325ACTN    H6 3250   6.703   0.445   0.964
  326ACTN    C1 3251   7.441   0.851   1.375
  326ACTN    O1 3252   7.205   0.888   1.393
  326ACTN    C2 3253   7.314   0.873   1.451
  326ACTN    C3 3254   7.317   0.920   1.590
  326ACTN    H1 3255   7.479   0.750   1.387
  326ACTN    H2 3256   7.515   0.922   1.411
  326ACTN    H3 3257   7.424   0.867   1.267
  326ACTN    H4 3258   7.305   0.832   1.652
  326ACTN    H5 3259   7.232   0.984   1.615
  326ACTN    H6 3260   7.409   0.971   1.617
  327ACTN    C1 3261   5.087   2.743   5.598
  327ACTN    O1 3262   4.952   2.800   5.788
  327ACTN    C2 3263   4.974   2.815   5.667
  327ACTN    C3 3264   4.862   2.869   5.589
  327ACTN    H1 3265   5.167   2.811   5.569
  327ACTN    H2 3266   5.047   2.694   5.510
  327ACTN    H3 3267   5.131   2.668   5.666
  327ACTN    H4 3268   4.883   2.975   5.576
  327ACTN    H5 3269   4.768   2.866   5.644
  327ACTN    H6 3270   4.849   2.823   5.492
  328ACTN    C1 3271   6.573   2.389   5.010
  328ACTN    O1 3272   6.706   2.465   5.195
  328ACTN    C2 3273   6.684   2.469   5.073
  328ACTN    C3 3274   6.741   2.584   5.003
  328ACTN    H1 3275   6.611   2.308   4.948
  328ACTN    H2 3276   6.514   2.456   4.948
  328ACTN    H3 3277   6.510   2.345   5.088
  328ACTN    H4 3278   6.833   2.549   4.956
  328ACTN    H5 3279   6.774   2.663   5.072
  328ACTN    H6 3280   6.677   2.627   4.928
  329ACTN    C1 3281   2.295   6.621   3.808
  329ACTN    O1 3282   2.244   6.851   3.854
  329ACTN    C2 3283   2.212   6.745   3.796
  329ACTN    C3 3284   2.072   6.737   3.756
  329ACTN    H1 3285   2.345   6.596   3.714
  329ACTN    H2 3286   2.230   6.539   3.837
  329ACTN    H3 3287   2.374   6.635   3.884
  329ACTN    H4 3288   2.069   6.761   3.649
  329ACTN    H5 3289   2.010   6.814   3.802
  329ACTN    H6 3290   2.026   6.640   3.772
  330ACTN    C1 3291   4.093   2.428   2.599
  330ACTN    O1 3292   4.080   2.205   2.689
  330ACTN    C2 3293   4.096   2.327   2.711
  330ACTN    C3 3294   4.073   2.368   2.849
  330ACTN    H1 3295   4.191   2.471   2.582
  330ACTN    H2 3296   4.024   2.506   2.626
  330ACTN    H3 3297   4.061   2.379   2.506
  330ACTN    H4 3298   4.171   2.378   2.895
  330ACTN    H5 3299   4.022   2.292   2.909
  330ACTN    H6 3300   4.019   2.462   2.859
  331ACTN    C1 3301   4.744   4.273   2.122
  331ACTN    O1 3302   4.836   4.051   2.113
  331ACTN    C2 3303   4.788   4.148   2.051
  331ACTN    C3 3304   4.818   4.150   1.907
  331ACTN    H1 3305   4.636   4.284   2.120
  331ACTN    H2 3306   4.790   4.358   2.073
  331ACTN    H3 3307   4.775   4.269   2.227
  331ACTN    H4 3308   4.729   4.112   1.858
  331ACTN    H5 3309   4.897   4.081   1.880
  331ACTN    H6 3310   4.841   4.248   1.869
  332ACTN    C1 3311   7.155   5.576   2.784
  332ACTN    O1 3312   7.392   5.543   2.795
  332ACTN    C2 3313   7.290   5.549   2.724
  332ACTN    C3 3314   7.314   5.573   2.582
  332ACTN    H1 3315   7.090   5.489   2.779
  332ACTN    H2 3316   7.109   5.658   2.730
  332ACTN    H3 3317   7.166   5.603   2.890
  332ACTN    H4 3318   7.306   5.476   2.533
  332ACTN    H5 3319   7.417   5.606   2.561
  332ACTN    H6 3320   7.245   5.643   2.536
  333ACTN    C1 3321   2.524   3.450   2.022
  333ACTN    O1 3322   2.368   3.470   1.841
  333ACTN    C2 3323   2.386   3.463   1.963
  333ACTN    C3 3324   2.274   3.510   2.046
  333ACTN    H1 3325   2.540   3.352   2.066
  333ACTN    H2 3326   2.535   3.526   2.099
  333ACTN    H3 3327   2.599   3.464   1.943
  333ACTN    H4 3328   2.220   3.421   2.078
  333ACTN    H5 3329   2.201   3.567   1.988
  333ACTN    H6 3330   2.304   3.567   2.132
  334ACTN    C1 3331   1.964   5.621   0.465
  334ACTN    O1 3332   2.054   5.402   0.497
  334ACTN    C2 3333   2.022   5.511   0.548
  334ACTN    C3 3334   2.004   5.509   0.693
  334ACTN    H1 3335   2.033   5.705   0.454
  334ACTN    H2 3336   1.873   5.656   0.513
  334ACTN    H3 3337   1.941   5.585   0.364
  334ACTN    H4 3338   2.096   5.549   0.736
  334ACTN    H5 3339   1.997   5.407   0.734
  334ACTN    H6 3340   1.919   5.567   0.728
  335ACTN    C1 3341   6.021   0.489   0.588
  335ACTN    O1 3342   5.952   0.264   0.539
  335ACTN    C2 3343   5.992   0.374   0.496
  335ACTN    C3 3344   6.051   0.370   0.362
  335ACTN    H1 3345   5.949   0.570   0.575
  335ACTN    H2 3346   6.120   0.526   0.566
  335ACTN    H3 3347   6.015   0.456   0.692
  335ACTN    H4 3348   5.974   0.405   0.294
  335ACTN    H5 3349   6.073   0.268   0.328
  335ACTN    H6 3350   6.140   0.430   0.350
  336ACTN    C1 3351   2.767   7.269   6.124
  336ACTN    O1 3352   2.970   7.292   6.251
  336ACTN    C2 3353   2.857   7.337   6.224
  336ACTN    C3 3354   2.801   7.429   6.324
  336ACTN    H1 3355   2.755   7.329   6.034
  336ACTN    H2 3356   2.670   7.255   6.170
  336ACTN    H3 3357   2.809   7.173   6.095
  336ACTN    H4 3358   2.819   7.530   6.285
  336ACTN    H5 3359   2.856   7.427   6.418
  336ACTN    H6 3360   2.696   7.415   6.343
  337ACTN    C1 3361   3.772   7.552   0.495
  337ACTN    O1 3362   3.641   7.630   0.310
  337ACTN    C2 3363   3.754   7.617   0.361
  337ACTN    C3 3364   3.866   7.627   0.267
  337ACTN    H1 3365   3.803   7.624   0.571
  337ACTN    H2 3366   3.848   7.475   0.486
  337ACTN    H3 3367   3.678   7.508   0.529
  337ACTN    H4 3368   3.905   7.728   0.278
  337ACTN    H5 3369   3.834   7.620   0.163
  337ACTN    H6 3370   3.945   7.555   0.285
  338ACTN    C1 3371   1.012   0.750   6.245
  338ACTN    O1 3372   1.127   0.779   6.036
  338ACTN    C2 3373   1.057   0.706   6.109
  338ACTN    C3 3374   0.986   0.599   6.038
  338ACTN    H1 3375   1.061   0.693   6.324
  338ACTN    H2 3376   0.905   0.736   6.252
  338ACTN    H3 3377   1.037   0.856   6.261
  338ACTN    H4 3378   1.045   0.508   6.054
  338ACTN    H5 3379   0.986   0.613   5.930
  338ACTN    H6 3380   0.885   0.583   6.072
  339ACTN    C1 3381   2.704   0.537   5.440
  339ACTN    O1 3382   2.518   0.596   5.580
  339ACTN    C2 3383   2.568   0.515   5.500
  339ACTN    C3 3384   2.509   0.381   5.501
  339ACTN    H1 3385   2.699   0.560   5.334
  339ACTN    H2 3386   2.763   0.447   5.454
  339ACTN    H3 3387   2.753   0.622   5.489
  339ACTN    H4 3388   2.440   0.377   5.417
  339ACTN    H5 3389   2.446   0.364   5.589
  339ACTN    H6 3390   2.581   0.301   5.493
  340ACTN    C1 3391   7.700   4.255   5.958
  340ACTN    O1 3392   7.795   4.057   5.861
  340ACTN    C2 3393   7.697   4.111   5.915
  340ACTN    C3 3394   7.569   4.043   5.893
  340ACTN    H1 3395   7.699   4.264   6.067
  340ACTN    H2 3396   7.613   4.305   5.918
  340ACTN    H3 3397   7.792   4.303   5.922
  340ACTN    H4 3398   7.550   3.985   5.984
  340ACTN    H5 3399   7.574   3.968   5.813
  340ACTN    H6 3400   7.486   4.109   5.874
  341ACTN    C1 3401   6.259   1.682   4.288
  341ACTN    O1 3402   6.233   1.468   4.393
  341ACTN    C2 3403   6.286   1.580   4.395
  341ACTN    C3 3404   6.339   1.621   4.525
  341ACTN    H1 3405   6.346   1.700   4.225
  341ACTN    H2 3406   6.231   1.775   4.336
  341ACTN    H3 3407   6.178   1.648   4.223
  341ACTN    H4 3408   6.447   1.603   4.522
  341ACTN    H5 3409   6.304   1.558   4.607
  341ACTN    H6 3410   6.321   1.725   4.550
  342ACTN    C1 3411   1.393   3.637   1.034
  342ACTN    O1 3412   1.456   3.760   0.838
  342ACTN    C2 3413   1.458   3.752   0.962
  342ACTN    C3 3414   1.562   3.832   1.028
  342ACTN    H1 3415   1.305   3.669   1.090
  342ACTN    H2 3416   1.466   3.595   1.103
  342ACTN    H3 3417   1.361   3.561   0.962
  342ACTN    H4 3418   1.511   3.922   1.065
  342ACTN    H5 3419   1.637   3.870   0.958
  342ACTN    H6 3420   1.611   3.783   1.110
  343ACTN    C1 3421   5.099   1.944   1.933
  343ACTN    O1 3422   5.319   1.989   1.847
  343ACTN    C2 3423   5.202   1.952   1.824
  343ACTN    C3 3424   5.162   1.958   1.683
  343ACTN    H1 3425   5.073   1.842   1.957
  343ACTN    H2 3426   5.011   1.997   1.900
  343ACTN    H3 3427   5.138   1.990   2.025
  343ACTN    H4 3428   5.171   1.856   1.645
  343ACTN    H5 3429   5.231   2.016   1.622
  343ACTN    H6 3430   5.061   1.993   1.668
  344ACTN    C1 3431   3.371   4.521   4.822
  344ACTN    O1 3432   3.611   4.510   4.808
  344ACTN    C2 3433   3.501   4.506   4.749
  344ACTN    C3 3434   3.508   4.529   4.604
  344ACTN    H1 3435   3.315   4.428   4.825
  344ACTN    H2 3436   3.312   4.597   4.772
  344ACTN    H3 3437   3.390   4.551   4.926
  344ACTN    H4 3438   3.504   4.431   4.558
  344ACTN    H5 3439   3.605   4.570   4.573
  344ACTN    H6 3440   3.429   4.591   4.565
  345ACTN    C1 3441   6.424   5.647   1.675
  345ACTN    O1 3442   6.207   5.545   1.668
  345ACTN    C2 3443   6.293   5.613   1.609
  345ACTN    C3 3444   6.280   5.619   1.463
  345ACTN    H1 3445   6.432   5.753   1.698
  345ACTN    H2 3446   6.505   5.619   1.607
  345ACTN    H3 3447   6.435   5.591   1.769
  345ACTN    H4 3448   6.232   5.714   1.441
  345ACTN    H5 3449   6.210   5.544   1.425
  345ACTN    H6 3450   6.373   5.611   1.410
  346ACTN    C1 3451   6.400   2.711   2.305
  346ACTN    O1 3452   6.247   2.636   2.475
  346ACTN    C2 3453   6.265   2.668   2.356
  346ACTN    C3 3454   6.162   2.621   2.263
  346ACTN    H1 3455   6.402   2.817   2.280
  346ACTN    H2 3456   6.423   2.654   2.217
  346ACTN    H3 3457   6.476   2.694   2.382
  346ACTN    H4 3458   6.096   2.706   2.246
  346ACTN    H5 3459   6.098   2.544   2.307
  346ACTN    H6 3460   6.201   2.586   2.168
  347ACTN    C1 3461   5.319   4.091   6.676
  347ACTN    O1 3462   5.160   3.968   6.546
  347ACTN    C2 3463   5.197   4.005   6.659
  347ACTN    C3 3464   5.095   3.999   6.764
  347ACTN    H1 3465   5.400   4.037   6.725
  347ACTN    H2 3466   5.293   4.177   6.737
  347ACTN    H3 3467   5.356   4.125   6.578
  347ACTN    H4 3468   5.115   3.908   6.820
  347ACTN    H5 3469   4.994   3.986   6.723
  347ACTN    H6 3470   5.095   4.084   6.831
  348ACTN    C1 3471   4.473   2.021   7.665
  348ACTN    O1 3472   4.281   2.153   7.721
  348ACTN    C2 3473   4.334   2.040   7.717
  348ACTN    C3 3474   4.272   1.939   7.804
  348ACTN    H1 3475   4.474   1.968   7.569
  348ACTN    H2 3476   4.530   1.964   7.738
  348ACTN    H3 3477   4.521   2.118   7.648
  348ACTN    H4 3478   4.208   1.879   7.739
  348ACTN    H5 3479   4.204   1.983   7.877
  348ACTN    H6 3480   4.343   1.875   7.854
  349ACTN    C1 3481   6.802   1.015   4.094
  349ACTN    O1 3482   6.624   1.076   4.242
  349ACTN    C2 3483   6.744   1.047   4.228
  349ACTN    C3 3484   6.831   1.088   4.339
  349ACTN    H1 3485   6.829   0.910   4.085
  349ACTN    H2 3486   6.891   1.076   4.079
  349ACTN    H3 3487   6.729   1.036   4.015
  349ACTN    H4 3488   6.846   0.999   4.400
  349ACTN    H5 3489   6.782   1.159   4.406
  349ACTN    H6 3490   6.926   1.128   4.308
  350ACTN    C1 3491   5.814   5.134   2.596
  350ACTN    O1 3492   5.679   4.956   2.508
  350ACTN    C2 3493   5.736   5.006   2.607
  350ACTN    C3 3494   5.688   4.958   2.737
  350ACTN    H1 3495   5.921   5.118   2.607
  350ACTN    H2 3496   5.780   5.201   2.674
  350ACTN    H3 3497   5.798   5.179   2.497
  350ACTN    H4 3498   5.760   4.884   2.770
  350ACTN    H5 3499   5.593   4.905   2.730
  350ACTN    H6 3500   5.680   5.036   2.812
  351ACTN    C1 3501   2.106   0.106   7.702
  351ACTN    O1 3502   2.023   0.216   7.506
  351ACTN    C2 3503   1.999   0.172   7.620
  351ACTN    C3 3504   1.878   0.226   7.683
  351ACTN    H1 3505   2.089  -0.001   7.714
  351ACTN    H2 3506   2.107   0.153   7.800
  351ACTN    H3 3507   2.204   0.119   7.654
  351ACTN    H4 3508   1.801   0.150   7.670
  351ACTN    H5 3509   1.840   0.314   7.631
  351ACTN    H6 3510   1.890   0.248   7.788
  352ACTN    C1 3511   6.370   0.211   3.920
  352ACTN    O1 3512   6.502   0.370   3.797
  352ACTN    C2 3513   6.481   0.311   3.905
  352ACTN    C3 3514   6.593   0.312   3.999
  352ACTN    H1 3515   6.290   0.247   3.984
  352ACTN    H2 3516   6.412   0.120   3.963
  352ACTN    H3 3517   6.326   0.189   3.822
  352ACTN    H4 3518   6.571   0.391   4.071
  352ACTN    H5 3519   6.687   0.343   3.952
  352ACTN    H6 3520   6.609   0.219   4.051
  353ACTN    C1 3521   4.926   1.209   4.196
  353ACTN    O1 3522   4.780   1.085   4.051
  353ACTN    C2 3523   4.846   1.189   4.070
  353ACTN    C3 3524   4.874   1.268   3.950
  353ACTN    H1 3525   4.883   1.286   4.260
  353ACTN    H2 3526   5.027   1.239   4.167
  353ACTN    H3 3527   4.930   1.117   4.254
  353ACTN    H4 3528   4.801   1.349   3.949
  353ACTN    H5 3529   4.855   1.212   3.858
  353ACTN    H6 3530   4.974   1.309   3.947
  354ACTN    C1 3531   3.220   5.882   1.642
  354ACTN    O1 3532   3.367   6.071   1.630
  354ACTN    C2 3533   3.342   5.960   1.680
  354ACTN    C3 3534   3.457   5.893   1.741
  354ACTN    H1 3535   3.148   5.877   1.724
  354ACTN    H2 3536   3.250   5.782   1.615
  354ACTN    H3 3537   3.169   5.930   1.557
  354ACTN    H4 3538   3.449   5.910   1.848
  354ACTN    H5 3539   3.553   5.938   1.713
  354ACTN    H6 3540   3.462   5.787   1.722
  355ACTN    C1 3541   6.130   4.199   7.673
  355ACTN    O1 3542   6.272   4.334   7.535
  355ACTN    C2 3543   6.217   4.318   7.645
  355ACTN    C3 3544   6.274   4.396   7.755
  355ACTN    H1 3545   6.025   4.226   7.682
  355ACTN    H2 3546   6.163   4.153   7.766
  355ACTN    H3 3547   6.139   4.126   7.591
  355ACTN    H4 3548   6.209   4.483   7.768
  355ACTN    H5 3549   6.372   4.438   7.731
  355ACTN    H6 3550   6.281   4.342   7.849
  356ACTN    C1 3551   2.139   6.466   2.761
  356ACTN    O1 3552   2.181   6.699   2.802
  356ACTN    C2 3553   2.106   6.601   2.819
  356ACTN    C3 3554   2.013   6.613   2.931
  356ACTN    H1 3555   2.071   6.439   2.681
  356ACTN    H2 3556   2.133   6.392   2.840
  356ACTN    H3 3557   2.240   6.467   2.718
  356ACTN    H4 3558   1.917   6.641   2.888
  356ACTN    H5 3559   2.038   6.695   2.998
  356ACTN    H6 3560   2.001   6.522   2.989
  357ACTN    C1 3561   1.087   6.475   7.273
  357ACTN    O1 3562   1.181   6.295   7.400
  357ACTN    C2 3563   1.130   6.408   7.400
  357ACTN    C3 3564   1.075   6.451   7.529
  357ACTN    H1 3565   1.150   6.561   7.248
  357ACTN    H2 3566   0.984   6.508   7.285
  357ACTN    H3 3567   1.094   6.404   7.189
  357ACTN    H4 3568   1.150   6.517   7.573
  357ACTN    H5 3569   1.066   6.369   7.600
  357ACTN    H6 3570   0.980   6.503   7.522
  358ACTN    C1 3571   5.285   1.415   6.745
  358ACTN    O1 3572   5.500   1.314   6.781
  358ACTN    C2 3573   5.400   1.368   6.830
  358ACTN    C3 3574   5.380   1.345   6.974
  358ACTN    H1 3575   5.279   1.524   6.741
  358ACTN    H2 3576   5.193   1.375   6.786
  358ACTN    H3 3577   5.299   1.380   6.641
  358ACTN    H4 3578   5.418   1.434   7.024
  358ACTN    H5 3579   5.443   1.264   7.012
  358ACTN    H6 3580   5.278   1.328   7.002
  359ACTN    C1 3581   2.424   2.367   6.610
  359ACTN    O1 3582   2.541   2.550   6.506
  359ACTN    C2 3583   2.454   2.461   6.497
  359ACTN    C3 3584   2.356   2.482   6.389
  359ACTN    H1 3585   2.457   2.266   6.588
  359ACTN    H2 3586   2.318   2.368   6.628
  359ACTN    H3 3587   2.477   2.400   6.700
  359ACTN    H4 3588   2.388   2.419   6.306
  359ACTN    H5 3589   2.359   2.584   6.349
  359ACTN    H6 3590   2.255   2.457   6.417
  360ACTN    C1 3591   5.064   5.768   7.191
  360ACTN    O1 3592   5.268   5.647   7.156
  360ACTN    C2 3593   5.155   5.678   7.113
  360ACTN    C3 3594   5.136   5.658   6.970
  360ACTN    H1 3595   4.978   5.714   7.231
  360ACTN    H2 3596   5.030   5.847   7.125
  360ACTN    H3 3597   5.117   5.811   7.277
  360ACTN    H4 3598   5.082   5.564   6.959
  360ACTN    H5 3599   5.230   5.643   6.916
  360ACTN    H6 3600   5.080   5.737   6.921
  361ACTN    C1 3601   0.325   1.675   7.477
  361ACTN    O1 3602   0.340   1.915   7.472
  361ACTN    C2 3603   0.344   1.808   7.409
  361ACTN    C3 3604   0.325   1.821   7.264
  361ACTN    H1 3605   0.417   1.617   7.479
  361ACTN    H2 3606   0.249   1.620   7.422
  361ACTN    H3 3607   0.293   1.691   7.581
  361ACTN    H4 3608   0.424   1.817   7.220
  361ACTN    H5 3609   0.286   1.919   7.236
  361ACTN    H6 3610   0.263   1.744   7.221
  362ACTN    C1 3611   1.416   4.272   4.756
  362ACTN    O1 3612   1.656   4.260   4.746
  362ACTN    C2 3613   1.549   4.203   4.775
  362ACTN    C3 3614   1.556   4.058   4.787
  362ACTN    H1 3615   1.369   4.297   4.852
  362ACTN    H2 3616   1.351   4.205   4.701
  362ACTN    H3 3617   1.430   4.365   4.701
  362ACTN    H4 3618   1.563   4.036   4.893
  362ACTN    H5 3619   1.649   4.017   4.745
  362ACTN    H6 3620   1.472   4.006   4.745
  363ACTN    C1 3621   7.051   1.212   3.234
  363ACTN    O1 3622   7.264   1.134   3.311
  363ACTN    C2 3623   7.146   1.162   3.339
  363ACTN    C3 3624   7.096   1.104   3.464
  363ACTN    H1 3625   7.025   1.316   3.249
  363ACTN    H2 3626   6.960   1.152   3.238
  363ACTN    H3 3627   7.096   1.203   3.134
  363ACTN    H4 3628   7.101   1.184   3.538
  363ACTN    H5 3629   7.161   1.025   3.503
  363ACTN    H6 3630   6.994   1.067   3.458
  364ACTN    C1 3631   3.803   3.385   3.963
  364ACTN    O1 3632   3.749   3.333   4.191
  364ACTN    C2 3633   3.726   3.313   4.070
  364ACTN    C3 3634   3.655   3.189   4.040
  364ACTN    H1 3635   3.740   3.457   3.910
  364ACTN    H2 3636   3.840   3.312   3.893
  364ACTN    H3 3637   3.886   3.441   4.008
  364ACTN    H4 3638   3.550   3.216   4.025
  364ACTN    H5 3639   3.653   3.119   4.125
  364ACTN    H6 3640   3.691   3.137   3.953
  365ACTN    C1 3641   5.773   1.222   6.564
  365ACTN    O1 3642   5.745   1.447   6.484
  365ACTN    C2 3643   5.776   1.329   6.458
  365ACTN    C3 3644   5.773   1.294   6.316
  365ACTN    H1 3645   5.873   1.189   6.590
  365ACTN    H2 3646   5.716   1.138   6.526
  365ACTN    H3 3647   5.727   1.261   6.655
  365ACTN    H4 3648   5.876   1.298   6.282
  365ACTN    H5 3649   5.720   1.368   6.256
  365ACTN    H6 3650   5.732   1.196   6.297
  366ACTN    C1 3651   5.579   2.866   7.086
  366ACTN    O1 3652   5.482   2.828   6.869
  366ACTN    C2 3653   5.569   2.796   6.953
  366ACTN    C3 3654   5.628   2.664   6.933
  366ACTN    H1 3655   5.669   2.927   7.093
  366ACTN    H2 3656   5.581   2.790   7.163
  366ACTN    H3 3657   5.493   2.932   7.100
  366ACTN    H4 3658   5.723   2.680   6.884
  366ACTN    H5 3659   5.571   2.602   6.863
  366ACTN    H6 3660   5.643   2.608   7.025
  367ACTN    C1 3661   5.162   7.701   3.932
  367ACTN    O1 3662   5.226   7.478   3.871
  367ACTN    C2 3663   5.178   7.587   3.835
  367ACTN    C3 3664   5.181   7.611   3.691
  367ACTN    H1 3665   5.057   7.721   3.953
  367ACTN    H2 3666   5.207   7.789   3.888
  367ACTN    H3 3667   5.211   7.677   4.027
  367ACTN    H4 3668   5.081   7.589   3.654
  367ACTN    H5 3669   5.246   7.541   3.638
  367ACTN    H6 3670   5.208   7.712   3.664
  368ACTN    C1 3671   6.808   7.555   0.910
  368ACTN    O1 3672   6.855   7.773   0.998
  368ACTN    C2 3673   6.819   7.705   0.900
  368ACTN    C3 3674   6.748   7.778   0.795
  368ACTN    H1 3675   6.884   7.505   0.851
  368ACTN    H2 3676   6.710   7.526   0.873
  368ACTN    H3 3677   6.820   7.523   1.014
  368ACTN    H4 3678   6.822   7.797   0.717
  368ACTN    H5 3679   6.716   7.877   0.827
  368ACTN    H6 3680   6.664   7.725   0.753
  369ACTN    C1 3681   3.294   1.791   5.729
  369ACTN    O1 3682   3.498   1.664   5.737
  369ACTN    C2 3683   3.434   1.758   5.685
  369ACTN    C3 3684   3.515   1.857   5.615
  369ACTN    H1 3685   3.221   1.767   5.652
  369ACTN    H2 3686   3.289   1.897   5.751
  369ACTN    H3 3687   3.268   1.733   5.818
  369ACTN    H4 3688   3.508   1.833   5.509
  369ACTN    H5 3689   3.622   1.848   5.638
  369ACTN    H6 3690   3.484   1.959   5.631
  370ACTN    C1 3691   5.186   1.694   7.101
  370ACTN    O1 3692   5.234   1.620   7.324
  370ACTN    C2 3693   5.151   1.628   7.232
  370ACTN    C3 3694   5.038   1.536   7.241
  370ACTN    H1 3695   5.133   1.788   7.088
  370ACTN    H2 3696   5.159   1.626   7.021
  370ACTN    H3 3697   5.293   1.715   7.097
  370ACTN    H4 3698   4.955   1.593   7.281
  370ACTN    H5 3699   5.054   1.456   7.314
  370ACTN    H6 3700   5.009   1.492   7.146
  371ACTN    C1 3701   1.113   2.966   2.624
  371ACTN    O1 3702   1.036   2.739   2.626
  371ACTN    C2 3703   1.071   2.839   2.692
  371ACTN    C3 3704   1.029   2.840   2.832
  371ACTN    H1 3705   1.220   2.986   2.635
  371ACTN    H2 3706   1.058   3.049   2.668
  371ACTN    H3 3707   1.092   2.960   2.516
  371ACTN    H4 3708   1.116   2.808   2.890
  371ACTN    H5 3709   0.952   2.765   2.853
  371ACTN    H6 3710   0.996   2.936   2.868
  372ACTN    C1 3711   7.672   6.965   6.356
  372ACTN    O1 3712   7.492   6.977   6.197
  372ACTN    C2 3713   7.599   6.923   6.231
  372ACTN    C3 3714   7.625   6.793   6.170
  372ACTN    H1 3715   7.766   7.016   6.333
  372ACTN    H2 3716   7.694   6.876   6.414
  372ACTN    H3 3717   7.610   7.034   6.414
  372ACTN    H4 3718   7.694   6.811   6.088
  372ACTN    H5 3719   7.536   6.750   6.122
  372ACTN    H6 3720   7.667   6.720   6.237
  373ACTN    C1 3721   4.284   3.010   4.545
  373ACTN    O1 3722   4.475   3.132   4.624
  373ACTN    C2 3723   4.352   3.114   4.630
  373ACTN    C3 3724   4.287   3.165   4.751
  373ACTN    H1 3725   4.221   3.055   4.468
  373ACTN    H2 3726   4.223   2.948   4.610
  373ACTN    H3 3727   4.359   2.948   4.494
  373ACTN    H4 3728   4.242   3.260   4.723
  373ACTN    H5 3729   4.359   3.191   4.829
  373ACTN    H6 3730   4.212   3.100   4.792
  374ACTN    C1 3731   6.033   4.635   6.435
  374ACTN    O1 3732   5.842   4.570   6.306
  374ACTN    C2 3733   5.952   4.628   6.309
  374ACTN    C3 3734   6.015   4.650   6.179
  374ACTN    H1 3735   6.037   4.736   6.476
  374ACTN    H2 3736   6.134   4.602   6.413
  374ACTN    H3 3737   5.989   4.571   6.512
  374ACTN    H4 3738   5.994   4.753   6.152
  374ACTN    H5 3739   5.968   4.590   6.100
  374ACTN    H6 3740   6.122   4.633   6.178
  375ACTN    C1 3741   3.396   3.024   0.610
  375ACTN    O1 3742   3.214   3.176   0.647
  375ACTN    C2 3743   3.335   3.153   0.659
  375ACTN    C3 3744   3.419   3.271   0.682
  375ACTN    H1 3745   3.428   2.961   0.692
  375ACTN    H2 3746   3.481   3.048   0.548
  375ACTN    H3 3747   3.322   2.967   0.552
  375ACTN    H4 3748   3.439   3.273   0.789
  375ACTN    H5 3749   3.366   3.364   0.661
  375ACTN    H6 3750   3.512   3.269   0.627
  376ACTN    C1 3751   2.061   0.242   4.221
  376ACTN    O1 3752   1.992   0.016   4.180
  376ACTN    C2 3753   2.004   0.131   4.137
  376ACTN    C3 3754   2.002   0.143   3.991
  376ACTN    H1 3755   1.985   0.315   4.248
  376ACTN    H2 3756   2.140   0.290   4.165
  376ACTN    H3 3757   2.101   0.200   4.315
  376ACTN    H4 3758   1.902   0.175   3.964
  376ACTN    H5 3759   2.015   0.047   3.941
  376ACTN    H6 3760   2.074   0.213   3.951
  377ACTN    C1 3761   0.088   2.871   7.390
  377ACTN    O1 3762  -0.000   2.987   7.581
  377ACTN    C2 3763   0.042   2.880   7.533
  377ACTN    C3 3764   0.083   2.780   7.631
  377ACTN    H1 3765   0.020   2.812   7.329
  377ACTN    H2 3766   0.186   2.825   7.389
  377ACTN    H3 3767   0.094   2.971   7.346
  377ACTN    H4 3768  -0.000   2.709   7.639
  377ACTN    H5 3769   0.094   2.821   7.732
  377ACTN    H6 3770   0.173   2.726   7.604
  378ACTN    C1 3771   2.474   6.402   7.091
  378ACTN    O1 3772   2.472   6.248   6.907
  378ACTN    C2 3773   2.470   6.264   7.030
  378ACTN    C3 3774   2.423   6.149   7.107
  378ACTN    H1 3775   2.568   6.422   7.141
  378ACTN    H2 3776   2.393   6.409   7.163
  378ACTN    H3 3777   2.461   6.478   7.013
  378ACTN    H4 3778   2.512   6.099   7.144
  378ACTN    H5 3779   2.372   6.075   7.045
  378ACTN    H6 3780   2.359   6.176   7.190
  379ACTN    C1 3781   5.055   6.683   5.129
  379ACTN    O1 3782   4.850   6.639   5.247
  379ACTN    C2 3783   4.975   6.643   5.249
  379ACTN    C3 3784   5.033   6.650   5.384
  379ACTN    H1 3785   5.110   6.599   5.087
  379ACTN    H2 3786   5.124   6.761   5.158
  379ACTN    H3 3787   4.988   6.720   5.050
  379ACTN    H4 3788   5.065   6.549   5.408
  379ACTN    H5 3789   4.960   6.675   5.460
  379ACTN    H6 3790   5.117   6.718   5.391
  380ACTN    C1 3791   4.665   7.681   0.515
  380ACTN    O1 3792   4.698   7.917   0.490
  380ACTN    C2 3793   4.748   7.803   0.490
  380ACTN    C3 3794   4.878   7.792   0.423
  380ACTN    H1 3795   4.688   7.634   0.610
  380ACTN    H2 3796   4.684   7.610   0.435
  380ACTN    H3 3797   4.558   7.707   0.516
  380ACTN    H4 3798   4.953   7.793   0.502
  380ACTN    H5 3799   4.902   7.880   0.362
  380ACTN    H6 3800   4.890   7.703   0.363
  381ACTN    C1 3801   2.932   2.162   5.834
  381ACTN    O1 3802   2.812   2.370   5.854
  381ACTN    C2 3803   2.858   2.269   5.910
  381ACTN    C3 3804   2.874   2.282   6.056
  381ACTN    H1 3805   2.875   2.070   5.829
  381ACTN    H2 3806   3.026   2.144   5.885
  381ACTN    H3 3807   2.950   2.196   5.732
  381ACTN    H4 3808   2.789   2.232   6.100
  381ACTN    H5 3809   2.867   2.385   6.090
  381ACTN    H6 3810   2.966   2.238   6.094
  382ACTN    C1 3811   2.167   2.640   7.511
  382ACTN    O1 3812   2.388   2.548   7.522
  382ACTN    C2 3813   2.273   2.540   7.476
  382ACTN    C3 3814   2.260   2.456   7.356
  382ACTN    H1 3815   2.089   2.597   7.574
  382ACTN    H2 3816   2.122   2.676   7.419
  382ACTN    H3 3817   2.211   2.724   7.566
  382ACTN    H4 3818   2.222   2.360   7.391
  382ACTN    H5 3819   2.357   2.433   7.310
  382ACTN    H6 3820   2.194   2.496   7.281
  383ACTN    C1 3821   3.029   3.920   3.638
  383ACTN    O1 3822   2.872   3.971   3.812
  383ACTN    C2 3823   2.987   3.984   3.767
  383ACTN    C3 3824   3.061   4.098   3.821
  383ACTN    H1 3825   3.100   3.840   3.654
  383ACTN    H2 3826   3.074   3.996   3.575
  383ACTN    H3 3827   2.941   3.876   3.588
  383ACTN    H4 3828   3.128   4.057   3.897
  383ACTN    H5 3829   2.997   4.169   3.875
  383ACTN    H6 3830   3.119   4.152   3.747
  384ACTN    C1 3831   3.152   3.229   6.037
  384ACTN    O1 3832   3.002   3.233   5.851
  384ACTN    C2 3833   3.109   3.273   5.901
  384ACTN    C3 3834   3.206   3.326   5.805
  384ACTN    H1 3835   3.148   3.310   6.110
  384ACTN    H2 3836   3.254   3.192   6.031
  384ACTN    H3 3837   3.087   3.149   6.074
  384ACTN    H4 3838   3.197   3.435   5.811
  384ACTN    H5 3839   3.181   3.302   5.701
  384ACTN    H6 3840   3.308   3.297   5.825
  385ACTN    C1 3841   2.102   1.801   6.972
  385ACTN    O1 3842   1.928   1.647   6.912
  385ACTN    C2 3843   2.001   1.742   6.878
  385ACTN    C3 3844   2.012   1.763   6.733
  385ACTN    H1 3845   2.075   1.901   7.004
  385ACTN    H2 3846   2.198   1.805   6.921
  385ACTN    H3 3847   2.110   1.738   7.062
  385ACTN    H4 3848   1.944   1.845   6.709
  385ACTN    H5 3849   1.975   1.678   6.675
  385ACTN    H6 3850   2.112   1.788   6.700
  386ACTN    C1 3851   1.050   6.101   0.241
  386ACTN    O1 3852   0.831   6.006   0.219
  386ACTN    C2 3853   0.954   5.987   0.225
  386ACTN    C3 3854   0.994   5.851   0.259
  386ACTN    H1 3855   1.110   6.117   0.151
  386ACTN    H2 3856   1.117   6.079   0.324
  386ACTN    H3 3857   0.996   6.194   0.261
  386ACTN    H4 3858   1.021   5.802   0.165
  386ACTN    H5 3859   0.911   5.791   0.298
  386ACTN    H6 3860   1.078   5.845   0.328
  387ACTN    C1 3861   4.361   7.692   5.876
  387ACTN    O1 3862   4.557   7.557   5.908
  387ACTN    C2 3863   4.484   7.620   5.829
  387ACTN    C3 3864   4.546   7.654   5.701
  387ACTN    H1 3865   4.269   7.644   5.841
  387ACTN    H2 3866   4.364   7.793   5.838
  387ACTN    H3 3867   4.358   7.693   5.986
  387ACTN    H4 3868   4.511   7.580   5.629
  387ACTN    H5 3869   4.655   7.641   5.702
  387ACTN    H6 3870   4.522   7.753   5.665
  388ACTN    C1 3871   2.779   3.324   6.459
  388ACTN    O1 3872   2.946   3.154   6.485
  388ACTN    C2 3873   2.856   3.222   6.538
  388ACTN    C3 3874   2.802   3.168   6.663
  388ACTN    H1 3875   2.802   3.425   6.490
  388ACTN    H2 3876   2.673   3.305   6.474
  388ACTN    H3 3877   2.803   3.315   6.353
  388ACTN    H4 3878   2.851   3.223   6.743
  388ACTN    H5 3879   2.832   3.063   6.680
  388ACTN    H6 3880   2.695   3.176   6.672
  389ACTN    C1 3881   6.655   2.103   4.329
  389ACTN    O1 3882   6.887   2.118   4.389
  389ACTN    C2 3883   6.782   2.051   4.390
  389ACTN    C3 3884   6.800   1.908   4.414
  389ACTN    H1 3885   6.580   2.126   4.404
  389ACTN    H2 3886   6.616   2.027   4.261
  389ACTN    H3 3887   6.675   2.195   4.273
  389ACTN    H4 3888   6.777   1.891   4.519
  389ACTN    H5 3889   6.904   1.876   4.403
  389ACTN    H6 3890   6.737   1.845   4.352
  390ACTN    C1 3891   4.535   3.403   7.437
  390ACTN    O1 3892   4.758   3.483   7.477
  390ACTN    C2 3893   4.637   3.509   7.468
  390ACTN    C3 3894   4.596   3.635   7.531
  390ACTN    H1 3895   4.492   3.415   7.338
  390ACTN    H2 3896   4.456   3.409   7.511
  390ACTN    H3 3897   4.582   3.304   7.440
  390ACTN    H4 3898   4.588   3.708   7.450
  390ACTN    H5 3899   4.673   3.676   7.597
  390ACTN    H6 3900   4.502   3.630   7.584
  391ACTN    C1 3901   3.461   4.297   6.638
  391ACTN    O1 3902   3.469   4.069   6.564
  391ACTN    C2 3903   3.476   4.149   6.659
  391ACTN    C3 3904   3.456   4.090   6.792
  391ACTN    H1 3905   3.555   4.350   6.654
  391ACTN    H2 3906   3.387   4.334   6.708
  391ACTN    H3 3907   3.429   4.317   6.535
  391ACTN    H4 3908   3.555   4.076   6.834
  391ACTN    H5 3909   3.413   3.989   6.787
  391ACTN    H6 3910   3.396   4.150   6.858
  392ACTN    C1 3911   2.999   1.254   0.374
  392ACTN    O1 3912   2.776   1.341   0.386
  392ACTN    C2 3913   2.878   1.323   0.317
  392ACTN    C3 3914   2.859   1.332   0.173
  392ACTN    H1 3915   3.083   1.323   0.387
  392ACTN    H2 3916   3.029   1.175   0.306
  392ACTN    H3 3917   2.976   1.212   0.473
  392ACTN    H4 3918   2.892   1.431   0.144
  392ACTN    H5 3919   2.753   1.329   0.144
  392ACTN    H6 3920   2.913   1.257   0.116
  393ACTN    C1 3921   1.585   0.294   2.423
  393ACTN    O1 3922   1.626   0.234   2.652
  393ACTN    C2 3923   1.628   0.200   2.532
  393ACTN    C3 3924   1.713   0.085   2.502
  393ACTN    H1 3925   1.492   0.262   2.377
  393ACTN    H2 3926   1.663   0.297   2.348
  393ACTN    H3 3927   1.569   0.394   2.464
  393ACTN    H4 3928   1.647  -0.001   2.495
  393ACTN    H5 3929   1.781   0.060   2.584
  393ACTN    H6 3930   1.770   0.094   2.410
  394ACTN    C1 3931   1.898   2.863   6.018
  394ACTN    O1 3932   1.893   2.650   6.129
  394ACTN    C2 3933   1.942   2.764   6.123
  394ACTN    C3 3934   2.009   2.811   6.244
  394ACTN    H1 3935   1.976   2.881   5.944
  394ACTN    H2 3936   1.872   2.956   6.067
  394ACTN    H3 3937   1.811   2.823   5.964
  394ACTN    H4 3938   2.116   2.796   6.228
  394ACTN    H5 3939   1.986   2.749   6.331
  394ACTN    H6 3940   1.990   2.914   6.268
  395ACTN    C1 3941   4.290   3.436   2.756
  395ACTN    O1 3942   4.392   3.653   2.765
  395ACTN    C2 3943   4.308   3.574   2.812
  395ACTN    C3 3944   4.262   3.606   2.947
  395ACTN    H1 3945   4.194   3.425   2.705
  395ACTN    H2 3946   4.295   3.365   2.838
  395ACTN    H3 3947   4.369   3.414   2.683
  395ACTN    H4 3948   4.166   3.655   2.936
  395ACTN    H5 3949   4.326   3.680   2.997
  395ACTN    H6 3950   4.251   3.520   3.012
  396ACTN    C1 3951   6.998   5.654   2.186
  396ACTN    O1 3952   7.152   5.743   2.025
  396ACTN    C2 3953   7.123   5.727   2.145
  396ACTN    C3 3954   7.235   5.742   2.238
  396ACTN    H1 3955   6.925   5.721   2.231
  396ACTN    H2 3956   7.025   5.578   2.258
  396ACTN    H3 3957   6.950   5.608   2.099
  396ACTN    H4 3958   7.226   5.842   2.280
  396ACTN    H5 3959   7.332   5.741   2.188
  396ACTN    H6 3960   7.236   5.669   2.318
  397ACTN    C1 3961   3.249   5.973   6.078
  397ACTN    O1 3962   3.113   5.821   6.205
  397ACTN    C2 3963   3.194   5.915   6.206
  397ACTN    C3 3964   3.199   5.993   6.330
  397ACTN    H1 3965   3.355   5.950   6.065
  397ACTN    H2 3966   3.236   6.081   6.081
  397ACTN    H3 3967   3.195   5.931   5.992
  397ACTN    H4 3968   3.286   5.956   6.385
  397ACTN    H5 3969   3.114   5.972   6.396
  397ACTN    H6 3970   3.208   6.099   6.315
  398ACTN    C1 3971   1.637   2.196   6.657
  398ACTN    O1 3972   1.721   1.973   6.627
  398ACTN    C2 3973   1.707   2.071   6.702
  398ACTN    C3 3974   1.722   2.042   6.845
  398ACTN    H1 3975   1.706   2.279   6.647
  398ACTN    H2 3976   1.561   2.221   6.730
  398ACTN    H3 3977   1.591   2.179   6.559
  398ACTN    H4 3978   1.823   2.072   6.872
  398ACTN    H5 3979   1.720   1.934   6.867
  398ACTN    H6 3980   1.651   2.092   6.908
  399ACTN    C1 3981   6.628   5.694   3.097
  399ACTN    O1 3982   6.767   5.628   3.281
  399ACTN    C2 3983   6.659   5.616   3.222
  399ACTN    C3 3984   6.583   5.495   3.255
  399ACTN    H1 3985   6.552   5.770   3.114
  399ACTN    H2 3986   6.593   5.625   3.022
  399ACTN    H3 3987   6.719   5.745   3.062
  399ACTN    H4 3988   6.507   5.526   3.327
  399ACTN    H5 3989   6.643   5.421   3.307
  399ACTN    H6 3990   6.535   5.449   3.170
  400ACTN    C1 3991   0.910   0.395   3.716
  400ACTN    O1 3992   0.921   0.609   3.824
  400ACTN    C2 3993   0.887   0.490   3.830
  400ACTN    C3 3994   0.863   0.440   3.966
  400ACTN    H1 3995   0.817   0.366   3.668
  400ACTN    H2 3996   0.959   0.306   3.755
  400ACTN    H3 3997   0.973   0.442   3.640
  400ACTN    H4 3998   0.755   0.442   3.981
  400ACTN    H5 3999   0.903   0.506   4.043
  400ACTN    H6 4000   0.900   0.339   3.983
  401ACTN    C1 4001   6.432   5.581   6.950
  401ACTN    O1 4002   6.369   5.812   6.927
  401ACTN    C2 4003   6.401   5.705   6.871
  401ACTN    C3 4004   6.365   5.697   6.729
  401ACTN    H1 4005   6.537   5.555   6.945
  401ACTN    H2 4006   6.373   5.499   6.909
  401ACTN    H3 4007   6.406   5.596   7.055
  401ACTN    H4 4008   6.456   5.719   6.673
  401ACTN    H5 4009   6.294   5.774   6.699
  401ACTN    H6 4010   6.327   5.600   6.699
  402ACTN    C1 4011   5.910   5.918   3.020
  402ACTN    O1 4012   5.674   5.876   3.034
  402ACTN    C2 4013   5.783   5.885   3.094
  402ACTN    C3 4014   5.773   5.906   3.238
  402ACTN    H1 4015   5.978   5.833   3.017
  402ACTN    H2 4016   5.958   6.001   3.071
  402ACTN    H3 4017   5.887   5.945   2.917
  402ACTN    H4 4018   5.790   5.809   3.284
  402ACTN    H5 4019   5.672   5.935   3.270
  402ACTN    H6 4020   5.844   5.978   3.278
  403ACTN    C1 4021   4.319   6.517   1.314
  403ACTN    O1 4022   4.402   6.720   1.413
  403ACTN    C2 4023   4.395   6.647   1.312
  403ACTN    C3 4024   4.426   6.713   1.185
  403ACTN    H1 4025   4.385   6.431   1.308
  403ACTN    H2 4026   4.251   6.516   1.230
  403ACTN    H3 4027   4.262   6.509   1.408
  403ACTN    H4 4028   4.529   6.686   1.161
  403ACTN    H5 4029   4.427   6.822   1.194
  403ACTN    H6 4030   4.361   6.684   1.104
  404ACTN    C1 4031   1.391   3.216   3.775
  404ACTN    O1 4032   1.263   3.201   3.977
  404ACTN    C2 4033   1.296   3.148   3.869
  404ACTN    C3 4034   1.275   3.003   3.862
  404ACTN    H1 4035   1.342   3.248   3.684
  404ACTN    H2 4036   1.471   3.146   3.750
  404ACTN    H3 4037   1.434   3.305   3.823
  404ACTN    H4 4038   1.183   2.989   3.805
  404ACTN    H5 4039   1.255   2.958   3.959
  404ACTN    H6 4040   1.355   2.949   3.813
  405ACTN    C1 4041   2.269   0.140   3.088
  405ACTN    O1 4042   2.278   0.010   2.886
  405ACTN    C2 4043   2.317   0.111   2.948
  405ACTN    C3 4044   2.440   0.172   2.898
  405ACTN    H1 4045   2.204   0.227   3.091
  405ACTN    H2 4046   2.356   0.158   3.151
  405ACTN    H3 4047   2.212   0.055   3.127
  405ACTN    H4 4048   2.409   0.257   2.837
  405ACTN    H5 4049   2.493   0.106   2.828
  405ACTN    H6 4050   2.508   0.205   2.975
  406ACTN    C1 4051   3.744   1.989   3.076
  406ACTN    O1 4052   3.737   1.962   3.314
  406ACTN    C2 4053   3.699   2.025   3.214
  406ACTN    C3 4054   3.577   2.104   3.234
  406ACTN    H1 4055   3.810   2.065   3.034
  406ACTN    H2 4056   3.657   1.979   3.012
  406ACTN    H3 4057   3.800   1.895   3.078
  406ACTN    H4 4058   3.610   2.206   3.250
  406ACTN    H5 4059   3.524   2.077   3.326
  406ACTN    H6 4060   3.508   2.100   3.151
  407ACTN    C1 4061   1.799   6.070   2.586
  407ACTN    O1 4062   1.834   6.307   2.566
  407ACTN    C2 4063   1.785   6.213   2.631
  407ACTN    C3 4064   1.752   6.244   2.771
  407ACTN    H1 4065   1.705   6.028   2.553
  407ACTN    H2 4066   1.837   6.011   2.669
  407ACTN    H3 4067   1.869   6.064   2.502
  407ACTN    H4 4068   1.645   6.262   2.773
  407ACTN    H5 4069   1.798   6.337   2.805
  407ACTN    H6 4070   1.777   6.165   2.840
  408ACTN    C1 4071   1.457   6.425   3.069
  408ACTN    O1 4072   1.448   6.306   2.861
  408ACTN    C2 4073   1.466   6.414   2.919
  408ACTN    C3 4074   1.538   6.515   2.841
  408ACTN    H1 4075   1.370   6.482   3.100
  408ACTN    H2 4076   1.547   6.473   3.105
  408ACTN    H3 4077   1.449   6.325   3.113
  408ACTN    H4 4078   1.462   6.583   2.802
  408ACTN    H5 4079   1.586   6.473   2.752
  408ACTN    H6 4080   1.611   6.571   2.898
  409ACTN    C1 4081   2.954   5.679   3.630
  409ACTN    O1 4082   2.803   5.613   3.456
  409ACTN    C2 4083   2.882   5.698   3.500
  409ACTN    C3 4084   2.931   5.794   3.400
  409ACTN    H1 4085   2.918   5.747   3.707
  409ACTN    H2 4086   3.060   5.696   3.613
  409ACTN    H3 4087   2.938   5.577   3.667
  409ACTN    H4 4088   2.872   5.884   3.413
  409ACTN    H5 4089   2.911   5.762   3.297
  409ACTN    H6 4090   3.036   5.817   3.410
  410ACTN    C1 4091   5.085   5.622   0.599
  410ACTN    O1 4092   5.255   5.775   0.529
  410ACTN    C2 4093   5.154   5.710   0.498
  410ACTN    C3 4094   5.084   5.755   0.379
  410ACTN    H1 4095   5.097   5.516   0.575
  410ACTN    H2 4096   4.979   5.647   0.599
  410ACTN    H3 4097   5.127   5.638   0.699
  410ACTN    H4 4098   5.115   5.689   0.298
  410ACTN    H5 4099   5.116   5.855   0.346
  410ACTN    H6 4100   4.976   5.754   0.387
  411ACTN    C1 4101   5.502   5.518   1.639
  411ACTN    O1 4102   5.694   5.413   1.736
  411ACTN    C2 4103   5.626   5.434   1.635
  411ACTN    C3 4104   5.696   5.410   1.508
  411ACTN    H1 4105   5.412   5.458   1.624
  411ACTN    H2 4106   5.509   5.593   1.561
  411ACTN    H3 4107   5.493   5.567   1.737
  411ACTN    H4 4108   5.663   5.311   1.474
  411ACTN    H5 4109   5.804   5.400   1.520
  411ACTN    H6 4110   5.675   5.483   1.431
  412ACTN    C1 4111   7.351   4.172   1.736
  412ACTN    O1 4112   7.337   3.972   1.604
  412ACTN    C2 4113   7.405   4.044   1.679
  412ACTN    C3 4114   7.522   3.979   1.740
  412ACTN    H1 4115   7.398   4.260   1.693
  412ACTN    H2 4116   7.368   4.171   1.843
  412ACTN    H3 4117   7.243   4.179   1.716
  412ACTN    H4 4118   7.608   4.008   1.680
  412ACTN    H5 4119   7.518   3.870   1.731
  412ACTN    H6 4120   7.538   4.005   1.843
  413ACTN    C1 4121   0.303   1.939   3.112
  413ACTN    O1 4122   0.357   2.116   2.960
  413ACTN    C2 4123   0.366   2.070   3.075
  413ACTN    C3 4124   0.475   2.126   3.156
  413ACTN    H1 4125   0.219   1.952   3.180
  413ACTN    H2 4126   0.378   1.877   3.161
  413ACTN    H3 4127   0.265   1.888   3.023
  413ACTN    H4 4128   0.428   2.200   3.221
  413ACTN    H5 4129   0.547   2.183   3.096
  413ACTN    H6 4130   0.527   2.053   3.216
  414ACTN    C1 4131   2.463   4.574   4.081
  414ACTN    O1 4132   2.604   4.391   4.016
  414ACTN    C2 4133   2.550   4.499   3.985
  414ACTN    C3 4134   2.611   4.568   3.870
  414ACTN    H1 4135   2.358   4.573   4.051
  414ACTN    H2 4136   2.497   4.676   4.086
  414ACTN    H3 4137   2.468   4.527   4.181
  414ACTN    H4 4138   2.547   4.546   3.785
  414ACTN    H5 4139   2.709   4.527   3.844
  414ACTN    H6 4140   2.619   4.675   3.883
  415ACTN    C1 4141   5.916   2.345   7.493
  415ACTN    O1 4142   5.781   2.524   7.409
  415ACTN    C2 4143   5.790   2.425   7.483
  415ACTN    C3 4144   5.689   2.418   7.589
  415ACTN    H1 4145   5.905   2.246   7.448
  415ACTN    H2 4146   5.942   2.334   7.597
  415ACTN    H3 4147   5.997   2.396   7.439
  415ACTN    H4 4148   5.613   2.348   7.554
  415ACTN    H5 4149   5.635   2.512   7.603
  415ACTN    H6 4150   5.727   2.384   7.685
  416ACTN    C1 4151   6.481   5.563   7.449
  416ACTN    O1 4152   6.477   5.324   7.436
  416ACTN    C2 4153   6.518   5.431   7.389
  416ACTN    C3 4154   6.636   5.419   7.303
  416ACTN    H1 4155   6.415   5.620   7.384
  416ACTN    H2 4156   6.572   5.620   7.466
  416ACTN    H3 4157   6.428   5.548   7.544
  416ACTN    H4 4158   6.600   5.422   7.200
  416ACTN    H5 4159   6.685   5.321   7.312
  416ACTN    H6 4160   6.710   5.497   7.317
  417ACTN    C1 4161   3.391   5.420   0.894
  417ACTN    O1 4162   3.235   5.345   0.728
  417ACTN    C2 4163   3.260   5.363   0.849
  417ACTN    C3 4164   3.143   5.366   0.937
  417ACTN    H1 4165   3.452   5.346   0.945
  417ACTN    H2 4166   3.371   5.503   0.961
  417ACTN    H3 4167   3.448   5.455   0.807
  417ACTN    H4 4168   3.136   5.268   0.983
  417ACTN    H5 4169   3.049   5.377   0.881
  417ACTN    H6 4170   3.148   5.442   1.013
  418ACTN    C1 4171   4.345   6.906   7.859
  418ACTN    O1 4172   4.516   6.897   7.690
  418ACTN    C2 4173   4.418   6.957   7.738
  418ACTN    C3 4174   4.406   7.098   7.698
  418ACTN    H1 4175   4.245   6.871   7.834
  418ACTN    H2 4176   4.337   6.987   7.931
  418ACTN    H3 4177   4.400   6.822   7.903
  418ACTN    H4 4178   4.332   7.101   7.618
  418ACTN    H5 4179   4.498   7.136   7.652
  418ACTN    H6 4180   4.377   7.164   7.778
  419ACTN    C1 4181   5.437   4.530   4.491
  419ACTN    O1 4182   5.460   4.517   4.253
  419ACTN    C2 4183   5.423   4.583   4.351
  419ACTN    C3 4184   5.406   4.726   4.328
  419ACTN    H1 4185   5.340   4.506   4.536
  419ACTN    H2 4186   5.486   4.605   4.552
  419ACTN    H3 4187   5.497   4.438   4.491
  419ACTN    H4 4188   5.299   4.742   4.313
  419ACTN    H5 4189   5.452   4.759   4.234
  419ACTN    H6 4190   5.442   4.789   4.408
  420ACTN    C1 4191   1.814   2.029   7.365
  420ACTN    O1 4192   1.765   2.214   7.511
  420ACTN    C2 4193   1.741   2.096   7.478
  420ACTN    C3 4194   1.673   2.016   7.580
  420ACTN    H1 4195   1.750   2.011   7.280
  420ACTN    H2 4196   1.853   1.934   7.401
  420ACTN    H3 4197   1.897   2.093   7.331
  420ACTN    H4 4198   1.568   2.014   7.552
  420ACTN    H5 4199   1.674   2.063   7.679
  420ACTN    H6 4200   1.710   1.914   7.589
  421ACTN    C1 4201   0.934   0.981   6.467
  421ACTN    O1 4202   0.945   0.922   6.699
  421ACTN    C2 4203   0.984   0.900   6.583
  421ACTN    C3 4204   1.108   0.823   6.572
  421ACTN    H1 4205   0.869   0.924   6.401
  421ACTN    H2 4206   1.020   1.016   6.410
  421ACTN    H3 4207   0.876   1.067   6.503
  421ACTN    H4 4208   1.078   0.720   6.551
  421ACTN    H5 4209   1.162   0.817   6.667
  421ACTN    H6 4210   1.175   0.858   6.495
  422ACTN    C1 4211   0.595   1.694   6.398
  422ACTN    O1 4212   0.607   1.921   6.322
  422ACTN    C2 4213   0.537   1.821   6.342
  422ACTN    C3 4214   0.393   1.846   6.351
  422ACTN    H1 4215   0.597   1.614   6.325
  422ACTN    H2 4216   0.535   1.663   6.483
  422ACTN    H3 4217   0.699   1.712   6.430
  422ACTN    H4 4218   0.351   1.819   6.254
  422ACTN    H5 4219   0.369   1.952   6.362
  422ACTN    H6 4220   0.342   1.790   6.429
  423ACTN    C1 4221   6.996   6.422   2.624
  423ACTN    O1 4222   6.806   6.565   2.593
  423ACTN    C2 4223   6.900   6.502   2.541
  423ACTN    C3 4224   6.885   6.475   2.398
  423ACTN    H1 4225   7.095   6.466   2.626
  423ACTN    H2 4226   7.002   6.322   2.583
  423ACTN    H3 4227   6.961   6.417   2.728
  423ACTN    H4 4228   6.945   6.549   2.346
  423ACTN    H5 4229   6.783   6.493   2.362
  423ACTN    H6 4230   6.916   6.376   2.368
  424ACTN    C1 4231   3.759   7.602   3.852
  424ACTN    O1 4232   3.927   7.460   3.948
  424ACTN    C2 4233   3.900   7.554   3.871
  424ACTN    C3 4234   4.013   7.641   3.837
  424ACTN    H1 4235   3.721   7.578   3.752
  424ACTN    H2 4236   3.756   7.709   3.866
  424ACTN    H3 4237   3.692   7.553   3.924
  424ACTN    H4 4238   4.047   7.609   3.739
  424ACTN    H5 4239   4.099   7.625   3.903
  424ACTN    H6 4240   3.989   7.746   3.835
  425ACTN    C1 4241   4.441   3.158   2.706
  425ACTN    O1 4242   4.599   3.313   2.797
  425ACTN    C2 4243   4.504   3.236   2.818
  425ACTN    C3 4244   4.487   3.194   2.957
  425ACTN    H1 4245   4.340   3.192   2.684
  425ACTN    H2 4246   4.437   3.053   2.736
  425ACTN    H3 4247   4.501   3.168   2.615
  425ACTN    H4 4248   4.407   3.256   2.998
  425ACTN    H5 4249   4.574   3.217   3.019
  425ACTN    H6 4250   4.461   3.090   2.969
  426ACTN    C1 4251   1.945   5.380   6.377
  426ACTN    O1 4252   2.053   5.183   6.293
  426ACTN    C2 4253   1.980   5.234   6.379
  426ACTN    C3 4254   1.897   5.138   6.454
  426ACTN    H1 4255   1.992   5.434   6.459
  426ACTN    H2 4256   1.837   5.389   6.385
  426ACTN    H3 4257   1.979   5.425   6.284
  426ACTN    H4 4258   1.948   5.122   6.549
  426ACTN    H5 4259   1.893   5.040   6.407
  426ACTN    H6 4260   1.796   5.173   6.473
  427ACTN    C1 4261   3.194   3.376   0.402
  427ACTN    O1 4262   2.996   3.508   0.430
  427ACTN    C2 4263   3.084   3.466   0.353
  427ACTN    C3 4264   3.052   3.473   0.211
  427ACTN    H1 4265   3.291   3.425   0.403
  427ACTN    H2 4266   3.199   3.289   0.336
  427ACTN    H3 4267   3.173   3.343   0.505
  427ACTN    H4 4268   3.102   3.562   0.172
  427ACTN    H5 4269   2.945   3.492   0.193
  427ACTN    H6 4270   3.083   3.387   0.154
  428ACTN    C1 4271   4.866   2.203   7.113
  428ACTN    O1 4272   4.915   1.969   7.134
  428ACTN    C2 4273   4.902   2.079   7.190
  428ACTN    C3 4274   4.881   2.073   7.335
  428ACTN    H1 4275   4.950   2.274   7.109
  428ACTN    H2 4276   4.782   2.251   7.162
  428ACTN    H3 4277   4.840   2.177   7.010
  428ACTN    H4 4278   4.977   2.094   7.381
  428ACTN    H5 4279   4.855   1.972   7.370
  428ACTN    H6 4280   4.807   2.143   7.372
  429ACTN    C1 4281   2.576   2.203   4.377
  429ACTN    O1 4282   2.793   2.304   4.359
  429ACTN    C2 4283   2.698   2.248   4.301
  429ACTN    C3 4284   2.693   2.268   4.156
  429ACTN    H1 4285   2.568   2.095   4.382
  429ACTN    H2 4286   2.488   2.242   4.326
  429ACTN    H3 4287   2.579   2.241   4.479
  429ACTN    H4 4288   2.734   2.177   4.112
  429ACTN    H5 4289   2.759   2.348   4.122
  429ACTN    H6 4290   2.593   2.284   4.117
  430ACTN    C1 4291   6.962   1.490   4.698
  430ACTN    O1 4292   6.855   1.705   4.709
  430ACTN    C2 4293   6.883   1.605   4.641
  430ACTN    C3 4294   6.799   1.586   4.522
  430ACTN    H1 4295   7.061   1.483   4.654
  430ACTN    H2 4296   6.907   1.398   4.678
  430ACTN    H3 4297   6.975   1.503   4.806
  430ACTN    H4 4298   6.858   1.623   4.438
  430ACTN    H5 4299   6.710   1.648   4.523
  430ACTN    H6 4300   6.771   1.483   4.503
  431ACTN    C1 4301   4.726   7.237   4.220
  431ACTN    O1 4302   4.558   7.080   4.152
  431ACTN    C2 4303   4.679   7.110   4.157
  431ACTN    C3 4304   4.771   6.997   4.139
  431ACTN    H1 4305   4.766   7.307   4.146
  431ACTN    H2 4306   4.804   7.213   4.291
  431ACTN    H3 4307   4.643   7.287   4.271
  431ACTN    H4 4308   4.804   7.002   4.035
  431ACTN    H5 4309   4.721   6.900   4.147
  431ACTN    H6 4310   4.857   6.999   4.204
  432ACTN    C1 4311   4.912   1.574   5.332
  432ACTN    O1 4312   4.983   1.555   5.561
  432ACTN    C2 4313   4.891   1.542   5.477
  432ACTN    C3 4314   4.781   1.455   5.519
  432ACTN    H1 4315   4.857   1.663   5.302
  432ACTN    H2 4316   4.878   1.489   5.273
  432ACTN    H3 4317   5.018   1.593   5.313
  432ACTN    H4 4318   4.701   1.521   5.553
  432ACTN    H5 4319   4.806   1.395   5.607
  432ACTN    H6 4320   4.744   1.390   5.442
  433ACTN    C1 4321   3.500   3.224   2.855
  433ACTN    O1 4322   3.277   3.183   2.777
  433ACTN    C2 4323   3.354   3.256   2.840
  433ACTN    C3 4324   3.306   3.393   2.862
  433ACTN    H1 4325   3.526   3.195   2.957
  433ACTN    H2 4326   3.557   3.311   2.826
  433ACTN    H3 4327   3.526   3.139   2.790
  433ACTN    H4 4328   3.266   3.396   2.964
  433ACTN    H5 4329   3.220   3.418   2.799
  433ACTN    H6 4330   3.382   3.469   2.851
  434ACTN    C1 4331   2.911   3.325   7.642
  434ACTN    O1 4332   3.049   3.441   7.801
  434ACTN    C2 4333   2.973   3.448   7.703
  434ACTN    C3 4334   2.914   3.580   7.679
  434ACTN    H1 4335   2.953   3.303   7.544
  434ACTN    H2 4336   2.805   3.341   7.634
  434ACTN    H3 4337   2.931   3.238   7.706
  434ACTN    H4 4338   2.973   3.625   7.600
  434ACTN    H5 4339   2.926   3.647   7.765
  434ACTN    H6 4340   2.810   3.577   7.650
  435ACTN    C1 4341   5.993   0.860   3.909
  435ACTN    O1 4342   5.926   0.693   4.068
  435ACTN    C2 4343   5.955   0.720   3.950
  435ACTN    C3 4344   5.993   0.605   3.868
  435ACTN    H1 4345   5.916   0.905   3.846
  435ACTN    H2 4346   6.086   0.855   3.854
  435ACTN    H3 4347   6.004   0.923   3.997
  435ACTN    H4 4348   5.905   0.580   3.809
  435ACTN    H5 4349   6.014   0.516   3.927
  435ACTN    H6 4350   6.076   0.624   3.801
  436ACTN    C1 4351   7.713   1.397   1.142
  436ACTN    O1 4352   7.534   1.238   1.165
  436ACTN    C2 4353   7.620   1.309   1.221
  436ACTN    C3 4354   7.596   1.335   1.363
  436ACTN    H1 4355   7.816   1.360   1.145
  436ACTN    H2 4356   7.709   1.497   1.183
  436ACTN    H3 4357   7.682   1.399   1.037
  436ACTN    H4 4358   7.660   1.266   1.418
  436ACTN    H5 4359   7.495   1.309   1.394
  436ACTN    H6 4360   7.618   1.437   1.394
  437ACTN    C1 4361   2.650   5.144   0.771
  437ACTN    O1 4362   2.602   5.370   0.706
  437ACTN    C2 4363   2.656   5.294   0.788
  437ACTN    C3 4364   2.759   5.355   0.872
  437ACTN    H1 4365   2.587   5.098   0.847
  437ACTN    H2 4366   2.750   5.105   0.779
  437ACTN    H3 4367   2.607   5.119   0.673
  437ACTN    H4 4368   2.711   5.376   0.968
  437ACTN    H5 4369   2.791   5.453   0.835
  437ACTN    H6 4370   2.846   5.293   0.888
  438ACTN    C1 4371   7.304   6.014   7.527
  438ACTN    O1 4372   7.441   5.866   7.657
  438ACTN    C2 4373   7.353   5.878   7.570
  438ACTN    C3 4374   7.333   5.761   7.485
  438ACTN    H1 4375   7.202   6.032   7.559
  438ACTN    H2 4376   7.309   6.019   7.419
  438ACTN    H3 4377   7.367   6.092   7.571
  438ACTN    H4 4378   7.245   5.710   7.524
  438ACTN    H5 4379   7.414   5.688   7.494
  438ACTN    H6 4380   7.317   5.785   7.380
  439ACTN    C1 4381   1.665   6.485   4.020
  439ACTN    O1 4382   1.757   6.320   4.169
  439ACTN    C2 4383   1.760   6.437   4.127
  439ACTN    C3 4384   1.827   6.533   4.215
  439ACTN    H1 4385   1.717   6.505   3.927
  439ACTN    H2 4386   1.618   6.576   4.055
  439ACTN    H3 4387   1.589   6.408   4.000
  439ACTN    H4 4388   1.927   6.546   4.174
  439ACTN    H5 4389   1.844   6.493   4.316
  439ACTN    H6 4390   1.777   6.628   4.223
  440ACTN    C1 4391   4.143   2.009   7.314
  440ACTN    O1 4392   4.375   1.994   7.374
  440ACTN    C2 4393   4.291   2.015   7.286
  440ACTN    C3 4394   4.340   2.087   7.168
  440ACTN    H1 4395   4.096   1.923   7.266
  440ACTN    H2 4396   4.097   2.100   7.278
  440ACTN    H3 4397   4.126   1.999   7.422
  440ACTN    H4 4398   4.359   2.012   7.092
  440ACTN    H5 4399   4.438   2.134   7.186
  440ACTN    H6 4400   4.272   2.162   7.130
  441ACTN    C1 4401   5.247   5.552   1.082
  441ACTN    O1 4402   5.447   5.684   1.097
  441ACTN    C2 4403   5.338   5.653   1.147
  441ACTN    C3 4404   5.322   5.686   1.289
  441ACTN    H1 4405   5.157   5.598   1.041
  441ACTN    H2 4406   5.219   5.478   1.156
  441ACTN    H3 4407   5.300   5.503   0.999
  441ACTN    H4 4408   5.265   5.778   1.293
  441ACTN    H5 4409   5.418   5.711   1.337
  441ACTN    H6 4410   5.272   5.609   1.347
  442ACTN    C1 4411   1.251   5.799   1.700
  442ACTN    O1 4412   1.027   5.715   1.719
  442ACTN    C2 4413   1.128   5.760   1.776
  442ACTN    C3 4414   1.104   5.813   1.911
  442ACTN    H1 4415   1.334   5.730   1.720
  442ACTN    H2 4416   1.280   5.899   1.730
  442ACTN    H3 4417   1.231   5.795   1.592
  442ACTN    H4 4418   1.135   5.735   1.980
  442ACTN    H5 4419   0.998   5.827   1.933
  442ACTN    H6 4420   1.158   5.904   1.933
  443ACTN    C1 4421   3.684   4.977   1.482
  443ACTN    O1 4422   3.597   4.771   1.395
  443ACTN    C2 4423   3.632   4.888   1.373
  443ACTN    C3 4424   3.662   4.918   1.232
  443ACTN    H1 4425   3.614   5.057   1.505
  443ACTN    H2 4426   3.778   5.019   1.450
  443ACTN    H3 4427   3.698   4.919   1.574
  443ACTN    H4 4428   3.573   4.968   1.193
  443ACTN    H5 4429   3.672   4.828   1.171
  443ACTN    H6 4430   3.749   4.981   1.218
  444ACTN    C1 4431   2.656   7.255   5.801
  444ACTN    O1 4432   2.484   7.089   5.786
  444ACTN    C2 4433   2.533   7.194   5.740
  444ACTN    C3 4434   2.492   7.227   5.604
  444ACTN    H1 4435   2.633   7.349   5.852
  444ACTN    H2 4436   2.727   7.274   5.721
  444ACTN    H3 4437   2.699   7.187   5.875
  444ACTN    H4 4438   2.414   7.303   5.613
  444ACTN    H5 4439   2.444   7.144   5.552
  444ACTN    H6 4440   2.572   7.266   5.542
  445ACTN    C1 4441   3.658   2.838   2.254
  445ACTN    O1 4442   3.730   2.631   2.156
  445ACTN    C2 4443   3.670   2.739   2.142
  445ACTN    C3 4444   3.651   2.782   2.003
  445ACTN    H1 4445   3.556   2.845   2.292
  445ACTN    H2 4446   3.690   2.935   2.218
  445ACTN    H3 4447   3.722   2.807   2.338
  445ACTN    H4 4448   3.548   2.755   1.977
  445ACTN    H5 4449   3.713   2.725   1.932
  445ACTN    H6 4450   3.665   2.887   1.987
  446ACTN    C1 4451   5.926   0.513   5.273
  446ACTN    O1 4452   6.098   0.443   5.424
  446ACTN    C2 4453   5.987   0.419   5.373
  446ACTN    C3 4454   5.943   0.280   5.382
  446ACTN    H1 4455   5.838   0.564   5.314
  446ACTN    H2 4456   5.896   0.455   5.186
  446ACTN    H3 4457   5.998   0.590   5.244
  446ACTN    H4 4458   5.873   0.275   5.465
  446ACTN    H5 4459   6.024   0.212   5.410
  446ACTN    H6 4460   5.895   0.243   5.292
  447ACTN    C1 4461   0.832   2.668   5.660
  447ACTN    O1 4462   0.843   2.441   5.584
  447ACTN    C2 4463   0.824   2.560   5.556
  447ACTN    C3 4464   0.836   2.593   5.413
  447ACTN    H1 4465   0.735   2.711   5.681
  447ACTN    H2 4466   0.899   2.746   5.623
  447ACTN    H3 4467   0.872   2.627   5.753
  447ACTN    H4 4468   0.735   2.598   5.374
  447ACTN    H5 4469   0.884   2.513   5.356
  447ACTN    H6 4470   0.887   2.686   5.394
  448ACTN    C1 4471   2.944   6.304   2.730
  448ACTN    O1 4472   2.959   6.517   2.621
  448ACTN    C2 4473   2.939   6.395   2.611
  448ACTN    C3 4474   2.870   6.353   2.489
  448ACTN    H1 4475   3.030   6.238   2.728
  448ACTN    H2 4476   2.853   6.245   2.732
  448ACTN    H3 4477   2.951   6.364   2.822
  448ACTN    H4 4478   2.947   6.316   2.421
  448ACTN    H5 4479   2.824   6.437   2.435
  448ACTN    H6 4480   2.796   6.276   2.504
  449ACTN    C1 4481   2.721   7.188   0.564
  449ACTN    O1 4482   2.609   7.400   0.553
  449ACTN    C2 4483   2.648   7.305   0.623
  449ACTN    C3 4484   2.659   7.334   0.767
  449ACTN    H1 4485   2.662   7.097   0.566
  449ACTN    H2 4486   2.813   7.172   0.621
  449ACTN    H3 4487   2.746   7.209   0.459
  449ACTN    H4 4488   2.569   7.293   0.812
  449ACTN    H5 4489   2.654   7.441   0.788
  449ACTN    H6 4490   2.746   7.293   0.814
  450ACTN    C1 4491   7.294   3.180   3.764
  450ACTN    O1 4492   7.250   3.299   3.968
  450ACTN    C2 4493   7.250   3.300   3.843
  450ACTN    C3 4494   7.168   3.405   3.781
  450ACTN    H1 4495   7.389   3.197   3.714
  450ACTN    H2 4496   7.217   3.158   3.691
  450ACTN    H3 4497   7.307   3.094   3.831
  450ACTN    H4 4498   7.237   3.484   3.753
  450ACTN    H5 4499   7.099   3.451   3.852
  450ACTN    H6 4500   7.113   3.372   3.694
  451ACTN    C1 4501   2.256   3.822   4.419
  451ACTN    O1 4502   2.461   3.729   4.503
  451ACTN    C2 4503   2.361   3.800   4.524
  451ACTN    C3 4504   2.331   3.823   4.666
  451ACTN    H1 4505   2.257   3.924   4.382
  451ACTN    H2 4506   2.159   3.800   4.463
  451ACTN    H3 4507   2.275   3.755   4.333
  451ACTN    H4 4508   2.370   3.922   4.689
  451ACTN    H5 4509   2.385   3.756   4.732
  451ACTN    H6 4510   2.226   3.819   4.689
  452ACTN    C1 4511   3.165   6.592   4.547
  452ACTN    O1 4512   2.984   6.536   4.399
  452ACTN    C2 4513   3.057   6.501   4.494
  452ACTN    C3 4514   3.005   6.391   4.575
  452ACTN    H1 4515   3.264   6.554   4.525
  452ACTN    H2 4516   3.153   6.599   4.655
  452ACTN    H3 4517   3.156   6.691   4.502
  452ACTN    H4 4518   3.057   6.301   4.541
  452ACTN    H5 4519   2.899   6.371   4.556
  452ACTN    H6 4520   3.021   6.404   4.681
  453ACTN    C1 4521   2.802   3.776   2.286
  453ACTN    O1 4522   2.563   3.785   2.314
  453ACTN    C2 4523   2.664   3.830   2.256
  453ACTN    C3 4524   2.638   3.902   2.132
  453ACTN    H1 4525   2.863   3.849   2.339
  453ACTN    H2 4526   2.849   3.751   2.192
  453ACTN    H3 4527   2.794   3.687   2.349
  453ACTN    H4 4528   2.642   4.008   2.157
  453ACTN    H5 4529   2.536   3.887   2.095
  453ACTN    H6 4530   2.709   3.882   2.053
  454ACTN    C1 4531   5.373   7.015   5.671
  454ACTN    O1 4532   5.259   6.897   5.496
  454ACTN    C2 4533   5.270   6.920   5.618
  454ACTN    C3 4534   5.152   6.885   5.698
  454ACTN    H1 4535   5.451   6.964   5.727
  454ACTN    H2 4536   5.324   7.086   5.737
  454ACTN    H3 4537   5.422   7.068   5.589
  454ACTN    H4 4538   5.175   6.789   5.745
  454ACTN    H5 4539   5.064   6.867   5.637
  454ACTN    H6 4540   5.128   6.958   5.775
  455ACTN    C1 4541   5.522   0.890   6.230
  455ACTN    O1 4542   5.314   1.011   6.220
  455ACTN    C2 4543   5.394   0.944   6.288
  455ACTN    C3 4544   5.380   0.959   6.433
  455ACTN    H1 4545   5.519   0.782   6.220
  455ACTN    H2 4546   5.604   0.919   6.294
  455ACTN    H3 4547   5.537   0.931   6.129
  455ACTN    H4 4548   5.324   0.872   6.467
  455ACTN    H5 4549   5.317   1.044   6.461
  455ACTN    H6 4550   5.473   0.965   6.487
  456ACTN    C1 4551   7.364   5.728   6.127
  456ACTN    O1 4552   7.191   5.892   6.099
  456ACTN    C2 4553   7.287   5.831   6.049
  456ACTN    C3 4554   7.292   5.832   5.903
  456ACTN    H1 4555   7.464   5.763   6.151
  456ACTN    H2 4556   7.370   5.638   6.068
  456ACTN    H3 4557   7.313   5.708   6.222
  456ACTN    H4 4558   7.364   5.908   5.875
  456ACTN    H5 4559   7.198   5.865   5.857
  456ACTN    H6 4560   7.321   5.737   5.859
  457ACTN    C1 4561   0.449   5.586   2.482
  457ACTN    O1 4562   0.408   5.820   2.449
  457ACTN    C2 4563   0.423   5.726   2.529
  457ACTN    C3 4564   0.456   5.766   2.666
  457ACTN    H1 4565   0.365   5.520   2.500
  457ACTN    H2 4566   0.536   5.548   2.534
  457ACTN    H3 4567   0.468   5.586   2.374
  457ACTN    H4 4568   0.363   5.761   2.723
  457ACTN    H5 4569   0.487   5.871   2.673
  457ACTN    H6 4570   0.531   5.704   2.713
  458ACTN    C1 4571   0.553   1.886   1.395
  458ACTN    O1 4572   0.584   2.123   1.420
  458ACTN    C2 4573   0.586   2.024   1.344
  458ACTN    C3 4574   0.580   2.054   1.201
  458ACTN    H1 4575   0.640   1.821   1.397
  458ACTN    H2 4576   0.478   1.843   1.329
  458ACTN    H3 4577   0.513   1.892   1.497
  458ACTN    H4 4578   0.682   2.048   1.164
  458ACTN    H5 4579   0.550   2.158   1.182
  458ACTN    H6 4580   0.516   1.988   1.145
  459ACTN    C1 4581   4.616   2.102   3.032
  459ACTN    O1 4582   4.416   1.975   3.074
  459ACTN    C2 4583   4.512   2.040   3.121
  459ACTN    C3 4584   4.494   2.087   3.258
  459ACTN    H1 4585   4.712   2.052   3.041
  459ACTN    H2 4586   4.627   2.206   3.060
  459ACTN    H3 4587   4.584   2.094   2.927
  459ACTN    H4 4588   4.547   2.017   3.322
  459ACTN    H5 4589   4.390   2.080   3.292
  459ACTN    H6 4590   4.530   2.188   3.276
  460ACTN    C1 4591   2.188   7.301   5.929
  460ACTN    O1 4592   2.319   7.502   5.953
  460ACTN    C2 4593   2.249   7.414   6.008
  460ACTN    C3 4594   2.266   7.403   6.153
  460ACTN    H1 4595   2.080   7.310   5.923
  460ACTN    H2 4596   2.214   7.208   5.978
  460ACTN    H3 4597   2.228   7.302   5.827
  460ACTN    H4 4598   2.182   7.457   6.197
  460ACTN    H5 4599   2.354   7.456   6.189
  460ACTN    H6 4600   2.268   7.301   6.189
  461ACTN    C1 4601   3.077   0.405   6.720
  461ACTN    O1 4602   3.124   0.624   6.806
  461ACTN    C2 4603   3.086   0.554   6.710
  461ACTN    C3 4604   3.010   0.627   6.607
  461ACTN    H1 4605   3.152   0.356   6.658
  461ACTN    H2 4606   2.978   0.374   6.687
  461ACTN    H3 4607   3.093   0.373   6.823
  461ACTN    H4 4608   3.081   0.647   6.527
  461ACTN    H5 4609   2.978   0.726   6.641
  461ACTN    H6 4610   2.925   0.572   6.568
  462ACTN    C1 4611   3.387   3.041   4.199
  462ACTN    O1 4612   3.383   2.822   4.103
  462ACTN    C2 4613   3.371   2.892   4.204
  462ACTN    C3 4614   3.299   2.829   4.315
  462ACTN    H1 4615   3.477   3.075   4.250
  462ACTN    H2 4616   3.300   3.087   4.246
  462ACTN    H3 4617   3.394   3.075   4.095
  462ACTN    H4 4618   3.375   2.794   4.385
  462ACTN    H5 4619   3.246   2.739   4.285
  462ACTN    H6 4620   3.230   2.895   4.367
  463ACTN    C1 4621   5.177   2.272   1.814
  463ACTN    O1 4622   5.395   2.313   1.904
  463ACTN    C2 4623   5.292   2.360   1.854
  463ACTN    C3 4624   5.271   2.503   1.876
  463ACTN    H1 4625   5.165   2.267   1.706
  463ACTN    H2 4626   5.086   2.312   1.858
  463ACTN    H3 4627   5.194   2.170   1.850
  463ACTN    H4 4628   5.303   2.553   1.785
  463ACTN    H5 4629   5.337   2.544   1.954
  463ACTN    H6 4630   5.169   2.531   1.899
  464ACTN    C1 4631   6.459   7.411   2.615
  464ACTN    O1 4632   6.682   7.323   2.600
  464ACTN    C2 4633   6.609   7.423   2.610
  464ACTN    C3 4634   6.676   7.544   2.659
  464ACTN    H1 4635   6.413   7.451   2.524
  464ACTN    H2 4636   6.424   7.468   2.700
  464ACTN    H3 4637   6.430   7.306   2.624
  464ACTN    H4 4638   6.698   7.604   2.571
  464ACTN    H5 4639   6.774   7.522   2.703
  464ACTN    H6 4640   6.618   7.601   2.729
  465ACTN    C1 4641   3.616   1.631   7.585
  465ACTN    O1 4642   3.683   1.838   7.484
  465ACTN    C2 4643   3.631   1.726   7.470
  465ACTN    C3 4644   3.548   1.711   7.350
  465ACTN    H1 4645   3.681   1.545   7.575
  465ACTN    H2 4646   3.513   1.598   7.589
  465ACTN    H3 4647   3.642   1.682   7.679
  465ACTN    H4 4648   3.610   1.659   7.277
  465ACTN    H5 4649   3.525   1.806   7.302
  465ACTN    H6 4650   3.457   1.655   7.366
  466ACTN    C1 4651   0.934   5.297   3.741
  466ACTN    O1 4652   0.903   5.503   3.622
  466ACTN    C2 4653   0.892   5.441   3.729
  466ACTN    C3 4654   0.878   5.525   3.848
  466ACTN    H1 4655   0.848   5.231   3.753
  466ACTN    H2 4656   0.999   5.287   3.827
  466ACTN    H3 4657   0.987   5.266   3.650
  466ACTN    H4 4658   0.772   5.526   3.872
  466ACTN    H5 4659   0.904   5.629   3.830
  466ACTN    H6 4660   0.934   5.489   3.934
  467ACTN    C1 4661   0.408   2.691   5.210
  467ACTN    O1 4662   0.233   2.799   5.332
  467ACTN    C2 4663   0.355   2.784   5.315
  467ACTN    C3 4664   0.440   2.889   5.371
  467ACTN    H1 4665   0.455   2.602   5.253
  467ACTN    H2 4666   0.481   2.744   5.150
  467ACTN    H3 4667   0.326   2.656   5.146
  467ACTN    H4 4668   0.477   2.851   5.465
  467ACTN    H5 4669   0.383   2.979   5.398
  467ACTN    H6 4670   0.523   2.917   5.307
  468ACTN    C1 4671   1.622   4.572   2.361
  468ACTN    O1 4672   1.667   4.337   2.371
  468ACTN    C2 4673   1.640   4.436   2.301
  468ACTN    C3 4674   1.669   4.420   2.158
  468ACTN    H1 4675   1.518   4.606   2.356
  468ACTN    H2 4676   1.684   4.642   2.306
  468ACTN    H3 4677   1.652   4.571   2.467
  468ACTN    H4 4678   1.575   4.397   2.110
  468ACTN    H5 4679   1.733   4.334   2.138
  468ACTN    H6 4680   1.713   4.508   2.112
  469ACTN    C1 4681   7.653   4.600   3.115
  469ACTN    O1 4682   7.761   4.389   3.080
  469ACTN    C2 4683   7.703   4.486   3.030
  469ACTN    C3 4684   7.725   4.505   2.886
  469ACTN    H1 4685   7.544   4.603   3.119
  469ACTN    H2 4686   7.689   4.693   3.073
  469ACTN    H3 4687   7.689   4.588   3.218
  469ACTN    H4 4688   7.637   4.464   2.837
  469ACTN    H5 4689   7.808   4.445   2.848
  469ACTN    H6 4690   7.739   4.608   2.857
  470ACTN    C1 4691   0.507   5.711   3.850
  470ACTN    O1 4692   0.447   5.941   3.884
  470ACTN    C2 4693   0.515   5.844   3.921
  470ACTN    C3 4694   0.631   5.877   4.004
  470ACTN    H1 4695   0.460   5.635   3.911
  470ACTN    H2 4696   0.608   5.679   3.826
  470ACTN    H3 4697   0.449   5.721   3.758
  470ACTN    H4 4698   0.600   5.857   4.107
  470ACTN    H5 4699   0.655   5.983   4.003
  470ACTN    H6 4700   0.720   5.820   3.981
  471ACTN    C1 4701   4.068   7.528   5.631
  471ACTN    O1 4702   3.907   7.381   5.531
  471ACTN    C2 4703   3.944   7.497   5.551
  471ACTN    C3 4704   3.888   7.597   5.459
  471ACTN    H1 4705   4.044   7.574   5.727
  471ACTN    H2 4706   4.130   7.596   5.573
  471ACTN    H3 4707   4.123   7.436   5.651
  471ACTN    H4 4708   3.806   7.645   5.513
  471ACTN    H5 4709   3.841   7.552   5.372
  471ACTN    H6 4710   3.959   7.672   5.427
  472ACTN    C1 4711   2.853   6.271   3.170
  472ACTN    O1 4712   2.903   6.111   3.342
  472ACTN    C2 4713   2.822   6.152   3.257
  472ACTN    C3 4714   2.720   6.055   3.216
  472ACTN    H1 4715   2.791   6.357   3.195
  472ACTN    H2 4716   2.836   6.243   3.067
  472ACTN    H3 4717   2.958   6.301   3.184
  472ACTN    H4 4718   2.630   6.082   3.272
  472ACTN    H5 4719   2.743   5.953   3.249
  472ACTN    H6 4720   2.698   6.055   3.110
  473ACTN    C1 4721   7.390   4.701   2.867
  473ACTN    O1 4722   7.390   4.918   2.765
  473ACTN    C2 4723   7.368   4.796   2.753
  473ACTN    C3 4724   7.281   4.760   2.641
  473ACTN    H1 4725   7.474   4.634   2.849
  473ACTN    H2 4726   7.300   4.641   2.879
  473ACTN    H3 4727   7.411   4.756   2.959
  473ACTN    H4 4728   7.347   4.726   2.561
  473ACTN    H5 4729   7.229   4.846   2.598
  473ACTN    H6 4730   7.210   4.682   2.664
  474ACTN    C1 4731   6.672   4.485   2.391
  474ACTN    O1 4732   6.841   4.636   2.468
  474ACTN    C2 4733   6.797   4.566   2.375
  474ACTN    C3 4734   6.847   4.601   2.242
  474ACTN    H1 4735   6.693   4.378   2.393
  474ACTN    H2 4736   6.606   4.507   2.308
  474ACTN    H3 4737   6.623   4.510   2.486
  474ACTN    H4 4738   6.926   4.530   2.219
  474ACTN    H5 4739   6.897   4.699   2.240
  474ACTN    H6 4740   6.772   4.598   2.164
  475ACTN    C1 4741   1.335   3.245   0.142
  475ACTN    O1 4742   1.108   3.298   0.085
  475ACTN    C2 4743   1.189   3.262   0.172
  475ACTN    C3 4744   1.143   3.281   0.310
  475ACTN    H1 4745   1.366   3.141   0.145
  475ACTN    H2 4746   1.392   3.301   0.215
  475ACTN    H3 4747   1.357   3.283   0.041
  475ACTN    H4 4748   1.109   3.183   0.344
  475ACTN    H5 4749   1.055   3.345   0.317
  475ACTN    H6 4750   1.220   3.317   0.377
  476ACTN    C1 4751   5.894   0.426   2.313
  476ACTN    O1 4752   6.088   0.537   2.225
  476ACTN    C2 4753   6.038   0.471   2.317
  476ACTN    C3 4754   6.134   0.406   2.407
  476ACTN    H1 4755   5.833   0.479   2.385
  476ACTN    H2 4756   5.891   0.320   2.334
  476ACTN    H3 4757   5.852   0.445   2.213
  476ACTN    H4 4758   6.141   0.469   2.495
  476ACTN    H5 4759   6.235   0.403   2.365
  476ACTN    H6 4760   6.105   0.306   2.436
  477ACTN    C1 4761   4.506   6.662   5.128
  477ACTN    O1 4762   4.359   6.525   4.996
  477ACTN    C2 4763   4.459   6.599   5.000
  477ACTN    C3 4764   4.550   6.586   4.886
  477ACTN    H1 4765   4.490   6.769   5.129
  477ACTN    H2 4766   4.611   6.641   5.140
  477ACTN    H3 4767   4.450   6.620   5.213
  477ACTN    H4 4768   4.527   6.669   4.819
  477ACTN    H5 4769   4.530   6.497   4.826
  477ACTN    H6 4770   4.654   6.588   4.912
  478ACTN    C1 4771   6.685   7.162   3.915
  478ACTN    O1 4772   6.501   7.315   3.934
  478ACTN    C2 4773   6.549   7.203   3.961
  478ACTN    C3 4774   6.485   7.135   4.074
  478ACTN    H1 4775   6.681   7.084   3.839
  478ACTN    H2 4776   6.741   7.125   4.000
  478ACTN    H3 4777   6.737   7.248   3.871
  478ACTN    H4 4778   6.416   7.062   4.030
  478ACTN    H5 4779   6.421   7.201   4.133
  478ACTN    H6 4780   6.554   7.084   4.140
  479ACTN    C1 4781   5.506   6.081   1.233
  479ACTN    O1 4782   5.689   6.233   1.202
  479ACTN    C2 4783   5.652   6.117   1.228
  479ACTN    C3 4784   5.754   6.013   1.209
  479ACTN    H1 4785   5.474   6.058   1.334
  479ACTN    H2 4786   5.491   5.993   1.171
  479ACTN    H3 4787   5.446   6.164   1.196
  479ACTN    H4 4788   5.793   5.991   1.309
  479ACTN    H5 4789   5.841   6.049   1.153
  479ACTN    H6 4790   5.717   5.922   1.164
  480ACTN    C1 4791   3.373   1.674   0.933
  480ACTN    O1 4792   3.533   1.498   0.971
  480ACTN    C2 4793   3.512   1.617   0.939
  480ACTN    C3 4794   3.629   1.705   0.950
  480ACTN    H1 4795   3.342   1.695   0.831
  480ACTN    H2 4796   3.372   1.766   0.990
  480ACTN    H3 4797   3.302   1.602   0.975
  480ACTN    H4 4798   3.668   1.715   0.849
  480ACTN    H5 4799   3.710   1.660   1.007
  480ACTN    H6 4800   3.606   1.803   0.990
  481ACTN    C1 4801   3.160   1.039   5.306
  481ACTN    O1 4802   3.218   0.847   5.175
  481ACTN    C2 4803   3.135   0.937   5.199
  481ACTN    C3 4804   3.038   0.963   5.093
  481ACTN    H1 4805   3.093   1.026   5.391
  481ACTN    H2 4806   3.144   1.138   5.264
  481ACTN    H3 4807   3.263   1.031   5.344
  481ACTN    H4 4808   2.947   0.911   5.122
  481ACTN    H5 4809   3.067   0.917   4.998
  481ACTN    H6 4810   3.017   1.068   5.076
  482ACTN    C1 4811   5.581   6.910   3.894
  482ACTN    O1 4812   5.534   7.121   3.789
  482ACTN    C2 4813   5.612   7.052   3.858
  482ACTN    C3 4814   5.750   7.102   3.862
  482ACTN    H1 4815   5.561   6.899   4.001
  482ACTN    H2 4816   5.666   6.848   3.868
  482ACTN    H3 4817   5.492   6.876   3.840
  482ACTN    H4 4818   5.760   7.155   3.957
  482ACTN    H5 4819   5.770   7.178   3.786
  482ACTN    H6 4820   5.825   7.024   3.855
  483ACTN    C1 4821   0.867   2.556   6.805
  483ACTN    O1 4822   0.880   2.470   6.581
  483ACTN    C2 4823   0.826   2.549   6.660
  483ACTN    C3 4824   0.756   2.661   6.597
  483ACTN    H1 4825   0.789   2.519   6.871
  483ACTN    H2 4826   0.887   2.660   6.829
  483ACTN    H3 4827   0.956   2.495   6.821
  483ACTN    H4 4828   0.650   2.635   6.597
  483ACTN    H5 4829   0.781   2.672   6.491
  483ACTN    H6 4830   0.770   2.756   6.647
  484ACTN    C1 4831   7.934   7.894   6.814
  484ACTN    O1 4832   7.917   7.720   6.979
  484ACTN    C2 4833   7.881   7.833   6.941
  484ACTN    C3 4834   7.757   7.883   7.001
  484ACTN    H1 4835   8.000   7.978   6.834
  484ACTN    H2 4836   7.850   7.927   6.755
  484ACTN    H3 4837   7.992   7.819   6.759
  484ACTN    H4 4838   7.786   7.951   7.080
  484ACTN    H5 4839   7.700   7.804   7.052
  484ACTN    H6 4840   7.692   7.933   6.931
  485ACTN    C1 4841   2.036   0.642   6.886
  485ACTN    O1 4842   2.007   0.846   6.764
  485ACTN    C2 4843   2.055   0.731   6.767
  485ACTN    C3 4844   2.090   0.675   6.636
  485ACTN    H1 4845   2.130   0.626   6.940
  485ACTN    H2 4846   1.999   0.546   6.851
  485ACTN    H3 4847   1.965   0.687   6.956
  485ACTN    H4 4848   2.197   0.688   6.625
  485ACTN    H5 4849   2.047   0.732   6.553
  485ACTN    H6 4850   2.064   0.571   6.624
  486ACTN    C1 4851   1.309   2.263   7.094
  486ACTN    O1 4852   1.430   2.056   7.095
  486ACTN    C2 4853   1.434   2.180   7.093
  486ACTN    C3 4854   1.562   2.239   7.133
  486ACTN    H1 4855   1.293   2.314   6.999
  486ACTN    H2 4856   1.317   2.337   7.173
  486ACTN    H3 4857   1.221   2.199   7.112
  486ACTN    H4 4858   1.614   2.265   7.041
  486ACTN    H5 4859   1.628   2.167   7.182
  486ACTN    H6 4860   1.553   2.327   7.195
  487ACTN    C1 4861   4.035   5.649   7.724
  487ACTN    O1 4862   3.800   5.690   7.751
  487ACTN    C2 4863   3.906   5.648   7.801
  487ACTN    C3 4864   3.907   5.638   7.947
  487ACTN    H1 4865   4.068   5.548   7.698
  487ACTN    H2 4866   4.111   5.695   7.786
  487ACTN    H3 4867   4.023   5.705   7.631
  487ACTN    H4 4868   3.887   5.533   7.971
  487ACTN    H5 4869   3.823   5.692   7.993
  487ACTN    H6 4870   3.999   5.669   7.993
  488ACTN    C1 4871   3.151   4.689   6.328
  488ACTN    O1 4872   3.241   4.487   6.236
  488ACTN    C2 4873   3.260   4.605   6.268
  488ACTN    C3 4874   3.401   4.643   6.285
  488ACTN    H1 4875   3.118   4.767   6.260
  488ACTN    H2 4876   3.189   4.735   6.419
  488ACTN    H3 4877   3.064   4.627   6.352
  488ACTN    H4 4878   3.430   4.694   6.193
  488ACTN    H5 4879   3.467   4.556   6.291
  488ACTN    H6 4880   3.419   4.708   6.370
  489ACTN    C1 4881   3.686   1.061   7.476
  489ACTN    O1 4882   3.774   1.235   7.336
  489ACTN    C2 4883   3.748   1.195   7.451
  489ACTN    C3 4884   3.820   1.265   7.558
  489ACTN    H1 4885   3.583   1.069   7.512
  489ACTN    H2 4886   3.745   1.009   7.550
  489ACTN    H3 4887   3.683   1.003   7.383
  489ACTN    H4 4888   3.750   1.337   7.600
  489ACTN    H5 4889   3.904   1.325   7.521
  489ACTN    H6 4890   3.856   1.200   7.637
  490ACTN    C1 4891   2.696   1.458   4.574
  490ACTN    O1 4892   2.732   1.586   4.374
  490ACTN    C2 4893   2.666   1.498   4.432
  490ACTN    C3 4894   2.535   1.470   4.373
  490ACTN    H1 4895   2.737   1.357   4.579
  490ACTN    H2 4896   2.604   1.462   4.631
  490ACTN    H3 4897   2.770   1.526   4.617
  490ACTN    H4 4898   2.547   1.380   4.313
  490ACTN    H5 4899   2.504   1.547   4.301
  490ACTN    H6 4900   2.456   1.456   4.445
  491ACTN    C1 4901   1.398   4.103   7.075
  491ACTN    O1 4902   1.458   4.045   7.300
  491ACTN    C2 4903   1.484   4.036   7.178
  491ACTN    C3 4904   1.621   3.995   7.146
  491ACTN    H1 4905   1.342   4.031   7.016
  491ACTN    H2 4906   1.463   4.160   7.009
  491ACTN    H3 4907   1.326   4.170   7.123
  491ACTN    H4 4908   1.616   3.888   7.124
  491ACTN    H5 4909   1.688   4.002   7.233
  491ACTN    H6 4910   1.664   4.048   7.063
  492ACTN    C1 4911   6.365   5.188   6.347
  492ACTN    O1 4912   6.490   5.063   6.509
  492ACTN    C2 4913   6.404   5.062   6.420
  492ACTN    C3 4914   6.374   4.931   6.363
  492ACTN    H1 4915   6.265   5.221   6.373
  492ACTN    H2 4916   6.370   5.168   6.240
  492ACTN    H3 4917   6.435   5.269   6.373
  492ACTN    H4 4918   6.282   4.897   6.411
  492ACTN    H5 4919   6.449   4.856   6.389
  492ACTN    H6 4920   6.360   4.931   6.255
  493ACTN    C1 4921   1.406   6.785   1.844
  493ACTN    O1 4922   1.207   6.653   1.831
  493ACTN    C2 4923   1.306   6.688   1.898
  493ACTN    C3 4924   1.295   6.664   2.042
  493ACTN    H1 4925   1.502   6.738   1.824
  493ACTN    H2 4926   1.421   6.864   1.918
  493ACTN    H3 4927   1.370   6.829   1.750
  493ACTN    H4 4928   1.351   6.572   2.062
  493ACTN    H5 4929   1.192   6.641   2.073
  493ACTN    H6 4930   1.334   6.744   2.103
  494ACTN    C1 4931   4.673   3.950   2.360
  494ACTN    O1 4932   4.450   3.951   2.271
  494ACTN    C2 4933   4.523   3.960   2.371
  494ACTN    C3 4934   4.461   4.021   2.489
  494ACTN    H1 4935   4.711   3.857   2.404
  494ACTN    H2 4936   4.716   4.034   2.412
  494ACTN    H3 4937   4.703   3.951   2.255
  494ACTN    H4 4938   4.431   3.939   2.553
  494ACTN    H5 4939   4.368   4.073   2.464
  494ACTN    H6 4940   4.526   4.088   2.543
  495ACTN    C1 4941   7.924   7.017   1.491
  495ACTN    O1 4942   7.706   6.985   1.585
  495ACTN    C2 4943   7.829   6.973   1.598
  495ACTN    C3 4944   7.875   6.954   1.735
  495ACTN    H1 4945   7.973   6.933   1.442
  495ACTN    H2 4946   8.000   7.080   1.536
  495ACTN    H3 4947   7.871   7.073   1.413
  495ACTN    H4 4948   7.892   6.847   1.747
  495ACTN    H5 4949   7.798   6.978   1.809
  495ACTN    H6 4950   7.965   7.008   1.760
  496ACTN    C1 4951   1.464   6.189   1.780
  496ACTN    O1 4952   1.457   6.429   1.781
  496ACTN    C2 4953   1.524   6.326   1.762
  496ACTN    C3 4954   1.646   6.344   1.683
  496ACTN    H1 4955   1.505   6.138   1.867
  496ACTN    H2 4956   1.486   6.131   1.691
  496ACTN    H3 4957   1.356   6.197   1.795
  496ACTN    H4 4958   1.728   6.350   1.754
  496ACTN    H5 4959   1.648   6.440   1.630
  496ACTN    H6 4960   1.664   6.265   1.612
  497ACTN    C1 4961   0.454   4.505   1.008
  497ACTN    O1 4962   0.689   4.465   1.037
  497ACTN    C2 4963   0.584   4.510   1.084
  497ACTN    C3 4964   0.583   4.528   1.230
  497ACTN    H1 4965   0.422   4.604   0.976
  497ACTN    H2 4966   0.379   4.461   1.072
  497ACTN    H3 4967   0.467   4.444   0.918
  497ACTN    H4 4968   0.602   4.634   1.248
  497ACTN    H5 4969   0.666   4.477   1.279
  497ACTN    H6 4970   0.491   4.499   1.278
  498ACTN    C1 4971   4.652   3.888   5.429
  498ACTN    O1 4972   4.886   3.833   5.426
  498ACTN    C2 4973   4.785   3.869   5.362
  498ACTN    C3 4974   4.813   3.932   5.233
  498ACTN    H1 4975   4.580   3.812   5.398
  498ACTN    H2 4976   4.614   3.985   5.402
  498ACTN    H3 4977   4.663   3.881   5.538
  498ACTN    H4 4978   4.798   3.855   5.157
  498ACTN    H5 4979   4.918   3.961   5.222
  498ACTN    H6 4980   4.751   4.017   5.211
  499ACTN    C1 4981   2.144   7.834   4.805
  499ACTN    O1 4982   1.916   7.899   4.839
  499ACTN    C2 4983   2.015   7.837   4.881
  499ACTN    C3 4984   2.012   7.807   5.025
  499ACTN    H1 4985   2.165   7.735   4.765
  499ACTN    H2 4986   2.224   7.862   4.873
  499ACTN    H3 4987   2.140   7.904   4.721
  499ACTN    H4 4988   1.980   7.703   5.033
  499ACTN    H5 4989   1.935   7.864   5.078
  499ACTN    H6 4990   2.107   7.819   5.075
  500ACTN    C1 4991   5.657   6.411   2.413
  500ACTN    O1 4992   5.454   6.536   2.391
  500ACTN    C2 4993   5.565   6.507   2.344
  500ACTN    C3 4994   5.582   6.537   2.201
  500ACTN    H1 4995   5.745   6.460   2.454
  500ACTN    H2 4996   5.689   6.336   2.342
  500ACTN    H3 4997   5.605   6.362   2.497
  500ACTN    H4 4998   5.637   6.631   2.196
  500ACTN    H5 4999   5.488   6.557   2.151
  500ACTN    H6 5000   5.636   6.460   2.147
  501ACTN    C1 5001   1.070   3.853   5.831
  501ACTN    O1 5002   0.842   3.922   5.801
  501ACTN    C2 5003   0.962   3.953   5.797
  501ACTN    C3 5004   0.994   4.072   5.717
  501ACTN    H1 5005   1.120   3.878   5.924
  501ACTN    H2 5006   1.142   3.852   5.750
  501ACTN    H3 5007   1.026   3.753   5.843
  501ACTN    H4 5008   1.006   4.153   5.789
  501ACTN    H5 5009   0.910   4.103   5.654
  501ACTN    H6 5010   1.083   4.063   5.657
  502ACTN    C1 5011   5.562   4.580   2.736
  502ACTN    O1 5012   5.363   4.692   2.662
  502ACTN    C2 5013   5.437   4.661   2.757
  502ACTN    C3 5014   5.419   4.741   2.878
  502ACTN    H1 5015   5.553   4.480   2.778
  502ACTN    H2 5016   5.644   4.632   2.785
  502ACTN    H3 5017   5.582   4.570   2.629
  502ACTN    H4 5018   5.357   4.682   2.945
  502ACTN    H5 5019   5.361   4.832   2.860
  502ACTN    H6 5020   5.512   4.767   2.928
  503ACTN    C1 5021   7.113   0.240   2.959
  503ACTN    O1 5022   6.895   0.296   2.877
  503ACTN    C2 5023   6.987   0.321   2.957
  503ACTN    C3 5024   6.983   0.456   3.016
  503ACTN    H1 5025   7.121   0.179   3.049
  503ACTN    H2 5026   7.197   0.308   2.955
  503ACTN    H3 5027   7.115   0.172   2.874
  503ACTN    H4 5028   6.940   0.444   3.115
  503ACTN    H5 5029   6.915   0.523   2.963
  503ACTN    H6 5030   7.080   0.502   3.024
  504ACTN    C1 5031   7.607   3.926   3.348
  504ACTN    O1 5032   7.595   3.721   3.473
  504ACTN    C2 5033   7.662   3.820   3.439
  504ACTN    C3 5034   7.776   3.849   3.526
  504ACTN    H1 5035   7.655   3.925   3.250
  504ACTN    H2 5036   7.622   4.023   3.394
  504ACTN    H3 5037   7.499   3.908   3.331
  504ACTN    H4 5038   7.864   3.809   3.475
  504ACTN    H5 5039   7.772   3.795   3.621
  504ACTN    H6 5040   7.791   3.955   3.546
  505ACTN    C1 5041   1.969   4.131   1.134
  505ACTN    O1 5042   1.998   3.893   1.150
  505ACTN    C2 5043   1.980   4.001   1.209
  505ACTN    C3 5044   1.928   3.990   1.346
  505ACTN    H1 5045   2.056   4.195   1.151
  505ACTN    H2 5046   1.880   4.182   1.167
  505ACTN    H3 5047   1.964   4.112   1.026
  505ACTN    H4 5048   2.014   4.001   1.412
  505ACTN    H5 5049   1.890   3.890   1.367
  505ACTN    H6 5050   1.853   4.063   1.371
  506ACTN    C1 5051   7.663   1.207   0.425
  506ACTN    O1 5052   7.577   0.985   0.449
  506ACTN    C2 5053   7.623   1.086   0.504
  506ACTN    C3 5054   7.595   1.097   0.648
  506ACTN    H1 5055   7.771   1.222   0.425
  506ACTN    H2 5056   7.615   1.294   0.469
  506ACTN    H3 5057   7.631   1.196   0.321
  506ACTN    H4 5058   7.685   1.064   0.699
  506ACTN    H5 5059   7.517   1.028   0.681
  506ACTN    H6 5060   7.569   1.197   0.680
  507ACTN    C1 5061   2.946   4.403   4.075
  507ACTN    O1 5062   2.888   4.290   4.279
  507ACTN    C2 5063   2.878   4.392   4.209
  507ACTN    C3 5064   2.765   4.479   4.242
  507ACTN    H1 5065   3.027   4.475   4.077
  507ACTN    H2 5066   2.872   4.434   4.002
  507ACTN    H3 5067   2.989   4.306   4.047
  507ACTN    H4 5068   2.805   4.560   4.302
  507ACTN    H5 5069   2.692   4.430   4.307
  507ACTN    H6 5070   2.714   4.520   4.156
  508ACTN    C1 5071   1.371   2.904   6.523
  508ACTN    O1 5072   1.579   2.959   6.417
  508ACTN    C2 5073   1.515   2.879   6.487
  508ACTN    C3 5074   1.571   2.744   6.494
  508ACTN    H1 5075   1.359   2.927   6.628
  508ACTN    H2 5076   1.313   2.816   6.498
  508ACTN    H3 5077   1.333   2.990   6.466
  508ACTN    H4 5078   1.624   2.739   6.589
  508ACTN    H5 5079   1.647   2.726   6.418
  508ACTN    H6 5080   1.497   2.665   6.490
  509ACTN    C1 5081   1.639   3.812   5.354
  509ACTN    O1 5082   1.555   3.716   5.557
  509ACTN    C2 5083   1.654   3.746   5.488
  509ACTN    C3 5084   1.780   3.755   5.562
  509ACTN    H1 5085   1.668   3.745   5.273
  509ACTN    H2 5086   1.702   3.900   5.351
  509ACTN    H3 5087   1.535   3.841   5.337
  509ACTN    H4 5088   1.832   3.661   5.543
  509ACTN    H5 5089   1.766   3.757   5.670
  509ACTN    H6 5090   1.843   3.838   5.532
  510ACTN    C1 5091   3.784   4.045   3.595
  510ACTN    O1 5092   3.778   4.083   3.358
  510ACTN    C2 5093   3.844   4.047   3.457
  510ACTN    C3 5094   3.964   3.968   3.427
  510ACTN    H1 5095   3.827   4.122   3.659
  510ACTN    H2 5096   3.803   3.947   3.639
  510ACTN    H3 5097   3.676   4.063   3.589
  510ACTN    H4 5098   4.048   4.038   3.432
  510ACTN    H5 5099   3.965   3.932   3.324
  510ACTN    H6 5100   3.981   3.886   3.494
  511ACTN    C1 5101   0.788   2.827   0.101
  511ACTN    O1 5102   0.634   2.820   0.285
  511ACTN    C2 5103   0.726   2.880   0.228
  511ACTN    C3 5104   0.741   3.021   0.264
  511ACTN    H1 5105   0.889   2.793   0.116
  511ACTN    H2 5106   0.788   2.907   0.027
  511ACTN    H3 5107   0.729   2.743   0.064
  511ACTN    H4 5108   0.823   3.026   0.336
  511ACTN    H5 5109   0.654   3.060   0.318
  511ACTN    H6 5110   0.763   3.086   0.181
  512ACTN    C1 5111   1.302   4.265   5.549
  512ACTN    O1 5112   1.316   4.120   5.358
  512ACTN    C2 5113   1.333   4.234   5.405
  512ACTN    C3 5114   1.423   4.320   5.328
  512ACTN    H1 5115   1.215   4.330   5.558
  512ACTN    H2 5116   1.388   4.313   5.593
  512ACTN    H3 5117   1.279   4.172   5.603
  512ACTN    H4 5118   1.359   4.386   5.270
  512ACTN    H5 5119   1.482   4.265   5.254
  512ACTN    H6 5120   1.490   4.380   5.389
  513ACTN    C1 5121   0.283   0.072   3.511
  513ACTN    O1 5122   0.511   0.000   3.490
  513ACTN    C2 5123   0.407   0.041   3.434
  513ACTN    C3 5124   0.428   0.096   3.299
  513ACTN    H1 5125   0.203   0.000   3.491
  513ACTN    H2 5126   0.249   0.171   3.483
  513ACTN    H3 5127   0.303   0.068   3.619
  513ACTN    H4 5128   0.400   0.017   3.230
  513ACTN    H5 5129   0.533   0.116   3.278
  513ACTN    H6 5130   0.370   0.185   3.279
  514ACTN    C1 5131   0.146   3.093   1.370
  514ACTN    O1 5132   0.001   3.022   1.193
  514ACTN    C2 5133   0.085   2.990   1.279
  514ACTN    C3 5134   0.088   2.848   1.314
  514ACTN    H1 5135   0.251   3.110   1.348
  514ACTN    H2 5136   0.136   3.057   1.472
  514ACTN    H3 5137   0.093   3.189   1.359
  514ACTN    H4 5138   0.172   2.805   1.258
  514ACTN    H5 5139   0.000   2.794   1.278
  514ACTN    H6 5140   0.101   2.829   1.419
  515ACTN    C1 5141   6.286   4.639   5.434
  515ACTN    O1 5142   6.345   4.870   5.458
  515ACTN    C2 5143   6.260   4.781   5.474
  515ACTN    C3 5144   6.155   4.813   5.571
  515ACTN    H1 5145   6.226   4.609   5.348
  515ACTN    H2 5146   6.263   4.575   5.518
  515ACTN    H3 5147   6.391   4.627   5.406
  515ACTN    H4 5148   6.068   4.845   5.513
  515ACTN    H5 5149   6.179   4.900   5.633
  515ACTN    H6 5150   6.127   4.730   5.635
  516ACTN    C1 5151   3.518   4.676   3.930
  516ACTN    O1 5152   3.726   4.609   3.831
  516ACTN    C2 5153   3.605   4.587   3.846
  516ACTN    C3 5154   3.545   4.499   3.745
  516ACTN    H1 5155   3.485   4.626   4.021
  516ACTN    H2 5156   3.431   4.704   3.871
  516ACTN    H3 5157   3.574   4.765   3.959
  516ACTN    H4 5158   3.538   4.400   3.790
  516ACTN    H5 5159   3.610   4.484   3.658
  516ACTN    H6 5160   3.447   4.530   3.711
  517ACTN    C1 5161   2.151   6.220   3.092
  517ACTN    O1 5162   1.940   6.106   3.081
  517ACTN    C2 5163   2.031   6.166   3.020
  517ACTN    C3 5164   2.035   6.141   2.875
  517ACTN    H1 5165   2.152   6.328   3.094
  517ACTN    H2 5166   2.240   6.184   3.041
  517ACTN    H3 5167   2.151   6.185   3.196
  517ACTN    H4 5168   1.987   6.228   2.829
  517ACTN    H5 5169   1.973   6.056   2.845
  517ACTN    H6 5170   2.135   6.129   2.836
  518ACTN    C1 5171   5.401   6.558   3.017
  518ACTN    O1 5172   5.435   6.788   3.075
  518ACTN    C2 5173   5.469   6.670   3.090
  518ACTN    C3 5174   5.603   6.652   3.147
  518ACTN    H1 5175   5.343   6.495   3.084
  518ACTN    H2 5176   5.477   6.497   2.969
  518ACTN    H3 5177   5.333   6.598   2.942
  518ACTN    H4 5178   5.589   6.630   3.253
  518ACTN    H5 5179   5.663   6.743   3.145
  518ACTN    H6 5180   5.660   6.571   3.102
  519ACTN    C1 5181   4.157   5.997   0.535
  519ACTN    O1 5182   4.329   5.833   0.566
  519ACTN    C2 5183   4.300   5.953   0.550
  519ACTN    C3 5184   4.404   6.048   0.591
  519ACTN    H1 5185   4.136   6.032   0.434
  519ACTN    H2 5186   4.139   6.078   0.605
  519ACTN    H3 5187   4.089   5.914   0.555
  519ACTN    H4 5188   4.454   6.079   0.499
  519ACTN    H5 5189   4.482   6.002   0.651
  519ACTN    H6 5190   4.366   6.135   0.642
  520ACTN    C1 5191   3.789   7.475   7.068
  520ACTN    O1 5192   3.925   7.672   7.051
  520ACTN    C2 5193   3.850   7.602   7.121
  520ACTN    C3 5194   3.862   7.624   7.266
  520ACTN    H1 5195   3.681   7.485   7.055
  520ACTN    H2 5196   3.809   7.395   7.139
  520ACTN    H3 5197   3.832   7.451   6.970
  520ACTN    H4 5198   3.778   7.688   7.293
  520ACTN    H5 5199   3.950   7.682   7.292
  520ACTN    H6 5200   3.859   7.534   7.325
  521ACTN    C1 5201   3.681   2.501   1.356
  521ACTN    O1 5202   3.766   2.316   1.228
  521ACTN    C2 5203   3.751   2.439   1.238
  521ACTN    C3 5204   3.840   2.520   1.154
  521ACTN    H1 5205   3.585   2.543   1.329
  521ACTN    H2 5206   3.744   2.579   1.396
  521ACTN    H3 5207   3.663   2.425   1.433
  521ACTN    H4 5208   3.781   2.549   1.067
  521ACTN    H5 5209   3.923   2.461   1.113
  521ACTN    H6 5210   3.879   2.608   1.203
  522ACTN    C1 5211   4.556   4.377   4.071
  522ACTN    O1 5212   4.775   4.296   4.126
  522ACTN    C2 5213   4.658   4.269   4.096
  522ACTN    C3 5214   4.637   4.133   4.044
  522ACTN    H1 5215   4.481   4.380   4.149
  522ACTN    H2 5216   4.508   4.357   3.976
  522ACTN    H3 5217   4.605   4.475   4.068
  522ACTN    H4 5218   4.598   4.075   4.128
  522ACTN    H5 5219   4.731   4.084   4.017
  522ACTN    H6 5220   4.568   4.128   3.961
  523ACTN    C1 5221   7.469   7.131   4.775
  523ACTN    O1 5222   7.432   6.988   4.586
  523ACTN    C2 5223   7.489   7.005   4.695
  523ACTN    C3 5224   7.538   6.883   4.759
  523ACTN    H1 5225   7.559   7.192   4.778
  523ACTN    H2 5226   7.442   7.103   4.876
  523ACTN    H3 5227   7.389   7.192   4.731
  523ACTN    H4 5228   7.645   6.879   4.737
  523ACTN    H5 5229   7.497   6.792   4.714
  523ACTN    H6 5230   7.523   6.880   4.866
  524ACTN    C1 5231   5.946   2.096   0.747
  524ACTN    O1 5232   5.893   2.319   0.821
  524ACTN    C2 5233   5.898   2.197   0.848
  524ACTN    C3 5234   5.898   2.165   0.991
  524ACTN    H1 5235   5.865   2.032   0.713
  524ACTN    H2 5236   6.022   2.035   0.794
  524ACTN    H3 5237   5.987   2.148   0.660
  524ACTN    H4 5238   5.796   2.137   1.015
  524ACTN    H5 5239   5.918   2.253   1.054
  524ACTN    H6 5240   5.966   2.086   1.019
  525ACTN    C1 5241   2.329   1.083   4.329
  525ACTN    O1 5242   2.564   1.049   4.292
  525ACTN    C2 5243   2.456   1.091   4.248
  525ACTN    C3 5244   2.467   1.186   4.136
  525ACTN    H1 5245   2.259   1.012   4.287
  525ACTN    H2 5246   2.284   1.182   4.331
  525ACTN    H3 5247   2.352   1.051   4.431
  525ACTN    H4 5248   2.447   1.128   4.046
  525ACTN    H5 5249   2.569   1.224   4.124
  525ACTN    H6 5250   2.398   1.269   4.142
  526ACTN    C1 5251   3.358   5.505   2.781
  526ACTN    O1 5252   3.131   5.583   2.766
  526ACTN    C2 5253   3.252   5.607   2.749
  526ACTN    C3 5254   3.281   5.719   2.659
  526ACTN    H1 5255   3.417   5.534   2.867
  526ACTN    H2 5256   3.422   5.496   2.694
  526ACTN    H3 5257   3.311   5.409   2.803
  526ACTN    H4 5258   3.303   5.805   2.723
  526ACTN    H5 5259   3.194   5.750   2.601
  526ACTN    H6 5260   3.364   5.701   2.592
  527ACTN    C1 5261   0.727   5.759   5.242
  527ACTN    O1 5262   0.685   5.598   5.069
  527ACTN    C2 5263   0.768   5.653   5.144
  527ACTN    C3 5264   0.894   5.581   5.161
  527ACTN    H1 5265   0.764   5.857   5.214
  527ACTN    H2 5266   0.766   5.732   5.340
  527ACTN    H3 5267   0.617   5.765   5.247
  527ACTN    H4 5268   0.966   5.629   5.095
  527ACTN    H5 5269   0.889   5.477   5.125
  527ACTN    H6 5270   0.933   5.582   5.262
  528ACTN    C1 5271   7.394   2.627   5.062
  528ACTN    O1 5272   7.499   2.842   5.072
  528ACTN    C2 5273   7.445   2.749   5.133
  528ACTN    C3 5274   7.473   2.744   5.277
  528ACTN    H1 5275   7.285   2.622   5.063
  528ACTN    H2 5276   7.435   2.539   5.111
  528ACTN    H3 5277   7.426   2.629   4.957
  528ACTN    H4 5278   7.387   2.788   5.326
  528ACTN    H5 5279   7.557   2.809   5.306
  528ACTN    H6 5280   7.491   2.645   5.316
  529ACTN    C1 5281   2.441   6.764   7.854
  529ACTN    O1 5282   2.484   6.999   7.870
  529ACTN    C2 5283   2.450   6.903   7.799
  529ACTN    C3 5284   2.378   6.939   7.676
  529ACTN    H1 5285   2.518   6.699   7.814
  529ACTN    H2 5286   2.344   6.723   7.829
  529ACTN    H3 5287   2.454   6.766   7.963
  529ACTN    H4 5288   2.451   6.934   7.596
  529ACTN    H5 5289   2.344   7.043   7.677
  529ACTN    H6 5290   2.295   6.874   7.653
  530ACTN    C1 5291   6.868   6.925   4.607
  530ACTN    O1 5292   7.018   7.112   4.601
  530ACTN    C2 5293   6.902   7.070   4.591
  530ACTN    C3 5294   6.798   7.173   4.607
  530ACTN    H1 5295   6.837   6.880   4.513
  530ACTN    H2 5296   6.788   6.916   4.679
  530ACTN    H3 5297   6.956   6.870   4.642
  530ACTN    H4 5298   6.766   7.199   4.506
  530ACTN    H5 5299   6.837   7.266   4.649
  530ACTN    H6 5300   6.713   7.140   4.665
  531ACTN    C1 5301   5.325   5.773   4.130
  531ACTN    O1 5302   5.365   5.798   4.365
  531ACTN    C2 5303   5.295   5.748   4.275
  531ACTN    C3 5304   5.215   5.633   4.315
  531ACTN    H1 5305   5.249   5.835   4.082
  531ACTN    H2 5306   5.330   5.677   4.079
  531ACTN    H3 5307   5.421   5.826   4.120
  531ACTN    H4 5308   5.114   5.670   4.331
  531ACTN    H5 5309   5.245   5.592   4.412
  531ACTN    H6 5310   5.213   5.552   4.242
  532ACTN    C1 5311   5.518   4.828   5.994
  532ACTN    O1 5312   5.341   4.772   6.146
  532ACTN    C2 5313   5.438   4.734   6.078
  532ACTN    C3 5314   5.494   4.604   6.119
  532ACTN    H1 5315   5.503   4.811   5.887
  532ACTN    H2 5316   5.623   4.815   6.018
  532ACTN    H3 5317   5.488   4.932   6.015
  532ACTN    H4 5318   5.454   4.531   6.050
  532ACTN    H5 5319   5.458   4.572   6.217
  532ACTN    H6 5320   5.602   4.601   6.117
  533ACTN    C1 5321   1.555   0.186   3.518
  533ACTN    O1 5322   1.362   0.283   3.412
  533ACTN    C2 5323   1.448   0.291   3.502
  533ACTN    C3 5324   1.466   0.425   3.559
  533ACTN    H1 5325   1.540   0.127   3.609
  533ACTN    H2 5326   1.651   0.236   3.523
  533ACTN    H3 5327   1.553   0.117   3.433
  533ACTN    H4 5328   1.410   0.425   3.653
  533ACTN    H5 5329   1.419   0.503   3.499
  533ACTN    H6 5330   1.569   0.451   3.578
  534ACTN    C1 5331   7.130   2.871   4.194
  534ACTN    O1 5332   7.335   2.761   4.253
  534ACTN    C2 5333   7.265   2.863   4.261
  534ACTN    C3 5334   7.299   2.954   4.370
  534ACTN    H1 5335   7.130   2.940   4.110
  534ACTN    H2 5336   7.057   2.904   4.268
  534ACTN    H3 5337   7.101   2.772   4.156
  534ACTN    H4 5338   7.358   3.034   4.325
  534ACTN    H5 5339   7.365   2.909   4.444
  534ACTN    H6 5340   7.214   2.997   4.421
  535ACTN    C1 5341   6.912   1.280   1.699
  535ACTN    O1 5342   7.134   1.191   1.720
  535ACTN    C2 5343   7.042   1.225   1.645
  535ACTN    C3 5344   7.081   1.250   1.506
  535ACTN    H1 5345   6.830   1.211   1.683
  535ACTN    H2 5346   6.891   1.373   1.648
  535ACTN    H3 5347   6.921   1.297   1.806
  535ACTN    H4 5348   7.054   1.161   1.450
  535ACTN    H5 5349   7.189   1.259   1.494
  535ACTN    H6 5350   7.034   1.337   1.461
  536ACTN    C1 5351   4.086   0.889   1.493
  536ACTN    O1 5352   3.923   0.716   1.526
  536ACTN    C2 5353   4.033   0.763   1.557
  536ACTN    C3 5354   4.087   0.717   1.686
  536ACTN    H1 5355   4.171   0.869   1.428
  536ACTN    H2 5356   4.117   0.957   1.572
  536ACTN    H3 5357   4.008   0.936   1.433
  536ACTN    H4 5358   4.160   0.639   1.661
  536ACTN    H5 5359   4.012   0.666   1.747
  536ACTN    H6 5360   4.135   0.794   1.744
  537ACTN    C1 5361   5.297   7.945   4.171
  537ACTN    O1 5362   5.394   8.000   3.959
  537ACTN    C2 5363   5.403   7.936   4.065
  537ACTN    C3 5364   5.497   7.823   4.062
  537ACTN    H1 5365   5.332   7.997   4.260
  537ACTN    H2 5366   5.268   7.844   4.198
  537ACTN    H3 5367   5.210   8.000   4.133
  537ACTN    H4 5368   5.588   7.858   4.110
  537ACTN    H5 5369   5.527   7.796   3.961
  537ACTN    H6 5370   5.460   7.735   4.113
  538ACTN    C1 5371   1.552   0.545   7.115
  538ACTN    O1 5372   1.635   0.322   7.141
  538ACTN    C2 5373   1.592   0.410   7.064
  538ACTN    C3 5374   1.622   0.389   6.922
  538ACTN    H1 5375   1.444   0.561   7.109
  538ACTN    H2 5376   1.602   0.620   7.054
  538ACTN    H3 5377   1.582   0.557   7.220
  538ACTN    H4 5378   1.532   0.347   6.877
  538ACTN    H5 5379   1.699   0.313   6.906
  538ACTN    H6 5380   1.650   0.479   6.870
  539ACTN    C1 5381   3.637   6.463   7.221
  539ACTN    O1 5382   3.720   6.311   7.055
  539ACTN    C2 5383   3.737   6.417   7.119
  539ACTN    C3 5384   3.874   6.468   7.120
  539ACTN    H1 5385   3.583   6.552   7.188
  539ACTN    H2 5386   3.690   6.486   7.313
  539ACTN    H3 5387   3.563   6.385   7.240
  539ACTN    H4 5388   3.877   6.547   7.044
  539ACTN    H5 5389   3.947   6.394   7.085
  539ACTN    H6 5390   3.905   6.508   7.215
  540ACTN    C1 5391   2.153   5.269   2.225
  540ACTN    O1 5392   2.087   5.499   2.218
  540ACTN    C2 5393   2.066   5.383   2.180
  540ACTN    C3 5394   1.932   5.358   2.126
  540ACTN    H1 5395   2.214   5.229   2.145
  540ACTN    H2 5396   2.089   5.190   2.263
  540ACTN    H3 5397   2.221   5.302   2.305
  540ACTN    H4 5398   1.942   5.360   2.018
  540ACTN    H5 5399   1.862   5.438   2.149
  540ACTN    H6 5400   1.890   5.263   2.156
  541ACTN    C1 5401   7.005   2.649   3.740
  541ACTN    O1 5402   7.055   2.495   3.917
  541ACTN    C2 5403   6.984   2.523   3.819
  541ACTN    C3 5404   6.911   2.411   3.761
  541ACTN    H1 5405   6.924   2.720   3.754
  541ACTN    H2 5406   7.012   2.623   3.635
  541ACTN    H3 5407   7.098   2.699   3.772
  541ACTN    H4 5408   6.809   2.417   3.800
  541ACTN    H5 5409   6.948   2.314   3.796
  541ACTN    H6 5410   6.909   2.410   3.653
  542ACTN    C1 5411   7.290   5.170   5.963
  542ACTN    O1 5412   7.385   5.378   6.036
  542ACTN    C2 5413   7.364   5.299   5.942
  542ACTN    C3 5414   7.376   5.357   5.808
  542ACTN    H1 5415   7.355   5.084   5.953
  542ACTN    H2 5416   7.211   5.164   5.889
  542ACTN    H3 5417   7.247   5.168   6.064
  542ACTN    H4 5418   7.475   5.329   5.771
  542ACTN    H5 5419   7.378   5.466   5.810
  542ACTN    H6 5420   7.300   5.324   5.739
  543ACTN    C1 5421   3.976   5.486   1.657
  543ACTN    O1 5422   4.058   5.353   1.839
  543ACTN    C2 5423   4.005   5.357   1.726
  543ACTN    C3 5424   4.013   5.231   1.651
  543ACTN    H1 5425   3.869   5.506   1.650
  543ACTN    H2 5426   4.017   5.481   1.556
  543ACTN    H3 5427   4.022   5.569   1.712
  543ACTN    H4 5428   3.917   5.182   1.662
  543ACTN    H5 5429   4.085   5.161   1.693
  543ACTN    H6 5430   4.035   5.245   1.545
  544ACTN    C1 5431   6.016   0.652   5.883
  544ACTN    O1 5432   5.818   0.526   5.934
  544ACTN    C2 5433   5.918   0.586   5.977
  544ACTN    C3 5434   5.913   0.624   6.118
  544ACTN    H1 5435   6.111   0.600   5.881
  544ACTN    H2 5436   6.031   0.754   5.917
  544ACTN    H3 5437   5.975   0.652   5.781
  544ACTN    H4 5438   5.971   0.549   6.172
  544ACTN    H5 5439   5.812   0.616   6.160
  544ACTN    H6 5440   5.953   0.722   6.139
  545ACTN    C1 5441   7.953   3.181   3.992
  545ACTN    O1 5442   7.750   3.282   4.071
  545ACTN    C2 5443   7.806   3.182   4.023
  545ACTN    C3 5444   7.732   3.056   4.038
  545ACTN    H1 5445   7.972   3.180   3.885
  545ACTN    H2 5446   7.997   3.093   4.037
  545ACTN    H3 5447   8.000   3.272   4.033
  545ACTN    H4 5448   7.683   3.038   3.943
  545ACTN    H5 5449   7.651   3.063   4.111
  545ACTN    H6 5450   7.795   2.971   4.063
  546ACTN    C1 5451   0.844   4.799   6.304
  546ACTN    O1 5452   1.063   4.896   6.285
  546ACTN    C2 5453   0.967   4.840   6.228
  546ACTN    C3 5454   0.963   4.856   6.083
  546ACTN    H1 5455   0.836   4.691   6.312
  546ACTN    H2 5456   0.757   4.838   6.252
  546ACTN    H3 5457   0.848   4.840   6.406
  546ACTN    H4 5458   1.004   4.764   6.041
  546ACTN    H5 5459   1.030   4.934   6.047
  546ACTN    H6 5460   0.864   4.873   6.043
  547ACTN    C1 5461   2.961   1.921   7.437
  547ACTN    O1 5462   3.001   1.732   7.579
  547ACTN    C2 5463   2.989   1.855   7.569
  547ACTN    C3 5464   2.960   1.925   7.695
  547ACTN    H1 5465   3.046   1.979   7.402
  547ACTN    H2 5466   2.875   1.987   7.449
  547ACTN    H3 5467   2.939   1.845   7.361
  547ACTN    H4 5468   3.054   1.967   7.729
  547ACTN    H5 5469   2.929   1.857   7.775
  547ACTN    H6 5470   2.886   2.004   7.686
  548ACTN    C1 5471   5.076   0.910   2.030
  548ACTN    O1 5472   4.858   1.000   2.073
  548ACTN    C2 5473   4.928   0.900   2.050
  548ACTN    C3 5474   4.866   0.772   2.085
  548ACTN    H1 5475   5.105   0.890   1.927
  548ACTN    H2 5476   5.124   0.837   2.095
  548ACTN    H3 5477   5.111   1.011   2.055
  548ACTN    H4 5478   4.827   0.731   1.992
  548ACTN    H5 5479   4.778   0.784   2.149
  548ACTN    H6 5480   4.933   0.701   2.130
  549ACTN    C1 5481   0.169   4.758   3.276
  549ACTN    O1 5482   0.060   4.941   3.386
  549ACTN    C2 5483   0.136   4.843   3.396
  549ACTN    C3 5484   0.221   4.841   3.514
  549ACTN    H1 5485   0.124   4.659   3.283
  549ACTN    H2 5486   0.277   4.748   3.271
  549ACTN    H3 5487   0.131   4.805   3.185
  549ACTN    H4 5488   0.174   4.774   3.586
  549ACTN    H5 5489   0.225   4.938   3.565
  549ACTN    H6 5490   0.323   4.808   3.495
  550ACTN    C1 5491   7.158   0.826   3.788
  550ACTN    O1 5492   6.939   0.730   3.773
  550ACTN    C2 5493   7.009   0.833   3.778
  550ACTN    C3 5494   6.942   0.955   3.731
  550ACTN    H1 5495   7.194   0.859   3.885
  550ACTN    H2 5496   7.201   0.890   3.711
  550ACTN    H3 5497   7.192   0.723   3.774
  550ACTN    H4 5498   6.910   1.008   3.821
  550ACTN    H5 5499   6.850   0.934   3.676
  550ACTN    H6 5500   7.006   1.019   3.672
  551ACTN    C1 5501   6.800   4.439   3.080
  551ACTN    O1 5502   6.909   4.239   3.004
  551ACTN    C2 5503   6.875   4.311   3.100
  551ACTN    C3 5504   6.874   4.244   3.230
  551ACTN    H1 5505   6.861   4.526   3.103
  551ACTN    H2 5506   6.713   4.439   3.145
  551ACTN    H3 5507   6.769   4.448   2.975
  551ACTN    H4 5508   6.967   4.272   3.280
  551ACTN    H5 5509   6.879   4.135   3.222
  551ACTN    H6 5510   6.790   4.270   3.293
  552ACTN    C1 5511   1.181   3.694   0.068
  552ACTN    O1 5512   1.107   3.801   0.269
  552ACTN    C2 5513   1.102   3.795   0.145
  552ACTN    C3 5514   0.986   3.861   0.084
  552ACTN    H1 5515   1.262   3.739   0.011
  552ACTN    H2 5516   1.114   3.642   0.000
  552ACTN    H3 5517   1.227   3.621   0.137
  552ACTN    H4 5518   1.021   3.958   0.049
  552ACTN    H5 5519   0.908   3.885   0.157
  552ACTN    H6 5520   0.942   3.806   0.002
  553ACTN    C1 5521   7.243   5.427   0.467
  553ACTN    O1 5522   7.236   5.640   0.577
  553ACTN    C2 5523   7.278   5.523   0.577
  553ACTN    C3 5524   7.395   5.498   0.663
  553ACTN    H1 5525   7.176   5.348   0.501
  553ACTN    H2 5526   7.335   5.383   0.430
  553ACTN    H3 5527   7.192   5.480   0.386
  553ACTN    H4 5528   7.356   5.453   0.754
  553ACTN    H5 5529   7.443   5.591   0.696
  553ACTN    H6 5530   7.469   5.433   0.619
  554ACTN    C1 5531   6.305   6.247   1.484
  554ACTN    O1 5532   6.377   6.448   1.374
  554ACTN    C2 5533   6.294   6.392   1.448
  554ACTN    C3 5534   6.212   6.483   1.528
  554ACTN    H1 5535   6.227   6.187   1.438
  554ACTN    H2 5536   6.298   6.238   1.592
  554ACTN    H3 5537   6.402   6.207   1.451
  554ACTN    H4 5538   6.117   6.493   1.477
  554ACTN    H5 5539   6.252   6.585   1.531
  554ACTN    H6 5540   6.195   6.449   1.630
  555ACTN    C1 5541   1.649   5.016   0.411
  555ACTN    O1 5542   1.770   4.878   0.256
  555ACTN    C2 5543   1.728   4.894   0.372
  555ACTN    C3 5544   1.720   4.772   0.452
  555ACTN    H1 5545   1.706   5.080   0.478
  555ACTN    H2 5546   1.558   4.984   0.461
  555ACTN    H3 5547   1.624   5.075   0.322
  555ACTN    H4 5548   1.809   4.772   0.516
  555ACTN    H5 5549   1.730   4.681   0.392
  555ACTN    H6 5550   1.632   4.764   0.514
  556ACTN    C1 5551   2.014   5.399   2.821
  556ACTN    O1 5552   1.828   5.302   2.937
  556ACTN    C2 5553   1.950   5.325   2.935
  556ACTN    C3 5554   2.018   5.316   3.065
  556ACTN    H1 5555   2.078   5.334   2.761
  556ACTN    H2 5556   2.074   5.479   2.862
  556ACTN    H3 5557   1.937   5.439   2.754
  556ACTN    H4 5558   2.066   5.218   3.067
  556ACTN    H5 5559   1.947   5.314   3.148
  556ACTN    H6 5560   2.091   5.393   3.082
  557ACTN    C1 5561   3.644   3.568   3.516
  557ACTN    O1 5562   3.739   3.621   3.730
  557ACTN    C2 5563   3.724   3.537   3.639
  557ACTN    C3 5564   3.822   3.428   3.639
  557ACTN    H1 5565   3.551   3.511   3.513
  557ACTN    H2 5566   3.703   3.543   3.429
  557ACTN    H3 5567   3.617   3.675   3.514
  557ACTN    H4 5568   3.773   3.343   3.686
  557ACTN    H5 5569   3.908   3.449   3.703
  557ACTN    H6 5570   3.857   3.401   3.540
  558ACTN    C1 5571   4.716   4.771   1.779
  558ACTN    O1 5572   4.477   4.747   1.772
  558ACTN    C2 5573   4.587   4.723   1.719
  558ACTN    C3 5574   4.586   4.612   1.623
  558ACTN    H1 5575   4.762   4.849   1.719
  558ACTN    H2 5576   4.784   4.686   1.786
  558ACTN    H3 5577   4.698   4.812   1.879
  558ACTN    H4 5578   4.581   4.658   1.524
  558ACTN    H5 5579   4.496   4.551   1.630
  558ACTN    H6 5580   4.673   4.548   1.628
  559ACTN    C1 5581   0.093   6.651   3.283
  559ACTN    O1 5582  -0.000   6.850   3.380
  559ACTN    C2 5583   0.098   6.774   3.369
  559ACTN    C3 5584   0.226   6.832   3.408
  559ACTN    H1 5585   0.094   6.560   3.342
  559ACTN    H2 5586   0.179   6.652   3.217
  559ACTN    H3 5587   0.000   6.650   3.224
  559ACTN    H4 5588   0.247   6.796   3.509
  559ACTN    H5 5589   0.222   6.941   3.418
  559ACTN    H6 5590   0.308   6.806   3.343
  560ACTN    C1 5591   6.051   5.273   6.955
  560ACTN    O1 5592   6.147   5.053   6.970
  560ACTN    C2 5593   6.109   5.155   7.029
  560ACTN    C3 5594   6.082   5.138   7.173
  560ACTN    H1 5595   6.117   5.359   6.957
  560ACTN    H2 5596   5.956   5.299   7.001
  560ACTN    H3 5597   6.035   5.246   6.850
  560ACTN    H4 5598   6.170   5.177   7.224
  560ACTN    H5 5599   6.077   5.033   7.202
  560ACTN    H6 5600   5.994   5.190   7.208
  561ACTN    C1 5601   2.567   5.563   4.021
  561ACTN    O1 5602   2.690   5.726   4.147
  561ACTN    C2 5603   2.582   5.667   4.128
  561ACTN    C3 5604   2.489   5.672   4.241
  561ACTN    H1 5605   2.503   5.597   3.940
  561ACTN    H2 5606   2.524   5.474   4.066
  561ACTN    H3 5607   2.665   5.539   3.978
  561ACTN    H4 5608   2.417   5.750   4.216
  561ACTN    H5 5609   2.536   5.707   4.333
  561ACTN    H6 5610   2.437   5.579   4.260
  562ACTN    C1 5611   1.888   4.925   2.261
  562ACTN    O1 5612   1.660   4.970   2.320
  562ACTN    C2 5613   1.751   4.981   2.236
  562ACTN    C3 5614   1.706   5.011   2.099
  562ACTN    H1 5615   1.962   5.004   2.275
  562ACTN    H2 5616   1.916   4.865   2.175
  562ACTN    H3 5617   1.888   4.864   2.352
  562ACTN    H4 5618   1.720   5.118   2.085
  562ACTN    H5 5619   1.599   4.995   2.086
  562ACTN    H6 5620   1.760   4.957   2.023
  563ACTN    C1 5621   2.134   4.843   0.087
  563ACTN    O1 5622   2.254   5.013   0.206
  563ACTN    C2 5623   2.226   4.892   0.195
  563ACTN    C3 5624   2.319   4.801   0.261
  563ACTN    H1 5625   2.040   4.807   0.127
  563ACTN    H2 5626   2.184   4.761   0.035
  563ACTN    H3 5627   2.112   4.924   0.016
  563ACTN    H4 5628   2.272   4.773   0.355
  563ACTN    H5 5629   2.412   4.850   0.291
  563ACTN    H6 5630   2.342   4.712   0.204
  564ACTN    C1 5631   4.365   1.774   3.360
  564ACTN    O1 5632   4.200   1.780   3.185
  564ACTN    C2 5633   4.226   1.759   3.305
  564ACTN    C3 5634   4.110   1.762   3.395
  564ACTN    H1 5635   4.408   1.678   3.387
  564ACTN    H2 5636   4.360   1.837   3.448
  564ACTN    H3 5637   4.430   1.819   3.285
  564ACTN    H4 5638   4.082   1.658   3.412
  564ACTN    H5 5639   4.021   1.806   3.348
  564ACTN    H6 5640   4.128   1.811   3.489
  565ACTN    C1 5641   6.358   1.718   2.608
  565ACTN    O1 5642   6.260   1.866   2.447
  565ACTN    C2 5643   6.363   1.814   2.493
  565ACTN    C3 5644   6.480   1.817   2.404
  565ACTN    H1 5645   6.401   1.760   2.699
  565ACTN    H2 5646   6.413   1.628   2.581
  565ACTN    H3 5647   6.254   1.691   2.631
  565ACTN    H4 5648   6.542   1.900   2.439
  565ACTN    H5 5649   6.453   1.843   2.302
  565ACTN    H6 5650   6.538   1.727   2.404
  566ACTN    C1 5651   0.071   4.457   3.727
  566ACTN    O1 5652  -0.001   4.289   3.572
  566ACTN    C2 5653   0.039   4.405   3.590
  566ACTN    C3 5654   0.093   4.471   3.470
  566ACTN    H1 5655  -0.000   4.532   3.760
  566ACTN    H2 5656   0.170   4.502   3.724
  566ACTN    H3 5657   0.069   4.376   3.800
  566ACTN    H4 5658   0.013   4.535   3.433
  566ACTN    H5 5659   0.112   4.400   3.389
  566ACTN    H6 5660   0.182   4.530   3.489
  567ACTN    C1 5661   0.343   1.119   4.094
  567ACTN    O1 5662   0.403   1.288   4.253
  567ACTN    C2 5663   0.431   1.227   4.149
  567ACTN    C3 5664   0.528   1.295   4.062
  567ACTN    H1 5665   0.389   1.020   4.102
  567ACTN    H2 5666   0.323   1.140   3.989
  567ACTN    H3 5667   0.249   1.115   4.150
  567ACTN    H4 5668   0.624   1.248   4.081
  567ACTN    H5 5669   0.543   1.400   4.090
  567ACTN    H6 5670   0.505   1.289   3.957
  568ACTN    C1 5671   4.835   4.177   6.747
  568ACTN    O1 5672   4.677   4.286   6.892
  568ACTN    C2 5673   4.735   4.284   6.782
  568ACTN    C3 5674   4.669   4.361   6.676
  568ACTN    H1 5675   4.936   4.217   6.741
  568ACTN    H2 5676   4.807   4.134   6.652
  568ACTN    H3 5677   4.835   4.100   6.825
  568ACTN    H4 5678   4.723   4.455   6.669
  568ACTN    H5 5679   4.567   4.390   6.702
  568ACTN    H6 5680   4.669   4.312   6.579
  569ACTN    C1 5681   1.910   1.580   7.228
  569ACTN    O1 5682   1.702   1.640   7.330
  569ACTN    C2 5683   1.763   1.566   7.251
  569ACTN    C3 5684   1.694   1.441   7.218
  569ACTN    H1 5685   1.933   1.617   7.128
  569ACTN    H2 5686   1.956   1.483   7.241
  569ACTN    H3 5687   1.953   1.651   7.300
  569ACTN    H4 5688   1.647   1.457   7.121
  569ACTN    H5 5689   1.610   1.420   7.285
  569ACTN    H6 5690   1.758   1.355   7.213
  570ACTN    C1 5691   5.921   1.188   6.937
  570ACTN    O1 5692   6.137   1.201   6.834
  570ACTN    C2 5693   6.058   1.246   6.919
  570ACTN    C3 5694   6.120   1.324   7.027
  570ACTN    H1 5695   5.843   1.257   6.904
  570ACTN    H2 5696   5.906   1.165   7.042
  570ACTN    H3 5697   5.911   1.097   6.877
  570ACTN    H4 5698   6.105   1.429   7.001
  570ACTN    H5 5699   6.229   1.312   7.031
  570ACTN    H6 5700   6.079   1.305   7.125
  571ACTN    C1 5701   0.363   0.550   6.841
  571ACTN    O1 5702   0.274   0.683   6.663
  571ACTN    C2 5703   0.368   0.613   6.705
  571ACTN    C3 5704   0.458   0.562   6.602
  571ACTN    H1 5705   0.435   0.595   6.910
  571ACTN    H2 5706   0.386   0.444   6.830
  571ACTN    H3 5707   0.264   0.562   6.885
  571ACTN    H4 5708   0.546   0.628   6.603
  571ACTN    H5 5709   0.418   0.573   6.501
  571ACTN    H6 5710   0.490   0.460   6.617
  572ACTN    C1 5711   3.722   5.621   2.720
  572ACTN    O1 5712   3.757   5.798   2.562
  572ACTN    C2 5713   3.717   5.682   2.583
  572ACTN    C3 5714   3.628   5.628   2.480
  572ACTN    H1 5715   3.796   5.541   2.726
  572ACTN    H2 5716   3.625   5.580   2.743
  572ACTN    H3 5717   3.750   5.697   2.794
  572ACTN    H4 5718   3.690   5.564   2.417
  572ACTN    H5 5719   3.590   5.705   2.413
  572ACTN    H6 5720   3.545   5.570   2.520
  573ACTN    C1 5721   1.430   4.070   4.092
  573ACTN    O1 5722   1.486   4.262   3.960
  573ACTN    C2 5723   1.523   4.154   4.010
  573ACTN    C3 5724   1.643   4.096   3.949
  573ACTN    H1 5725   1.458   4.068   4.197
  573ACTN    H2 5726   1.433   3.969   4.053
  573ACTN    H3 5727   1.328   4.110   4.086
  573ACTN    H4 5728   1.726   4.121   4.015
  573ACTN    H5 5729   1.669   4.142   3.854
  573ACTN    H6 5730   1.638   3.989   3.936
  574ACTN    C1 5731   3.342   6.256   1.816
  574ACTN    O1 5732   3.322   6.490   1.770
  574ACTN    C2 5733   3.379   6.400   1.834
  574ACTN    C3 5734   3.509   6.437   1.890
  574ACTN    H1 5735   3.292   6.215   1.905
  574ACTN    H2 5736   3.432   6.199   1.797
  574ACTN    H3 5737   3.272   6.245   1.732
  574ACTN    H4 5738   3.491   6.459   1.995
  574ACTN    H5 5739   3.548   6.530   1.849
  574ACTN    H6 5740   3.584   6.360   1.882
  575ACTN    C1 5741   6.893   2.431   2.727
  575ACTN    O1 5742   6.957   2.230   2.840
  575ACTN    C2 5743   6.982   2.349   2.816
  575ACTN    C3 5744   7.072   2.414   2.911
  575ACTN    H1 5745   6.942   2.457   2.633
  575ACTN    H2 5746   6.867   2.523   2.779
  575ACTN    H3 5747   6.802   2.376   2.702
  575ACTN    H4 5748   7.170   2.415   2.864
  575ACTN    H5 5749   7.086   2.356   3.003
  575ACTN    H6 5750   7.044   2.515   2.938
  576ACTN    C1 5751   3.269   7.619   7.558
  576ACTN    O1 5752   3.056   7.651   7.663
  576ACTN    C2 5753   3.121   7.645   7.557
  576ACTN    C3 5754   3.042   7.622   7.436
  576ACTN    H1 5755   3.326   7.707   7.527
  576ACTN    H2 5756   3.290   7.538   7.489
  576ACTN    H3 5757   3.302   7.592   7.659
  576ACTN    H4 5758   3.029   7.720   7.389
  576ACTN    H5 5759   2.940   7.589   7.459
  576ACTN    H6 5760   3.087   7.553   7.366
  577ACTN    C1 5761   0.439   4.213   5.567
  577ACTN    O1 5762   0.221   4.181   5.662
  577ACTN    C2 5763   0.340   4.210   5.681
  577ACTN    C3 5764   0.369   4.282   5.805
  577ACTN    H1 5765   0.511   4.131   5.574
  577ACTN    H2 5766   0.492   4.307   5.570
  577ACTN    H3 5767   0.387   4.201   5.471
  577ACTN    H4 5768   0.406   4.207   5.875
  577ACTN    H5 5769   0.278   4.321   5.852
  577ACTN    H6 5770   0.441   4.362   5.795
  578ACTN    C1 5771   3.180   7.602   4.106
  578ACTN    O1 5772   3.184   7.444   3.925
  578ACTN    C2 5773   3.202   7.466   4.046
  578ACTN    C3 5774   3.203   7.346   4.131
  578ACTN    H1 5775   3.273   7.648   4.136
  578ACTN    H2 5776   3.115   7.591   4.192
  578ACTN    H3 5777   3.133   7.668   4.032
  578ACTN    H4 5778   3.307   7.323   4.150
  578ACTN    H5 5779   3.163   7.258   4.080
  578ACTN    H6 5780   3.151   7.359   4.225
  579ACTN    C1 5781   6.116   6.376   0.836
  579ACTN    O1 5782   5.894   6.316   0.902
  579ACTN    C2 5783   6.002   6.368   0.933
  579ACTN    C3 5784   5.997   6.457   1.049
  579ACTN    H1 5785   6.199   6.311   0.864
  579ACTN    H2 5786   6.151   6.479   0.832
  579ACTN    H3 5787   6.083   6.345   0.736
  579ACTN    H4 5788   6.035   6.399   1.134
  579ACTN    H5 5789   5.895   6.484   1.077
  579ACTN    H6 5790   6.056   6.548   1.038
  580ACTN    C1 5791   0.300   3.309   0.866
  580ACTN    O1 5792   0.348   3.474   1.033
  580ACTN    C2 5793   0.299   3.364   1.006
  580ACTN    C3 5794   0.281   3.274   1.120
  580ACTN    H1 5795   0.201   3.306   0.822
  580ACTN    H2 5796   0.341   3.209   0.868
  580ACTN    H3 5797   0.362   3.373   0.802
  580ACTN    H4 5798   0.176   3.280   1.148
  580ACTN    H5 5799   0.335   3.307   1.209
  580ACTN    H6 5800   0.306   3.171   1.100
  581ACTN    C1 5801   3.150   7.670   7.011
  581ACTN    O1 5802   3.292   7.710   7.201
  581ACTN    C2 5803   3.272   7.646   7.096
  581ACTN    C3 5804   3.391   7.582   7.039
  581ACTN    H1 5805   3.081   7.585   7.014
  581ACTN    H2 5806   3.182   7.686   6.909
  581ACTN    H3 5807   3.095   7.758   7.048
  581ACTN    H4 5808   3.386   7.477   7.069
  581ACTN    H5 5809   3.484   7.619   7.083
  581ACTN    H6 5810   3.397   7.588   6.931
  582ACTN    C1 5811   6.037   5.838   0.781
  582ACTN    O1 5812   6.079   5.610   0.845
  582ACTN    C2 5813   6.053   5.726   0.881
  582ACTN    C3 5814   5.999   5.739   1.016
  582ACTN    H1 5815   6.119   5.910   0.787
  582ACTN    H2 5816   5.943   5.889   0.802
  582ACTN    H3 5817   6.035   5.797   0.680
  582ACTN    H4 5818   6.082   5.768   1.080
  582ACTN    H5 5819   5.965   5.643   1.057
  582ACTN    H6 5820   5.918   5.811   1.025
  583ACTN    C1 5821   4.176   4.099   1.429
  583ACTN    O1 5822   4.406   4.080   1.363
  583ACTN    C2 5823   4.288   4.099   1.329
  583ACTN    C3 5824   4.271   4.161   1.197
  583ACTN    H1 5825   4.111   4.012   1.417
  583ACTN    H2 5826   4.117   4.189   1.414
  583ACTN    H3 5827   4.216   4.097   1.530
  583ACTN    H4 5828   4.248   4.081   1.128
  583ACTN    H5 5829   4.363   4.205   1.159
  583ACTN    H6 5830   4.192   4.236   1.194
  584ACTN    C1 5831   0.859   5.856   6.717
  584ACTN    O1 5832   0.964   5.820   6.504
  584ACTN    C2 5833   0.899   5.772   6.599
  584ACTN    C3 5834   0.828   5.648   6.569
  584ACTN    H1 5835   0.912   5.827   6.807
  584ACTN    H2 5836   0.752   5.843   6.734
  584ACTN    H3 5837   0.881   5.961   6.698
  584ACTN    H4 5838   0.890   5.567   6.609
  584ACTN    H5 5839   0.823   5.627   6.462
  584ACTN    H6 5840   0.729   5.642   6.611
  585ACTN    C1 5841   4.888   2.346   2.051
  585ACTN    O1 5842   4.739   2.196   1.937
  585ACTN    C2 5843   4.758   2.309   1.985
  585ACTN    C3 5844   4.668   2.414   1.935
  585ACTN    H1 5845   4.876   2.359   2.159
  585ACTN    H2 5846   4.924   2.438   2.007
  585ACTN    H3 5847   4.962   2.266   2.036
  585ACTN    H4 5848   4.592   2.427   2.011
  585ACTN    H5 5849   4.614   2.383   1.846
  585ACTN    H6 5850   4.717   2.509   1.916
  586ACTN    C1 5851   5.464   5.875   2.291
  586ACTN    O1 5852   5.688   5.915   2.214
  586ACTN    C2 5853   5.584   5.962   2.264
  586ACTN    C3 5854   5.599   6.090   2.332
  586ACTN    H1 5855   5.381   5.898   2.225
  586ACTN    H2 5856   5.433   5.891   2.394
  586ACTN    H3 5857   5.490   5.769   2.276
  586ACTN    H4 5858   5.565   6.166   2.262
  586ACTN    H5 5859   5.704   6.115   2.351
  586ACTN    H6 5860   5.544   6.098   2.424
  587ACTN    C1 5861   3.242   4.065   7.465
  587ACTN    O1 5862   3.409   3.907   7.533
  587ACTN    C2 5863   3.288   3.932   7.517
  587ACTN    C3 5864   3.201   3.815   7.510
  587ACTN    H1 5865   3.191   4.123   7.541
  587ACTN    H2 5866   3.174   4.047   7.382
  587ACTN    H3 5867   3.328   4.124   7.431
  587ACTN    H4 5868   3.156   3.805   7.609
  587ACTN    H5 5869   3.257   3.721   7.496
  587ACTN    H6 5870   3.123   3.822   7.436
  588ACTN    C1 5871   0.402   2.889   7.083
  588ACTN    O1 5872   0.634   2.826   7.089
  588ACTN    C2 5873   0.530   2.838   7.022
  588ACTN    C3 5874   0.549   2.843   6.877
  588ACTN    H1 5875   0.327   2.810   7.090
  588ACTN    H2 5876   0.364   2.969   7.022
  588ACTN    H3 5877   0.421   2.925   7.185
  588ACTN    H4 5878   0.527   2.743   6.840
  588ACTN    H5 5879   0.654   2.860   6.849
  588ACTN    H6 5880   0.487   2.915   6.826
  589ACTN    C1 5881   6.788   2.410   2.271
  589ACTN    O1 5882   6.706   2.449   2.493
  589ACTN    C2 5883   6.786   2.480   2.404
  589ACTN    C3 5884   6.847   2.613   2.418
  589ACTN    H1 5885   6.877   2.349   2.258
  589ACTN    H2 5886   6.785   2.485   2.193
  589ACTN    H3 5887   6.701   2.344   2.263
  589ACTN    H4 5888   6.946   2.596   2.461
  589ACTN    H5 5889   6.796   2.675   2.492
  589ACTN    H6 5890   6.857   2.668   2.326
  590ACTN    C1 5891   1.502   5.406   7.115
  590ACTN    O1 5892   1.700   5.299   7.032
  590ACTN    C2 5893   1.630   5.402   7.036
  590ACTN    C3 5894   1.699   5.526   6.999
  590ACTN    H1 5895   1.414   5.412   7.050
  590ACTN    H2 5896   1.504   5.494   7.179
  590ACTN    H3 5897   1.492   5.315   7.175
  590ACTN    H4 5898   1.671   5.547   6.896
  590ACTN    H5 5899   1.808   5.514   6.997
  590ACTN    H6 5900   1.673   5.611   7.062
  591ACTN    C1 5901   2.241   5.131   1.790
  591ACTN    O1 5902   2.315   5.032   1.584
  591ACTN    C2 5903   2.263   5.016   1.695
  591ACTN    C3 5904   2.186   4.892   1.711
  591ACTN    H1 5905   2.306   5.124   1.877
  591ACTN    H2 5906   2.138   5.129   1.823
  591ACTN    H3 5907   2.263   5.225   1.739
  591ACTN    H4 5908   2.251   4.822   1.763
  591ACTN    H5 5909   2.165   4.843   1.615
  591ACTN    H6 5910   2.094   4.903   1.765
  592ACTN    C1 5911   3.473   6.271   6.199
  592ACTN    O1 5912   3.516   6.506   6.181
  592ACTN    C2 5913   3.512   6.395   6.125
  592ACTN    C3 5914   3.504   6.400   5.979
  592ACTN    H1 5915   3.557   6.203   6.212
  592ACTN    H2 5916   3.395   6.220   6.143
  592ACTN    H3 5917   3.436   6.297   6.299
  592ACTN    H4 5918   3.605   6.382   5.942
  592ACTN    H5 5919   3.478   6.499   5.941
  592ACTN    H6 5920   3.436   6.327   5.936
  593ACTN    C1 5921   0.544   3.678   2.840
  593ACTN    O1 5922   0.574   3.682   2.602
  593ACTN    C2 5923   0.626   3.669   2.714
  593ACTN    C3 5924   0.757   3.603   2.715
  593ACTN    H1 5925   0.566   3.768   2.897
  593ACTN    H2 5926   0.565   3.591   2.901
  593ACTN    H3 5927   0.437   3.681   2.815
  593ACTN    H4 5928   0.831   3.683   2.723
  593ACTN    H5 5929   0.780   3.554   2.621
  593ACTN    H6 5930   0.770   3.533   2.796
  594ACTN    C1 5931   7.153   7.018   4.367
  594ACTN    O1 5932   7.052   6.910   4.179
  594ACTN    C2 5933   7.039   6.988   4.274
  594ACTN    C3 5934   6.925   7.080   4.264
  594ACTN    H1 5935   7.136   6.976   4.467
  594ACTN    H2 5936   7.163   7.126   4.375
  594ACTN    H3 5937   7.246   6.974   4.329
  594ACTN    H4 5938   6.846   7.037   4.326
  594ACTN    H5 5939   6.882   7.082   4.163
  594ACTN    H6 5940   6.946   7.181   4.296
  595ACTN    C1 5941   4.695   1.855   6.216
  595ACTN    O1 5942   4.695   1.938   6.441
  595ACTN    C2 5943   4.633   1.925   6.334
  595ACTN    C3 5944   4.488   1.940   6.344
  595ACTN    H1 5945   4.716   1.924   6.134
  595ACTN    H2 5946   4.625   1.780   6.181
  595ACTN    H3 5947   4.790   1.808   6.245
  595ACTN    H4 5948   4.466   2.041   6.310
  595ACTN    H5 5949   4.453   1.937   6.448
  595ACTN    H6 5950   4.432   1.869   6.285
  596ACTN    C1 5951   0.926   4.538   1.669
  596ACTN    O1 5952   1.078   4.470   1.842
  596ACTN    C2 5953   1.048   4.554   1.755
  596ACTN    C3 5954   1.112   4.685   1.771
  596ACTN    H1 5955   0.952   4.516   1.566
  596ACTN    H2 5956   0.870   4.631   1.673
  596ACTN    H3 5957   0.864   4.456   1.706
  596ACTN    H4 5958   1.197   4.686   1.702
  596ACTN    H5 5959   1.157   4.698   1.870
  596ACTN    H6 5960   1.047   4.769   1.750
  597ACTN    C1 5961   5.623   2.428   1.783
  597ACTN    O1 5962   5.607   2.309   1.991
  597ACTN    C2 5963   5.628   2.304   1.869
  597ACTN    C3 5964   5.700   2.185   1.823
  597ACTN    H1 5965   5.538   2.427   1.716
  597ACTN    H2 5966   5.715   2.433   1.725
  597ACTN    H3 5967   5.614   2.517   1.846
  597ACTN    H4 5968   5.624   2.118   1.782
  597ACTN    H5 5969   5.745   2.128   1.905
  597ACTN    H6 5970   5.775   2.204   1.747
  598ACTN    C1 5971   0.893   5.823   7.636
  598ACTN    O1 5972   0.964   6.035   7.549
  598ACTN    C2 5973   0.891   5.935   7.536
  598ACTN    C3 5974   0.777   5.952   7.446
  598ACTN    H1 5975   0.936   5.732   7.595
  598ACTN    H2 5976   0.790   5.803   7.667
  598ACTN    H3 5977   0.952   5.852   7.724
  598ACTN    H4 5978   0.806   5.907   7.351
  598ACTN    H5 5979   0.758   6.057   7.422
  598ACTN    H6 5980   0.686   5.907   7.481
  599ACTN    C1 5981   3.661   5.383   4.417
  599ACTN    O1 5982   3.870   5.374   4.301
  599ACTN    C2 5983   3.746   5.369   4.294
  599ACTN    C3 5984   3.690   5.393   4.161
  599ACTN    H1 5985   3.611   5.289   4.443
  599ACTN    H2 5986   3.585   5.458   4.398
  599ACTN    H3 5987   3.722   5.412   4.503
  599ACTN    H4 5988   3.667   5.295   4.120
  599ACTN    H5 5989   3.763   5.436   4.092
  599ACTN    H6 5990   3.601   5.454   4.161
  600ACTN    C1 5991   7.725   3.270   5.304
  600ACTN    O1 5992   7.744   3.187   5.528
  600ACTN    C2 5993   7.699   3.274   5.452
  600ACTN    C3 5994   7.588   3.353   5.506
  600ACTN    H1 5995   7.792   3.350   5.272
  600ACTN    H2 5996   7.630   3.280   5.252
  600ACTN    H3 5997   7.772   3.175   5.277
  600ACTN    H4 5998   7.631   3.446   5.540
  600ACTN    H5 5999   7.544   3.308   5.595
  600ACTN    H6 6000   7.509   3.373   5.434
  601ACTN    C1 6001   6.561   6.429   5.509
  601ACTN    O1 6002   6.687   6.226   5.524
  601ACTN    C2 6003   6.688   6.350   5.523
  601ACTN    C3 6004   6.808   6.412   5.580
  601ACTN    H1 6005   6.555   6.480   5.413
  601ACTN    H2 6006   6.557   6.502   5.589
  601ACTN    H3 6007   6.474   6.362   5.516
  601ACTN    H4 6008   6.870   6.440   5.495
  601ACTN    H5 6009   6.869   6.341   5.636
  601ACTN    H6 6010   6.788   6.498   5.641
  602ACTN    C1 6011   1.601   7.049   2.645
  602ACTN    O1 6012   1.822   7.142   2.655
  602ACTN    C2 6013   1.719   7.111   2.716
  602ACTN    C3 6014   1.733   7.097   2.862
  602ACTN    H1 6015   1.516   7.118   2.641
  602ACTN    H2 6016   1.572   6.960   2.699
  602ACTN    H3 6017   1.629   7.024   2.543
  602ACTN    H4 6018   1.696   7.190   2.905
  602ACTN    H5 6019   1.838   7.092   2.893
  602ACTN    H6 6020   1.679   7.014   2.904
  603ACTN    C1 6021   5.891   4.202   6.537
  603ACTN    O1 6022   5.796   4.278   6.744
  603ACTN    C2 6023   5.817   4.300   6.623
  603ACTN    C3 6024   5.730   4.402   6.564
  603ACTN    H1 6025   5.988   4.240   6.507
  603ACTN    H2 6026   5.831   4.184   6.448
  603ACTN    H3 6027   5.906   4.108   6.591
  603ACTN    H4 6028   5.789   4.494   6.561
  603ACTN    H5 6029   5.644   4.426   6.627
  603ACTN    H6 6030   5.696   4.378   6.464
  604ACTN    C1 6031   7.604   0.329   2.457
  604ACTN    O1 6032   7.497   0.162   2.323
  604ACTN    C2 6033   7.537   0.196   2.435
  604ACTN    C3 6034   7.480   0.122   2.547
  604ACTN    H1 6035   7.710   0.319   2.479
  604ACTN    H2 6036   7.555   0.378   2.541
  604ACTN    H3 6037   7.594   0.391   2.367
  604ACTN    H4 6038   7.555   0.047   2.575
  604ACTN    H5 6039   7.392   0.063   2.519
  604ACTN    H6 6040   7.456   0.183   2.633
  605ACTN    C1 6041   4.681   1.919   6.950
  605ACTN    O1 6042   4.457   1.890   6.867
  605ACTN    C2 6043   4.566   1.950   6.858
  605ACTN    C3 6044   4.589   2.017   6.730
  605ACTN    H1 6045   4.700   2.001   7.019
  605ACTN    H2 6046   4.769   1.901   6.890
  605ACTN    H3 6047   4.658   1.830   7.010
  605ACTN    H4 6048   4.566   2.122   6.746
  605ACTN    H5 6049   4.519   1.985   6.652
  605ACTN    H6 6050   4.690   2.008   6.693
  606ACTN    C1 6051   4.167   4.554   5.824
  606ACTN    O1 6052   3.975   4.658   5.725
  606ACTN    C2 6053   4.098   4.641   5.723
  606ACTN    C3 6054   4.163   4.674   5.596
  606ACTN    H1 6055   4.228   4.612   5.893
  606ACTN    H2 6056   4.230   4.484   5.771
  606ACTN    H3 6057   4.093   4.500   5.884
  606ACTN    H4 6058   4.207   4.773   5.609
  606ACTN    H5 6059   4.092   4.685   5.514
  606ACTN    H6 6060   4.240   4.604   5.567
  607ACTN    C1 6061   6.491   5.460   0.974
  607ACTN    O1 6062   6.254   5.430   0.990
  607ACTN    C2 6063   6.360   5.459   1.047
  607ACTN    C3 6064   6.344   5.531   1.174
  607ACTN    H1 6065   6.557   5.379   1.006
  607ACTN    H2 6066   6.540   5.555   0.994
  607ACTN    H3 6067   6.475   5.449   0.867
  607ACTN    H4 6068   6.356   5.457   1.253
  607ACTN    H5 6069   6.243   5.571   1.187
  607ACTN    H6 6070   6.416   5.611   1.188
  608ACTN    C1 6071   0.505   4.973   3.611
  608ACTN    O1 6072   0.699   5.109   3.647
  608ACTN    C2 6073   0.576   5.098   3.654
  608ACTN    C3 6074   0.510   5.194   3.744
  608ACTN    H1 6075   0.446   4.988   3.520
  608ACTN    H2 6076   0.439   4.942   3.691
  608ACTN    H3 6077   0.578   4.894   3.589
  608ACTN    H4 6078   0.470   5.273   3.681
  608ACTN    H5 6079   0.581   5.244   3.810
  608ACTN    H6 6080   0.431   5.151   3.803
  609ACTN    C1 6081   4.834   2.441   1.446
  609ACTN    O1 6082   5.056   2.532   1.429
  609ACTN    C2 6083   4.960   2.502   1.503
  609ACTN    C3 6084   4.992   2.489   1.645
  609ACTN    H1 6085   4.750   2.510   1.451
  609ACTN    H2 6086   4.811   2.352   1.504
  609ACTN    H3 6087   4.849   2.415   1.341
  609ACTN    H4 6088   4.961   2.582   1.692
  609ACTN    H5 6089   5.100   2.483   1.664
  609ACTN    H6 6090   4.943   2.406   1.694
  610ACTN    C1 6091   6.909   5.981   4.011
  610ACTN    O1 6092   6.791   5.803   3.901
  610ACTN    C2 6093   6.813   5.925   3.910
  610ACTN    C3 6094   6.775   6.003   3.792
  610ACTN    H1 6095   6.857   6.037   4.089
  610ACTN    H2 6096   6.978   6.047   3.960
  610ACTN    H3 6097   6.964   5.899   4.060
  610ACTN    H4 6098   6.678   6.048   3.815
  610ACTN    H5 6099   6.756   5.940   3.704
  610ACTN    H6 6100   6.845   6.081   3.766
  611ACTN    C1 6101   1.371   7.057   3.086
  611ACTN    O1 6102   1.440   7.172   3.285
  611ACTN    C2 6103   1.423   7.176   3.162
  611ACTN    C3 6104   1.413   7.310   3.105
  611ACTN    H1 6105   1.447   7.013   3.022
  611ACTN    H2 6106   1.287   7.089   3.025
  611ACTN    H3 6107   1.338   6.979   3.157
  611ACTN    H4 6108   1.511   7.332   3.062
  611ACTN    H5 6109   1.399   7.388   3.181
  611ACTN    H6 6110   1.337   7.321   3.028
  612ACTN    C1 6111   5.566   6.606   6.137
  612ACTN    O1 6112   5.583   6.836   6.069
  612ACTN    C2 6113   5.568   6.717   6.035
  612ACTN    C3 6114   5.510   6.696   5.902
  612ACTN    H1 6115   5.654   6.543   6.130
  612ACTN    H2 6116   5.477   6.546   6.121
  612ACTN    H3 6117   5.563   6.649   6.238
  612ACTN    H4 6118   5.593   6.674   5.836
  612ACTN    H5 6119   5.466   6.788   5.861
  612ACTN    H6 6120   5.437   6.617   5.898
  613ACTN    C1 6121   7.077   7.550   7.337
  613ACTN    O1 6122   6.900   7.389   7.329
  613ACTN    C2 6123   6.976   7.459   7.399
  613ACTN    C3 6124   6.932   7.480   7.537
  613ACTN    H1 6125   7.179   7.516   7.353
  613ACTN    H2 6126   7.066   7.649   7.380
  613ACTN    H3 6127   7.062   7.555   7.228
  613ACTN    H4 6128   6.989   7.410   7.598
  613ACTN    H5 6129   6.827   7.451   7.553
  613ACTN    H6 6130   6.947   7.580   7.574
  614ACTN    C1 6131   2.492   3.393   7.024
  614ACTN    O1 6132   2.513   3.352   7.260
  614ACTN    C2 6133   2.569   3.359   7.149
  614ACTN    C3 6134   2.714   3.376   7.154
  614ACTN    H1 6135   2.485   3.308   6.957
  614ACTN    H2 6136   2.544   3.474   6.974
  614ACTN    H3 6137   2.390   3.424   7.050
  614ACTN    H4 6138   2.757   3.277   7.136
  614ACTN    H5 6139   2.750   3.404   7.254
  614ACTN    H6 6140   2.753   3.446   7.082
  615ACTN    C1 6141   3.047   1.245   7.377
  615ACTN    O1 6142   2.862   1.293   7.232
  615ACTN    C2 6143   2.984   1.304   7.254
  615ACTN    C3 6144   3.066   1.337   7.137
  615ACTN    H1 6145   3.080   1.322   7.446
  615ACTN    H2 6146   3.133   1.186   7.346
  615ACTN    H3 6147   2.975   1.182   7.430
  615ACTN    H4 6148   3.085   1.444   7.143
  615ACTN    H5 6149   3.012   1.324   7.043
  615ACTN    H6 6150   3.160   1.284   7.132
  616ACTN    C1 6151   6.477   0.631   2.921
  616ACTN    O1 6152   6.434   0.857   2.854
  616ACTN    C2 6153   6.483   0.746   2.825
  616ACTN    C3 6154   6.506   0.724   2.682
  616ACTN    H1 6155   6.575   0.606   2.961
  616ACTN    H2 6156   6.437   0.545   2.868
  616ACTN    H3 6157   6.412   0.655   3.006
  616ACTN    H4 6158   6.612   0.742   2.666
  616ACTN    H5 6159   6.455   0.797   2.619
  616ACTN    H6 6160   6.481   0.624   2.649
  617ACTN    C1 6161   1.745   0.421   6.085
  617ACTN    O1 6162   1.959   0.424   5.977
  617ACTN    C2 6163   1.895   0.412   6.083
  617ACTN    C3 6164   1.967   0.348   6.193
  617ACTN    H1 6165   1.710   0.511   6.134
  617ACTN    H2 6166   1.707   0.334   6.137
  617ACTN    H3 6167   1.706   0.423   5.982
  617ACTN    H4 6168   2.002   0.429   6.258
  617ACTN    H5 6169   2.059   0.298   6.160
  617ACTN    H6 6170   1.908   0.279   6.251
  618ACTN    C1 6171   3.239   6.978   5.859
  618ACTN    O1 6172   3.201   6.757   5.773
  618ACTN    C2 6173   3.161   6.850   5.844
  618ACTN    C3 6174   3.018   6.847   5.876
  618ACTN    H1 6175   3.281   6.988   5.959
  618ACTN    H2 6176   3.172   7.061   5.839
  618ACTN    H3 6177   3.322   6.979   5.788
  618ACTN    H4 6178   3.010   6.805   5.977
  618ACTN    H5 6179   2.962   6.777   5.813
  618ACTN    H6 6180   2.969   6.943   5.873
  619ACTN    C1 6181   4.890   1.477   2.582
  619ACTN    O1 6182   4.700   1.528   2.718
  619ACTN    C2 6183   4.823   1.515   2.711
  619ACTN    C3 6184   4.899   1.578   2.819
  619ACTN    H1 6185   4.931   1.376   2.585
  619ACTN    H2 6186   4.970   1.547   2.563
  619ACTN    H3 6187   4.818   1.480   2.499
  619ACTN    H4 6188   4.924   1.499   2.889
  619ACTN    H5 6189   4.839   1.648   2.877
  619ACTN    H6 6190   4.990   1.627   2.786
  620ACTN    C1 6191   7.086   7.329   5.533
  620ACTN    O1 6192   7.296   7.354   5.420
  620ACTN    C2 6193   7.183   7.302   5.422
  620ACTN    C3 6194   7.137   7.249   5.293
  620ACTN    H1 6195   7.070   7.242   5.596
  620ACTN    H2 6196   6.991   7.358   5.488
  620ACTN    H3 6197   7.123   7.410   5.596
  620ACTN    H4 6198   7.155   7.142   5.296
  620ACTN    H5 6199   7.197   7.285   5.209
  620ACTN    H6 6200   7.033   7.268   5.273
  621ACTN    C1 6201   2.385   0.961   2.647
  621ACTN    O1 6202   2.162   0.988   2.564
  621ACTN    C2 6203   2.276   1.036   2.576
  621ACTN    C3 6204   2.308   1.145   2.483
  621ACTN    H1 6205   2.412   1.008   2.741
  621ACTN    H2 6206   2.473   0.959   2.582
  621ACTN    H3 6207   2.353   0.859   2.668
  621ACTN    H4 6208   2.295   1.237   2.539
  621ACTN    H5 6209   2.236   1.152   2.401
  621ACTN    H6 6210   2.408   1.140   2.443
  622ACTN    C1 6211   2.649   4.200   7.491
  622ACTN    O1 6212   2.787   4.324   7.339
  622ACTN    C2 6213   2.734   4.215   7.369
  622ACTN    C3 6214   2.725   4.119   7.259
  622ACTN    H1 6215   2.697   4.139   7.567
  622ACTN    H2 6216   2.555   4.154   7.462
  622ACTN    H3 6217   2.629   4.298   7.536
  622ACTN    H4 6218   2.808   4.049   7.272
  622ACTN    H5 6219   2.743   4.165   7.161
  622ACTN    H6 6220   2.632   4.064   7.256
  623ACTN    C1 6221   4.353   3.292   0.716
  623ACTN    O1 6222   4.347   3.253   0.479
  623ACTN    C2 6223   4.416   3.272   0.581
  623ACTN    C3 6224   4.556   3.231   0.569
  623ACTN    H1 6225   4.365   3.394   0.752
  623ACTN    H2 6226   4.400   3.224   0.785
  623ACTN    H3 6227   4.245   3.271   0.710
  623ACTN    H4 6228   4.613   3.322   0.549
  623ACTN    H5 6229   4.574   3.168   0.481
  623ACTN    H6 6230   4.595   3.182   0.657
  624ACTN    C1 6231   4.681   1.441   7.754
  624ACTN    O1 6232   4.794   1.536   7.565
  624ACTN    C2 6233   4.750   1.552   7.680
  624ACTN    C3 6234   4.807   1.666   7.753
  624ACTN    H1 6235   4.574   1.461   7.766
  624ACTN    H2 6236   4.727   1.431   7.852
  624ACTN    H3 6237   4.690   1.347   7.698
  624ACTN    H4 6238   4.734   1.746   7.746
  624ACTN    H5 6239   4.897   1.706   7.705
  624ACTN    H6 6240   4.828   1.646   7.857
  625ACTN    C1 6241   5.068   5.495   5.212
  625ACTN    O1 6242   5.021   5.552   5.440
  625ACTN    C2 6243   5.019   5.586   5.321
  625ACTN    C3 6244   4.930   5.698   5.290
  625ACTN    H1 6245   5.160   5.531   5.167
  625ACTN    H2 6246   4.991   5.489   5.135
  625ACTN    H3 6247   5.088   5.395   5.253
  625ACTN    H4 6248   4.993   5.787   5.284
  625ACTN    H5 6249   4.859   5.719   5.371
  625ACTN    H6 6250   4.875   5.686   5.197
  626ACTN    C1 6251   5.864   1.700   3.534
  626ACTN    O1 6252   5.984   1.904   3.575
  626ACTN    C2 6253   5.897   1.845   3.509
  626ACTN    C3 6254   5.801   1.932   3.441
  626ACTN    H1 6255   5.896   1.637   3.452
  626ACTN    H2 6256   5.757   1.691   3.547
  626ACTN    H3 6257   5.916   1.665   3.624
  626ACTN    H4 6258   5.834   1.937   3.337
  626ACTN    H5 6259   5.805   2.035   3.476
  626ACTN    H6 6260   5.699   1.897   3.445
  627ACTN    C1 6261   0.862   6.962   0.861
  627ACTN    O1 6262   1.029   6.792   0.888
  627ACTN    C2 6263   0.945   6.846   0.814
  627ACTN    C3 6264   0.962   6.819   0.671
  627ACTN    H1 6265   0.757   6.935   0.873
  627ACTN    H2 6266   0.870   7.041   0.787
  627ACTN    H3 6267   0.899   6.997   0.958
  627ACTN    H4 6268   0.891   6.741   0.646
  627ACTN    H5 6269   1.060   6.776   0.647
  627ACTN    H6 6270   0.945   6.906   0.608
  628ACTN    C1 6271   3.181   3.604   4.840
  628ACTN    O1 6272   3.059   3.810   4.849
  628ACTN    C2 6273   3.112   3.716   4.911
  628ACTN    C3 6274   3.139   3.743   5.053
  628ACTN    H1 6275   3.126   3.510   4.848
  628ACTN    H2 6276   3.280   3.591   4.884
  628ACTN    H3 6277   3.191   3.628   4.733
  628ACTN    H4 6278   3.058   3.697   5.109
  628ACTN    H5 6279   3.132   3.849   5.077
  628ACTN    H6 6280   3.234   3.705   5.087
  629ACTN    C1 6281   7.915   2.295   6.161
  629ACTN    O1 6282   7.757   2.448   6.064
  629ACTN    C2 6283   7.868   2.391   6.056
  629ACTN    C3 6284   7.926   2.389   5.921
  629ACTN    H1 6285   7.998   2.335   6.218
  629ACTN    H2 6286   7.946   2.203   6.112
  629ACTN    H3 6287   7.833   2.274   6.232
  629ACTN    H4 6288   8.000   2.468   5.919
  629ACTN    H5 6289   7.854   2.416   5.844
  629ACTN    H6 6290   7.973   2.295   5.895
  630ACTN    C1 6291   2.868   3.703   3.102
  630ACTN    O1 6292   2.876   3.929   3.182
  630ACTN    C2 6293   2.847   3.851   3.090
  630ACTN    C3 6294   2.755   3.905   2.990
  630ACTN    H1 6295   2.948   3.667   3.038
  630ACTN    H2 6296   2.775   3.653   3.075
  630ACTN    H3 6297   2.895   3.677   3.205
  630ACTN    H4 6298   2.816   3.936   2.905
  630ACTN    H5 6299   2.706   3.997   3.023
  630ACTN    H6 6300   2.680   3.835   2.956
  631ACTN    C1 6301   7.006   6.074   1.734
  631ACTN    O1 6302   6.800   5.952   1.719
  631ACTN    C2 6303   6.868   6.048   1.680
  631ACTN    C3 6304   6.826   6.107   1.553
  631ACTN    H1 6305   7.010   6.163   1.796
  631ACTN    H2 6306   7.074   6.086   1.650
  631ACTN    H3 6307   7.038   5.989   1.796
  631ACTN    H4 6308   6.768   6.196   1.578
  631ACTN    H5 6309   6.756   6.043   1.498
  631ACTN    H6 6310   6.907   6.135   1.488
  632ACTN    C1 6311   2.999   7.427   5.934
  632ACTN    O1 6312   2.878   7.434   5.728
  632ACTN    C2 6313   2.933   7.497   5.819
  632ACTN    C3 6314   2.967   7.636   5.788
  632ACTN    H1 6315   2.945   7.441   6.028
  632ACTN    H2 6316   3.100   7.467   5.946
  632ACTN    H3 6317   3.004   7.319   5.915
  632ACTN    H4 6318   2.888   7.698   5.832
  632ACTN    H5 6319   2.961   7.658   5.681
  632ACTN    H6 6320   3.063   7.668   5.825
  633ACTN    C1 6321   7.066   5.195   0.741
  633ACTN    O1 6322   6.969   5.284   0.540
  633ACTN    C2 6323   6.991   5.299   0.662
  633ACTN    C3 6324   6.980   5.437   0.711
  633ACTN    H1 6325   7.001   5.144   0.812
  633ACTN    H2 6326   7.145   5.245   0.796
  633ACTN    H3 6327   7.108   5.120   0.674
  633ACTN    H4 6328   6.882   5.444   0.757
  633ACTN    H5 6329   6.978   5.510   0.630
  633ACTN    H6 6330   7.056   5.464   0.782
  634ACTN    C1 6331   5.145   4.480   3.744
  634ACTN    O1 6332   5.197   4.714   3.737
  634ACTN    C2 6333   5.201   4.607   3.801
  634ACTN    C3 6334   5.299   4.604   3.909
  634ACTN    H1 6335   5.056   4.448   3.798
  634ACTN    H2 6336   5.221   4.402   3.753
  634ACTN    H3 6337   5.118   4.494   3.639
  634ACTN    H4 6338   5.244   4.622   4.001
  634ACTN    H5 6339   5.371   4.686   3.904
  634ACTN    H6 6340   5.353   4.510   3.918
  635ACTN    C1 6341   4.417   3.622   3.410
  635ACTN    O1 6342   4.274   3.682   3.593
  635ACTN    C2 6343   4.313   3.593   3.515
  635ACTN    C3 6344   4.288   3.456   3.560
  635ACTN    H1 6345   4.374   3.618   3.309
  635ACTN    H2 6346   4.495   3.548   3.418
  635ACTN    H3 6347   4.458   3.722   3.424
  635ACTN    H4 6348   4.200   3.423   3.506
  635ACTN    H5 6349   4.260   3.451   3.665
  635ACTN    H6 6350   4.370   3.388   3.541
  636ACTN    C1 6351   0.726   6.737   2.187
  636ACTN    O1 6352   0.879   6.819   2.021
  636ACTN    C2 6353   0.782   6.842   2.096
  636ACTN    C3 6354   0.756   6.984   2.121
  636ACTN    H1 6355   0.627   6.704   2.155
  636ACTN    H2 6356   0.720   6.778   2.287
  636ACTN    H3 6357   0.792   6.649   2.187
  636ACTN    H4 6358   0.674   7.012   2.055
  636ACTN    H5 6359   0.840   7.048   2.091
  636ACTN    H6 6360   0.730   7.007   2.223
  637ACTN    C1 6361   6.509   4.416   4.258
  637ACTN    O1 6362   6.722   4.499   4.331
  637ACTN    C2 6363   6.601   4.484   4.355
  637ACTN    C3 6364   6.563   4.496   4.497
  637ACTN    H1 6365   6.438   4.486   4.213
  637ACTN    H2 6366   6.454   4.339   4.311
  637ACTN    H3 6367   6.567   4.371   4.176
  637ACTN    H4 6368   6.523   4.597   4.509
  637ACTN    H5 6369   6.650   4.492   4.563
  637ACTN    H6 6370   6.490   4.424   4.529
  638ACTN    C1 6371   2.802   7.927   0.108
  638ACTN    O1 6372   2.587   7.884   0.206
  638ACTN    C2 6373   2.709   7.862   0.207
  638ACTN    C3 6374   2.761   7.807   0.333
  638ACTN    H1 6375   2.842   7.855   0.037
  638ACTN    H2 6376   2.883   7.973   0.162
  638ACTN    H3 6377   2.747   8.003   0.051
  638ACTN    H4 6378   2.772   7.700   0.317
  638ACTN    H5 6379   2.690   7.816   0.415
  638ACTN    H6 6380   2.856   7.849   0.363
  639ACTN    C1 6381   2.516   7.904   7.041
  639ACTN    O1 6382   2.336   7.755   7.094
  639ACTN    C2 6383   2.436   7.817   7.134
  639ACTN    C3 6384   2.444   7.835   7.279
  639ACTN    H1 6385   2.615   7.861   7.021
  639ACTN    H2 6386   2.528   8.001   7.088
  639ACTN    H3 6387   2.465   7.914   6.945
  639ACTN    H4 6388   2.513   7.759   7.315
  639ACTN    H5 6389   2.349   7.813   7.329
  639ACTN    H6 6390   2.478   7.933   7.309
  640ACTN    C1 6391   1.249   1.403   1.946
  640ACTN    O1 6392   1.352   1.515   2.131
  640ACTN    C2 6393   1.293   1.525   2.022
  640ACTN    C3 6394   1.232   1.656   1.996
  640ACTN    H1 6395   1.306   1.390   1.854
  640ACTN    H2 6396   1.144   1.415   1.921
  640ACTN    H3 6397   1.263   1.313   2.007
  640ACTN    H4 6398   1.300   1.708   1.930
  640ACTN    H5 6399   1.226   1.718   2.086
  640ACTN    H6 6400   1.134   1.650   1.951
  641ACTN    C1 6401   0.717   4.694   0.901
  641ACTN    O1 6402   0.914   4.564   0.943
  641ACTN    C2 6403   0.836   4.612   0.859
  641ACTN    C3 6404   0.889   4.622   0.723
  641ACTN    H1 6405   0.623   4.641   0.882
  641ACTN    H2 6406   0.718   4.786   0.845
  641ACTN    H3 6407   0.722   4.715   1.008
  641ACTN    H4 6408   0.849   4.536   0.668
  641ACTN    H5 6409   0.998   4.608   0.719
  641ACTN    H6 6410   0.863   4.713   0.672
  642ACTN    C1 6411   2.105   4.738   4.377
  642ACTN    O1 6412   2.236   4.711   4.178
  642ACTN    C2 6413   2.201   4.664   4.287
  642ACTN    C3 6414   2.220   4.520   4.303
  642ACTN    H1 6415   2.155   4.775   4.467
  642ACTN    H2 6416   2.025   4.671   4.405
  642ACTN    H3 6417   2.064   4.825   4.325
  642ACTN    H4 6418   2.312   4.508   4.360
  642ACTN    H5 6419   2.241   4.470   4.208
  642ACTN    H6 6420   2.139   4.469   4.353
  643ACTN    C1 6421   1.452   1.784   0.559
  643ACTN    O1 6422   1.540   1.975   0.675
  643ACTN    C2 6423   1.528   1.852   0.670
  643ACTN    C3 6424   1.626   1.777   0.749
  643ACTN    H1 6425   1.360   1.740   0.595
  643ACTN    H2 6426   1.515   1.707   0.517
  643ACTN    H3 6427   1.426   1.858   0.482
  643ACTN    H4 6428   1.576   1.749   0.841
  643ACTN    H5 6429   1.710   1.839   0.782
  643ACTN    H6 6430   1.665   1.689   0.700
  644ACTN    C1 6431   2.834   2.858   4.812
  644ACTN    O1 6432   2.922   2.913   5.028
  644ACTN    C2 6433   2.945   2.880   4.911
  644ACTN    C3 6434   3.082   2.905   4.865
  644ACTN    H1 6435   2.824   2.754   4.785
  644ACTN    H2 6436   2.856   2.916   4.723
  644ACTN    H3 6437   2.739   2.891   4.855
  644ACTN    H4 6438   3.135   2.810   4.871
  644ACTN    H5 6439   3.137   2.972   4.932
  644ACTN    H6 6440   3.088   2.944   4.764
  645ACTN    C1 6441   4.632   5.064   3.427
  645ACTN    O1 6442   4.572   5.292   3.473
  645ACTN    C2 6443   4.591   5.204   3.388
  645ACTN    C3 6444   4.530   5.229   3.257
  645ACTN    H1 6445   4.735   5.042   3.397
  645ACTN    H2 6446   4.565   4.994   3.379
  645ACTN    H3 6447   4.627   5.053   3.536
  645ACTN    H4 6448   4.610   5.266   3.193
  645ACTN    H5 6449   4.457   5.310   3.260
  645ACTN    H6 6450   4.485   5.142   3.212
  646ACTN    C1 6451   2.760   6.592   2.912
  646ACTN    O1 6452   2.565   6.727   2.874
  646ACTN    C2 6453   2.677   6.691   2.835
  646ACTN    C3 6454   2.704   6.716   2.693
  646ACTN    H1 6455   2.847   6.638   2.957
  646ACTN    H2 6456   2.792   6.514   2.844
  646ACTN    H3 6457   2.700   6.549   2.993
  646ACTN    H4 6458   2.764   6.807   2.689
  646ACTN    H5 6459   2.614   6.740   2.637
  646ACTN    H6 6460   2.757   6.636   2.644
  647ACTN    C1 6461   2.309   6.177   5.223
  647ACTN    O1 6462   2.332   5.943   5.175
  647ACTN    C2 6463   2.388   6.052   5.197
  647ACTN    C3 6464   2.528   6.042   5.238
  647ACTN    H1 6465   2.318   6.248   5.141
  647ACTN    H2 6466   2.347   6.223   5.313
  647ACTN    H3 6467   2.203   6.153   5.234
  647ACTN    H4 6468   2.588   6.062   5.149
  647ACTN    H5 6469   2.556   5.940   5.267
  647ACTN    H6 6470   2.556   6.110   5.317
  648ACTN    C1 6471   0.344   5.402   1.719
  648ACTN    O1 6472   0.107   5.372   1.742
  648ACTN    C2 6473   0.219   5.372   1.796
  648ACTN    C3 6474   0.217   5.385   1.942
  648ACTN    H1 6475   0.407   5.314   1.708
  648ACTN    H2 6476   0.399   5.479   1.771
  648ACTN    H3 6477   0.318   5.437   1.618
  648ACTN    H4 6478   0.230   5.285   1.982
  648ACTN    H5 6479   0.119   5.418   1.981
  648ACTN    H6 6480   0.294   5.450   1.982
  649ACTN    C1 6481   1.182   5.624   7.339
  649ACTN    O1 6482   1.116   5.403   7.405
  649ACTN    C2 6483   1.113   5.492   7.318
  649ACTN    C3 6484   1.079   5.446   7.183
  649ACTN    H1 6485   1.110   5.705   7.350
  649ACTN    H2 6486   1.244   5.644   7.252
  649ACTN    H3 6487   1.243   5.621   7.429
  649ACTN    H4 6488   0.974   5.469   7.169
  649ACTN    H5 6489   1.085   5.337   7.174
  649ACTN    H6 6490   1.137   5.492   7.105
  650ACTN    C1 6491   0.905   3.618   6.951
  650ACTN    O1 6492   1.009   3.790   6.820
  650ACTN    C2 6493   0.938   3.761   6.918
  650ACTN    C3 6494   0.926   3.865   7.020
  650ACTN    H1 6495   0.800   3.596   6.933
  650ACTN    H2 6496   0.928   3.601   7.055
  650ACTN    H3 6497   0.964   3.550   6.887
  650ACTN    H4 6498   0.830   3.914   7.002
  650ACTN    H5 6499   1.000   3.945   7.007
  650ACTN    H6 6500   0.930   3.829   7.121
  651ACTN    C1 6501   0.889   1.286   2.820
  651ACTN    O1 6502   0.725   1.158   2.702
  651ACTN    C2 6503   0.837   1.161   2.756
  651ACTN    C3 6504   0.893   1.030   2.792
  651ACTN    H1 6505   0.973   1.329   2.764
  651ACTN    H2 6506   0.923   1.262   2.921
  651ACTN    H3 6507   0.810   1.362   2.824
  651ACTN    H4 6508   0.964   1.005   2.713
  651ACTN    H5 6509   0.818   0.950   2.787
  651ACTN    H6 6510   0.942   1.028   2.888
  652ACTN    C1 6511   6.518   6.855   4.720
  652ACTN    O1 6512   6.641   6.650   4.736
  652ACTN    C2 6513   6.593   6.749   4.795
  652ACTN    C3 6514   6.577   6.734   4.939
  652ACTN    H1 6515   6.574   6.949   4.715
  652ACTN    H2 6516   6.424   6.872   4.770
  652ACTN    H3 6517   6.500   6.823   4.617
  652ACTN    H4 6518   6.663   6.785   4.985
  652ACTN    H5 6519   6.586   6.630   4.973
  652ACTN    H6 6520   6.486   6.776   4.978
  653ACTN    C1 6521   3.572   2.288   5.652
  653ACTN    O1 6522   3.703   2.222   5.462
  653ACTN    C2 6523   3.691   2.225   5.585
  653ACTN    C3 6524   3.773   2.127   5.657
  653ACTN    H1 6525   3.599   2.380   5.705
  653ACTN    H2 6526   3.530   2.217   5.723
  653ACTN    H3 6527   3.497   2.315   5.577
  653ACTN    H4 6528   3.860   2.182   5.694
  653ACTN    H5 6529   3.815   2.050   5.592
  653ACTN    H6 6530   3.723   2.080   5.740
  654ACTN    C1 6531   2.872   6.666   0.660
  654ACTN    O1 6532   2.892   6.891   0.579
  654ACTN    C2 6533   2.935   6.774   0.577
  654ACTN    C3 6534   3.017   6.740   0.460
  654ACTN    H1 6535   2.937   6.634   0.741
  654ACTN    H2 6536   2.850   6.582   0.595
  654ACTN    H3 6537   2.779   6.703   0.705
  654ACTN    H4 6538   3.121   6.746   0.494
  654ACTN    H5 6539   3.010   6.814   0.380
  654ACTN    H6 6540   2.998   6.642   0.420
  655ACTN    C1 6541   4.971   4.225   5.623
  655ACTN    O1 6542   4.806   4.340   5.755
  655ACTN    C2 6543   4.830   4.262   5.661
  655ACTN    C3 6544   4.718   4.178   5.620
  655ACTN    H1 6545   5.000   4.267   5.528
  655ACTN    H2 6546   4.978   4.117   5.618
  655ACTN    H3 6547   5.041   4.263   5.699
  655ACTN    H4 6548   4.675   4.225   5.531
  655ACTN    H5 6549   4.636   4.178   5.693
  655ACTN    H6 6550   4.745   4.076   5.597
  656ACTN    C1 6551   1.867   5.822   7.394
  656ACTN    O1 6552   1.801   5.759   7.172
  656ACTN    C2 6553   1.783   5.747   7.294
  656ACTN    C3 6554   1.653   5.692   7.332
  656ACTN    H1 6555   1.933   5.756   7.449
  656ACTN    H2 6556   1.800   5.872   7.463
  656ACTN    H3 6557   1.929   5.896   7.342
  656ACTN    H4 6558   1.670   5.586   7.354
  656ACTN    H5 6559   1.581   5.692   7.250
  656ACTN    H6 6560   1.608   5.740   7.418
  657ACTN    C1 6561   2.405   7.372   3.983
  657ACTN    O1 6562   2.242   7.448   3.824
  657ACTN    C2 6563   2.304   7.352   3.873
  657ACTN    C3 6564   2.244   7.220   3.851
  657ACTN    H1 6565   2.507   7.353   3.949
  657ACTN    H2 6566   2.382   7.304   4.064
  657ACTN    H3 6567   2.401   7.475   4.019
  657ACTN    H4 6568   2.299   7.176   3.768
  657ACTN    H5 6569   2.141   7.227   3.815
  657ACTN    H6 6570   2.248   7.155   3.936
  658ACTN    C1 6571   0.315   1.718   3.540
  658ACTN    O1 6572   0.095   1.622   3.551
  658ACTN    C2 6573   0.175   1.697   3.492
  658ACTN    C3 6574   0.138   1.729   3.353
  658ACTN    H1 6575   0.331   1.818   3.580
  658ACTN    H2 6576   0.383   1.702   3.457
  658ACTN    H3 6577   0.338   1.646   3.621
  658ACTN    H4 6578   0.092   1.828   3.356
  658ACTN    H5 6579   0.060   1.663   3.314
  658ACTN    H6 6580   0.222   1.730   3.285
  659ACTN    C1 6581   6.335   6.610   6.441
  659ACTN    O1 6582   6.573   6.598   6.471
  659ACTN    C2 6583   6.461   6.606   6.523
  659ACTN    C3 6584   6.456   6.570   6.665
  659ACTN    H1 6585   6.287   6.707   6.444
  659ACTN    H2 6586   6.267   6.535   6.480
  659ACTN    H3 6587   6.359   6.588   6.336
  659ACTN    H4 6588   6.457   6.664   6.721
  659ACTN    H5 6589   6.546   6.517   6.698
  659ACTN    H6 6590   6.369   6.512   6.693
  660ACTN    C1 6591   4.000   3.410   2.129
  660ACTN    O1 6592   3.772   3.465   2.181
  660ACTN    C2 6593   3.886   3.438   2.223
  660ACTN    C3 6594   3.911   3.478   2.362
  660ACTN    H1 6595   4.031   3.306   2.133
  660ACTN    H2 6596   4.084   3.473   2.158
  660ACTN    H3 6597   3.970   3.432   2.026
  660ACTN    H4 6598   3.900   3.388   2.422
  660ACTN    H5 6599   3.835   3.547   2.400
  660ACTN    H6 6600   4.009   3.521   2.378
  661ACTN    C1 6601   6.153   7.381   2.403
  661ACTN    O1 6602   6.097   7.186   2.274
  661ACTN    C2 6603   6.176   7.241   2.353
  661ACTN    C3 6604   6.266   7.150   2.425
  661ACTN    H1 6605   6.225   7.452   2.362
  661ACTN    H2 6606   6.161   7.380   2.511
  661ACTN    H3 6607   6.053   7.415   2.373
  661ACTN    H4 6608   6.361   7.154   2.372
  661ACTN    H5 6609   6.234   7.046   2.418
  661ACTN    H6 6610   6.281   7.176   2.529
  662ACTN    C1 6611   0.780   2.718   1.894
  662ACTN    O1 6612   0.662   2.716   1.685
  662ACTN    C2 6613   0.748   2.663   1.758
  662ACTN    C3 6614   0.781   2.524   1.724
  662ACTN    H1 6615   0.879   2.762   1.898
  662ACTN    H2 6616   0.774   2.637   1.966
  662ACTN    H3 6617   0.708   2.797   1.921
  662ACTN    H4 6618   0.874   2.529   1.668
  662ACTN    H5 6619   0.709   2.480   1.655
  662ACTN    H6 6620   0.793   2.460   1.810
  663ACTN    C1 6621   2.251   7.944   2.416
  663ACTN    O1 6622   2.025   7.997   2.473
  663ACTN    C2 6623   2.134   7.950   2.509
  663ACTN    C3 6624   2.153   7.941   2.654
  663ACTN    H1 6625   2.275   7.842   2.387
  663ACTN    H2 6626   2.337   7.988   2.467
  663ACTN    H3 6627   2.230   8.000   2.325
  663ACTN    H4 6628   2.132   7.838   2.682
  663ACTN    H5 6629   2.079   8.000   2.710
  663ACTN    H6 6630   2.252   7.968   2.688
  664ACTN    C1 6631   2.421   7.425   2.412
  664ACTN    O1 6632   2.244   7.343   2.552
  664ACTN    C2 6633   2.299   7.441   2.498
  664ACTN    C3 6634   2.216   7.561   2.487
  664ACTN    H1 6635   2.510   7.467   2.460
  664ACTN    H2 6636   2.404   7.475   2.318
  664ACTN    H3 6637   2.441   7.318   2.395
  664ACTN    H4 6638   2.246   7.627   2.568
  664ACTN    H5 6639   2.110   7.540   2.505
  664ACTN    H6 6640   2.226   7.613   2.392
  665ACTN    C1 6641   5.087   4.895   5.321
  665ACTN    O1 6642   5.245   4.985   5.478
  665ACTN    C2 6643   5.181   4.886   5.438
  665ACTN    C3 6644   5.234   4.756   5.480
  665ACTN    H1 6645   4.983   4.885   5.351
  665ACTN    H2 6646   5.111   4.816   5.251
  665ACTN    H3 6647   5.098   4.993   5.272
  665ACTN    H4 6648   5.173   4.725   5.565
  665ACTN    H5 6649   5.335   4.763   5.521
  665ACTN    H6 6650   5.232   4.680   5.404
  666ACTN    C1 6651   6.126   3.734   2.450
  666ACTN    O1 6652   6.020   3.935   2.373
  666ACTN    C2 6653   6.023   3.844   2.457
  666ACTN    C3 6654   5.954   3.872   2.583
  666ACTN    H1 6655   6.082   3.638   2.424
  666ACTN    H2 6656   6.174   3.726   2.546
  666ACTN    H3 6657   6.201   3.758   2.373
  666ACTN    H4 6658   5.857   3.822   2.576
  666ACTN    H5 6659   5.929   3.978   2.595
  666ACTN    H6 6660   6.006   3.838   2.671
  667ACTN    C1 6661   7.071   7.410   5.890
  667ACTN    O1 6662   7.252   7.488   6.026
  667ACTN    C2 6663   7.188   7.391   5.983
  667ACTN    C3 6664   7.256   7.262   5.991
  667ACTN    H1 6665   6.977   7.385   5.938
  667ACTN    H2 6666   7.085   7.346   5.804
  667ACTN    H3 6667   7.065   7.515   5.857
  667ACTN    H4 6668   7.216   7.212   6.079
  667ACTN    H5 6669   7.363   7.272   6.012
  667ACTN    H6 6670   7.243   7.199   5.904
  668ACTN    C1 6671   4.291   7.030   6.007
  668ACTN    O1 6672   4.195   6.811   5.993
  668ACTN    C2 6673   4.198   6.927   5.950
  668ACTN    C3 6674   4.140   6.945   5.817
  668ACTN    H1 6675   4.238   7.107   6.062
  668ACTN    H2 6676   4.346   7.076   5.925
  668ACTN    H3 6677   4.362   6.982   6.076
  668ACTN    H4 6678   4.039   6.985   5.832
  668ACTN    H5 6679   4.124   6.850   5.764
  668ACTN    H6 6680   4.195   7.012   5.753
  669ACTN    C1 6681   5.530   2.515   7.284
  669ACTN    O1 6682   5.351   2.629   7.396
  669ACTN    C2 6683   5.408   2.603   7.288
  669ACTN    C3 6684   5.327   2.624   7.168
  669ACTN    H1 6685   5.619   2.571   7.258
  669ACTN    H2 6686   5.513   2.438   7.210
  669ACTN    H3 6687   5.547   2.469   7.382
  669ACTN    H4 6688   5.358   2.720   7.127
  669ACTN    H5 6689   5.221   2.637   7.191
  669ACTN    H6 6690   5.338   2.547   7.093
  670ACTN    C1 6691   6.365   5.744   4.357
  670ACTN    O1 6692   6.224   5.550   4.362
  670ACTN    C2 6693   6.247   5.662   4.313
  670ACTN    C3 6694   6.181   5.688   4.185
  670ACTN    H1 6695   6.334   5.832   4.413
  670ACTN    H2 6696   6.419   5.775   4.268
  670ACTN    H3 6697   6.430   5.685   4.421
  670ACTN    H4 6698   6.093   5.748   4.208
  670ACTN    H5 6699   6.141   5.597   4.139
  670ACTN    H6 6700   6.243   5.740   4.113
  671ACTN    C1 6701   7.797   4.397   0.455
  671ACTN    O1 6702   7.626   4.234   0.408
  671ACTN    C2 6703   7.659   4.354   0.411
  671ACTN    C3 6704   7.575   4.444   0.332
  671ACTN    H1 6705   7.795   4.447   0.551
  671ACTN    H2 6706   7.837   4.464   0.380
  671ACTN    H3 6707   7.861   4.309   0.466
  671ACTN    H4 6708   7.506   4.491   0.402
  671ACTN    H5 6709   7.511   4.391   0.262
  671ACTN    H6 6710   7.630   4.521   0.279
  672ACTN    C1 6711   2.891   7.203   6.555
  672ACTN    O1 6712   2.791   7.386   6.674
  672ACTN    C2 6713   2.775   7.288   6.599
  672ACTN    C3 6714   2.638   7.237   6.591
  672ACTN    H1 6715   2.913   7.216   6.450
  672ACTN    H2 6716   2.866   7.099   6.575
  672ACTN    H3 6717   2.981   7.231   6.611
  672ACTN    H4 6718   2.596   7.278   6.500
  672ACTN    H5 6719   2.574   7.276   6.671
  672ACTN    H6 6720   2.632   7.129   6.590
  673ACTN    C1 6721   1.016   1.813   5.319
  673ACTN    O1 6722   1.086   2.032   5.388
  673ACTN    C2 6723   1.099   1.908   5.400
  673ACTN    C3 6724   1.224   1.865   5.462
  673ACTN    H1 6725   0.943   1.760   5.381
  673ACTN    H2 6726   1.082   1.741   5.272
  673ACTN    H3 6727   0.960   1.868   5.242
  673ACTN    H4 6728   1.200   1.843   5.566
  673ACTN    H5 6729   1.299   1.944   5.467
  673ACTN    H6 6730   1.268   1.777   5.416
  674ACTN    C1 6731   5.495   7.508   7.548
  674ACTN    O1 6732   5.663   7.585   7.395
  674ACTN    C2 6733   5.546   7.544   7.412
  674ACTN    C3 6734   5.453   7.576   7.303
  674ACTN    H1 6735   5.478   7.400   7.558
  674ACTN    H2 6736   5.401   7.560   7.564
  674ACTN    H3 6737   5.567   7.537   7.625
  674ACTN    H4 6738   5.445   7.485   7.243
  674ACTN    H5 6739   5.493   7.650   7.234
  674ACTN    H6 6740   5.355   7.606   7.336
  675ACTN    C1 6741   3.032   6.557   7.220
  675ACTN    O1 6742   3.262   6.492   7.208
  675ACTN    C2 6743   3.167   6.527   7.279
  675ACTN    C3 6744   3.181   6.497   7.422
  675ACTN    H1 6745   3.007   6.663   7.225
  675ACTN    H2 6746   2.957   6.501   7.276
  675ACTN    H3 6747   3.030   6.527   7.115
  675ACTN    H4 6748   3.213   6.590   7.469
  675ACTN    H5 6749   3.262   6.427   7.442
  675ACTN    H6 6750   3.090   6.462   7.469
  676ACTN    C1 6751   2.519   3.147   1.781
  676ACTN    O1 6752   2.697   3.238   1.914
  676ACTN    C2 6753   2.593   3.171   1.910
  676ACTN    C3 6754   2.570   3.084   2.026
  676ACTN    H1 6755   2.424   3.200   1.778
  676ACTN    H2 6756   2.501   3.041   1.772
  676ACTN    H3 6757   2.579   3.182   1.697
  676ACTN    H4 6758   2.500   3.137   2.091
  676ACTN    H5 6759   2.660   3.072   2.087
  676ACTN    H6 6760   2.531   2.987   2.001
  677ACTN    C1 6761   5.290   6.296   2.160
  677ACTN    O1 6762   5.063   6.297   2.082
  677ACTN    C2 6763   5.149   6.348   2.156
  677ACTN    C3 6764   5.118   6.484   2.203
  677ACTN    H1 6765   5.312   6.247   2.254
  677ACTN    H2 6766   5.357   6.380   2.146
  677ACTN    H3 6767   5.305   6.222   2.080
  677ACTN    H4 6768   5.080   6.472   2.304
  677ACTN    H5 6769   5.036   6.530   2.147
  677ACTN    H6 6770   5.203   6.550   2.203
  678ACTN    C1 6771   3.276   3.628   3.569
  678ACTN    O1 6772   3.364   3.482   3.399
  678ACTN    C2 6773   3.326   3.597   3.430
  678ACTN    C3 6774   3.372   3.704   3.341
  678ACTN    H1 6775   3.170   3.648   3.570
  678ACTN    H2 6776   3.330   3.716   3.605
  678ACTN    H3 6777   3.295   3.543   3.636
  678ACTN    H4 6778   3.288   3.726   3.275
  678ACTN    H5 6779   3.452   3.671   3.275
  678ACTN    H6 6780   3.402   3.794   3.393
  679ACTN    C1 6781   3.372   7.107   7.410
  679ACTN    O1 6782   3.198   7.270   7.434
  679ACTN    C2 6783   3.302   7.235   7.375
  679ACTN    C3 6784   3.326   7.300   7.246
  679ACTN    H1 6785   3.467   7.125   7.459
  679ACTN    H2 6786   3.389   7.051   7.318
  679ACTN    H3 6787   3.310   7.047   7.478
  679ACTN    H4 6788   3.398   7.380   7.266
  679ACTN    H5 6789   3.237   7.352   7.209
  679ACTN    H6 6790   3.364   7.235   7.170
  680ACTN    C1 6791   5.198   6.823   2.660
  680ACTN    O1 6792   5.037   6.862   2.486
  680ACTN    C2 6793   5.156   6.843   2.517
  680ACTN    C3 6794   5.242   6.797   2.407
  680ACTN    H1 6795   5.257   6.907   2.697
  680ACTN    H2 6796   5.258   6.733   2.666
  680ACTN    H3 6797   5.110   6.814   2.724
  680ACTN    H4 6798   5.296   6.885   2.372
  680ACTN    H5 6799   5.185   6.763   2.320
  680ACTN    H6 6800   5.312   6.720   2.435
  681ACTN    C1 6801   1.337   2.412   2.618
  681ACTN    O1 6802   1.296   2.179   2.584
  681ACTN    C2 6803   1.344   2.284   2.540
  681ACTN    C3 6804   1.444   2.267   2.434
  681ACTN    H1 6805   1.270   2.485   2.572
  681ACTN    H2 6806   1.437   2.455   2.624
  681ACTN    H3 6807   1.299   2.393   2.719
  681ACTN    H4 6808   1.391   2.287   2.340
  681ACTN    H5 6809   1.479   2.164   2.425
  681ACTN    H6 6810   1.529   2.333   2.442
  682ACTN    C1 6811   1.113   5.794   4.522
  682ACTN    O1 6812   0.970   5.665   4.379
  682ACTN    C2 6813   1.070   5.739   4.389
  682ACTN    C3 6814   1.164   5.733   4.277
  682ACTN    H1 6815   1.097   5.902   4.528
  682ACTN    H2 6816   1.218   5.773   4.535
  682ACTN    H3 6817   1.055   5.747   4.603
  682ACTN    H4 6818   1.142   5.819   4.215
  682ACTN    H5 6819   1.146   5.647   4.212
  682ACTN    H6 6820   1.268   5.734   4.306
  683ACTN    C1 6821   5.770   4.550   4.863
  683ACTN    O1 6822   5.645   4.415   5.017
  683ACTN    C2 6823   5.644   4.503   4.930
  683ACTN    C3 6824   5.514   4.526   4.866
  683ACTN    H1 6825   5.796   4.652   4.892
  683ACTN    H2 6826   5.756   4.546   4.756
  683ACTN    H3 6827   5.854   4.486   4.892
  683ACTN    H4 6828   5.471   4.614   4.915
  683ACTN    H5 6829   5.442   4.446   4.888
  683ACTN    H6 6830   5.518   4.542   4.760
  684ACTN    C1 6831   6.437   2.987   0.092
  684ACTN    O1 6832   6.328   2.879   0.276
  684ACTN    C2 6833   6.388   2.867   0.168
  684ACTN    C3 6834   6.445   2.734   0.144
  684ACTN    H1 6835   6.381   3.001  -0.000
  684ACTN    H2 6836   6.542   2.971   0.068
  684ACTN    H3 6837   6.425   3.077   0.152
  684ACTN    H4 6838   6.376   2.683   0.077
  684ACTN    H5 6839   6.448   2.672   0.234
  684ACTN    H6 6840   6.544   2.736   0.099
  685ACTN    C1 6841   0.361   4.649   0.370
  685ACTN    O1 6842   0.594   4.592   0.354
  685ACTN    C2 6843   0.500   4.632   0.425
  685ACTN    C3 6844   0.521   4.619   0.569
  685ACTN    H1 6845   0.332   4.754   0.364
  685ACTN    H2 6846   0.292   4.597   0.435
  685ACTN    H3 6847   0.355   4.608   0.269
  685ACTN    H4 6848   0.551   4.718   0.604
  685ACTN    H5 6849   0.606   4.555   0.594
  685ACTN    H6 6850   0.435   4.586   0.624
  686ACTN    C1 6851   1.339   7.423   7.429
  686ACTN    O1 6852   1.520   7.563   7.357
  686ACTN    C2 6853   1.462   7.454   7.347
  686ACTN    C3 6854   1.490   7.379   7.225
  686ACTN    H1 6855   1.359   7.347   7.504
  686ACTN    H2 6856   1.262   7.388   7.363
  686ACTN    H3 6857   1.306   7.513   7.482
  686ACTN    H4 6858   1.564   7.303   7.252
  686ACTN    H5 6859   1.540   7.439   7.149
  686ACTN    H6 6860   1.403   7.331   7.181
  687ACTN    C1 6861   0.894   2.254   2.943
  687ACTN    O1 6862   1.107   2.246   2.833
  687ACTN    C2 6863   1.006   2.184   2.871
  687ACTN    C3 6864   0.984   2.055   2.806
  687ACTN    H1 6865   0.888   2.224   3.048
  687ACTN    H2 6866   0.801   2.229   2.894
  687ACTN    H3 6867   0.910   2.362   2.941
  687ACTN    H4 6868   1.020   1.979   2.875
  687ACTN    H5 6869   1.045   2.042   2.716
  687ACTN    H6 6870   0.880   2.035   2.781
  688ACTN    C1 6871   4.380   4.174   2.049
  688ACTN    O1 6872   4.510   4.082   1.870
  688ACTN    C2 6873   4.412   4.149   1.905
  688ACTN    C3 6874   4.356   4.235   1.800
  688ACTN    H1 6875   4.291   4.122   2.081
  688ACTN    H2 6876   4.365   4.281   2.063
  688ACTN    H3 6877   4.463   4.140   2.112
  688ACTN    H4 6878   4.269   4.182   1.760
  688ACTN    H5 6879   4.423   4.247   1.714
  688ACTN    H6 6880   4.325   4.333   1.835
  689ACTN    C1 6881   5.953   2.272   4.804
  689ACTN    O1 6882   5.807   2.082   4.810
  689ACTN    C2 6883   5.849   2.179   4.746
  689ACTN    C3 6884   5.826   2.174   4.602
  689ACTN    H1 6885   5.912   2.370   4.826
  689ACTN    H2 6886   6.033   2.282   4.731
  689ACTN    H3 6887   5.992   2.230   4.897
  689ACTN    H4 6888   5.739   2.236   4.582
  689ACTN    H5 6889   5.797   2.074   4.568
  689ACTN    H6 6890   5.910   2.208   4.542
  690ACTN    C1 6891   5.961   6.084   2.485
  690ACTN    O1 6892   5.904   5.887   2.609
  690ACTN    C2 6893   5.987   5.946   2.538
  690ACTN    C3 6894   6.124   5.894   2.545
  690ACTN    H1 6895   5.945   6.085   2.378
  690ACTN    H2 6896   6.046   6.147   2.509
  690ACTN    H3 6897   5.871   6.126   2.532
  690ACTN    H4 6898   6.136   5.831   2.457
  690ACTN    H5 6899   6.139   5.826   2.629
  690ACTN    H6 6900   6.200   5.970   2.546
  691ACTN    C1 6901   4.131   5.055   4.495
  691ACTN    O1 6902   3.910   5.057   4.402
  691ACTN    C2 6903   3.984   5.024   4.496
  691ACTN    C3 6904   3.915   4.994   4.622
  691ACTN    H1 6905   4.191   4.965   4.484
  691ACTN    H2 6906   4.156   5.103   4.589
  691ACTN    H3 6907   4.155   5.121   4.411
  691ACTN    H4 6908   3.908   4.885   4.627
  691ACTN    H5 6909   3.811   5.028   4.622
  691ACTN    H6 6910   3.965   5.031   4.710
  692ACTN    C1 6911   7.317   3.347   3.494
  692ACTN    O1 6912   7.217   3.466   3.311
  692ACTN    C2 6913   7.321   3.432   3.370
  692ACTN    C3 6914   7.444   3.443   3.290
  692ACTN    H1 6915   7.347   3.403   3.582
  692ACTN    H2 6916   7.385   3.264   3.480
  692ACTN    H3 6917   7.216   3.310   3.510
  692ACTN    H4 6918   7.492   3.536   3.320
  692ACTN    H5 6919   7.424   3.455   3.184
  692ACTN    H6 6920   7.513   3.360   3.305
  693ACTN    C1 6921   1.906   2.964   1.008
  693ACTN    O1 6922   1.944   2.932   1.243
  693ACTN    C2 6923   1.901   3.006   1.152
  693ACTN    C3 6924   1.809   3.111   1.195
  693ACTN    H1 6925   1.978   3.023   0.951
  693ACTN    H2 6926   1.808   2.977   0.965
  693ACTN    H3 6927   1.937   2.859   1.000
  693ACTN    H4 6928   1.868   3.202   1.201
  693ACTN    H5 6929   1.772   3.095   1.297
  693ACTN    H6 6930   1.725   3.126   1.129
  694ACTN    C1 6931   5.522   6.712   7.078
  694ACTN    O1 6932   5.719   6.641   7.195
  694ACTN    C2 6933   5.596   6.658   7.197
  694ACTN    C3 6934   5.525   6.583   7.301
  694ACTN    H1 6935   5.484   6.812   7.096
  694ACTN    H2 6936   5.439   6.646   7.056
  694ACTN    H3 6937   5.589   6.718   6.992
  694ACTN    H4 6938   5.506   6.653   7.382
  694ACTN    H5 6939   5.587   6.504   7.346
  694ACTN    H6 6940   5.431   6.540   7.268
  695ACTN    C1 6941   1.421   7.207   5.186
  695ACTN    O1 6942   1.445   7.399   5.044
  695ACTN    C2 6943   1.380   7.297   5.073
  695ACTN    C3 6944   1.242   7.295   5.022
  695ACTN    H1 6945   1.456   7.110   5.150
  695ACTN    H2 6946   1.334   7.191   5.250
  695ACTN    H3 6947   1.502   7.253   5.243
  695ACTN    H4 6948   1.244   7.233   4.933
  695ACTN    H5 6949   1.209   7.393   4.987
  695ACTN    H6 6950   1.170   7.256   5.093
  696ACTN    C1 6951   6.441   6.635   3.902
  696ACTN    O1 6952   6.306   6.577   3.713
  696ACTN    C2 6953   6.338   6.663   3.797
  696ACTN    C3 6954   6.305   6.801   3.760
  696ACTN    H1 6955   6.397   6.630   4.002
  696ACTN    H2 6956   6.515   6.714   3.900
  696ACTN    H3 6957   6.490   6.538   3.883
  696ACTN    H4 6958   6.214   6.826   3.814
  696ACTN    H5 6959   6.279   6.811   3.654
  696ACTN    H6 6960   6.382   6.873   3.784
  697ACTN    C1 6961   1.283   1.122   3.559
  697ACTN    O1 6962   1.196   1.053   3.346
  697ACTN    C2 6963   1.228   1.147   3.421
  697ACTN    C3 6964   1.251   1.275   3.353
  697ACTN    H1 6965   1.213   1.153   3.636
  697ACTN    H2 6966   1.375   1.178   3.569
  697ACTN    H3 6967   1.303   1.015   3.573
  697ACTN    H4 6968   1.161   1.333   3.368
  697ACTN    H5 6969   1.260   1.264   3.245
  697ACTN    H6 6970   1.337   1.330   3.391
  698ACTN    C1 6971   3.824   2.023   2.043
  698ACTN    O1 6972   3.708   1.960   2.244
  698ACTN    C2 6973   3.701   2.003   2.127
  698ACTN    C3 6974   3.569   1.991   2.065
  698ACTN    H1 6975   3.844   2.129   2.026
  698ACTN    H2 6976   3.809   1.974   1.948
  698ACTN    H3 6977   3.911   1.981   2.094
  698ACTN    H4 6978   3.522   2.089   2.072
  698ACTN    H5 6979   3.502   1.924   2.120
  698ACTN    H6 6980   3.572   1.961   1.961
  699ACTN    C1 6981   2.771   1.121   7.887
  699ACTN    O1 6982   2.697   0.903   7.819
  699ACTN    C2 6983   2.732   1.017   7.785
  699ACTN    C3 6984   2.775   1.030   7.646
  699ACTN    H1 6985   2.698   1.202   7.892
  699ACTN    H2 6986   2.868   1.162   7.858
  699ACTN    H3 6987   2.778   1.076   7.986
  699ACTN    H4 6988   2.691   1.072   7.591
  699ACTN    H5 6989   2.793   0.933   7.598
  699ACTN    H6 6990   2.862   1.092   7.632
  700ACTN    C1 6991   2.367   0.129   0.847
  700ACTN    O1 6992   2.165   0.257   0.846
  700ACTN    C2 6993   2.244   0.187   0.910
  700ACTN    C3 6994   2.234   0.200   1.056
  700ACTN    H1 6995   2.361   0.020   0.837
  700ACTN    H2 6996   2.453   0.153   0.910
  700ACTN    H3 6997   2.381   0.170   0.747
  700ACTN    H4 6998   2.176   0.115   1.091
  700ACTN    H5 6999   2.176   0.288   1.086
  700ACTN    H6 7000   2.330   0.202   1.107
  701ACTN    C1 7001   6.303   6.664   1.809
  701ACTN    O1 7002   6.395   6.648   2.030
  701ACTN    C2 7003   6.339   6.718   1.944
  701ACTN    C3 7004   6.273   6.838   1.996
  701ACTN    H1 7005   6.364   6.707   1.730
  701ACTN    H2 7006   6.199   6.686   1.790
  701ACTN    H3 7007   6.319   6.555   1.806
  701ACTN    H4 7008   6.341   6.921   1.977
  701ACTN    H5 7009   6.261   6.836   2.105
  701ACTN    H6 7010   6.177   6.859   1.951
  702ACTN    C1 7011   1.737   2.566   3.251
  702ACTN    O1 7012   1.852   2.356   3.232
  702ACTN    C2 7013   1.790   2.447   3.175
  702ACTN    C3 7014   1.810   2.455   3.030
  702ACTN    H1 7015   1.628   2.566   3.256
  702ACTN    H2 7016   1.770   2.656   3.201
  702ACTN    H3 7017   1.775   2.564   3.354
  702ACTN    H4 7018   1.722   2.408   2.985
  702ACTN    H5 7019   1.894   2.395   2.996
  702ACTN    H6 7020   1.820   2.556   2.992
  703ACTN    C1 7021   6.841   0.337   2.023
  703ACTN    O1 7022   7.003   0.498   2.095
  703ACTN    C2 7023   6.906   0.426   2.124
  703ACTN    C3 7024   6.887   0.402   2.267
  703ACTN    H1 7025   6.741   0.372   1.995
  703ACTN    H2 7026   6.833   0.237   2.065
  703ACTN    H3 7027   6.901   0.334   1.931
  703ACTN    H4 7028   6.809   0.471   2.300
  703ACTN    H5 7029   6.975   0.430   2.326
  703ACTN    H6 7030   6.859   0.301   2.292
  704ACTN    C1 7031   2.869   3.721   3.952
  704ACTN    O1 7032   2.789   3.939   4.013
  704ACTN    C2 7033   2.873   3.849   4.031
  704ACTN    C3 7034   2.996   3.893   4.097
  704ACTN    H1 7035   2.843   3.636   4.014
  704ACTN    H2 7036   2.968   3.705   3.909
  704ACTN    H3 7037   2.795   3.729   3.872
  704ACTN    H4 7038   2.987   3.863   4.201
  704ACTN    H5 7039   3.007   4.001   4.100
  704ACTN    H6 7040   3.086   3.849   4.055
  705ACTN    C1 7041   7.866   3.970   1.071
  705ACTN    O1 7042   7.699   3.839   1.184
  705ACTN    C2 7043   7.819   3.856   1.157
  705ACTN    C3 7044   7.913   3.786   1.246
  705ACTN    H1 7045   7.902   3.936   0.974
  705ACTN    H2 7046   7.946   4.021   1.123
  705ACTN    H3 7047   7.783   4.039   1.053
  705ACTN    H4 7048   7.944   3.696   1.193
  705ACTN    H5 7049   7.865   3.750   1.337
  705ACTN    H6 7050   8.000   3.845   1.272
  706ACTN    C1 7051   1.022   3.446   6.547
  706ACTN    O1 7052   0.799   3.438   6.458
  706ACTN    C2 7053   0.880   3.494   6.534
  706ACTN    C3 7054   0.843   3.629   6.576
  706ACTN    H1 7055   1.041   3.401   6.643
  706ACTN    H2 7056   1.088   3.531   6.534
  706ACTN    H3 7057   1.043   3.371   6.470
  706ACTN    H4 7058   0.801   3.620   6.676
  706ACTN    H5 7059   0.763   3.672   6.515
  706ACTN    H6 7060   0.926   3.699   6.578
  707ACTN    C1 7061   3.680   1.399   2.467
  707ACTN    O1 7062   3.619   1.608   2.367
  707ACTN    C2 7063   3.655   1.490   2.351
  707ACTN    C3 7064   3.630   1.436   2.217
  707ACTN    H1 7065   3.786   1.376   2.479
  707ACTN    H2 7066   3.625   1.307   2.451
  707ACTN    H3 7067   3.647   1.447   2.560
  707ACTN    H4 7068   3.725   1.442   2.164
  707ACTN    H5 7069   3.561   1.497   2.159
  707ACTN    H6 7070   3.595   1.334   2.217
  708ACTN    C1 7071   7.308   6.179   7.935
  708ACTN    O1 7072   7.120   6.323   7.971
  708ACTN    C2 7073   7.233   6.308   7.922
  708ACTN    C3 7074   7.268   6.405   7.817
  708ACTN    H1 7075   7.394   6.189   8.000
  708ACTN    H2 7076   7.341   6.149   7.836
  708ACTN    H3 7077   7.243   6.102   7.977
  708ACTN    H4 7078   7.330   6.480   7.865
  708ACTN    H5 7079   7.181   6.460   7.780
  708ACTN    H6 7080   7.320   6.362   7.733
  709ACTN    C1 7081   4.444   6.058   5.872
  709ACTN    O1 7082   4.641   5.920   5.874
  709ACTN    C2 7083   4.592   6.033   5.889
  709ACTN    C3 7084   4.675   6.128   5.963
  709ACTN    H1 7085   4.422   6.116   5.783
  709ACTN    H2 7086   4.409   6.111   5.960
  709ACTN    H3 7087   4.391   5.962   5.863
  709ACTN    H4 7088   4.724   6.190   5.888
  709ACTN    H5 7089   4.758   6.079   6.016
  709ACTN    H6 7090   4.621   6.190   6.032
  710ACTN    C1 7091   3.002   0.073   3.855
  710ACTN    O1 7092   2.977   0.246   4.018
  710ACTN    C2 7093   3.008   0.128   3.994
  710ACTN    C3 7094   3.089   0.062   4.097
  710ACTN    H1 7095   2.921  -0.000   3.843
  710ACTN    H2 7096   3.097   0.025   3.833
  710ACTN    H3 7097   2.983   0.154   3.783
  710ACTN    H4 7098   3.020   0.002   4.156
  710ACTN    H5 7099   3.132   0.133   4.169
  710ACTN    H6 7100   3.168  -0.000   4.058
  711ACTN    C1 7101   7.180   6.468   6.880
  711ACTN    O1 7102   7.389   6.585   6.861
  711ACTN    C2 7103   7.295   6.529   6.803
  711ACTN    C3 7104   7.280   6.562   6.662
  711ACTN    H1 7105   7.180   6.360   6.874
  711ACTN    H2 7106   7.088   6.506   6.838
  711ACTN    H3 7107   7.187   6.496   6.986
  711ACTN    H4 7108   7.324   6.480   6.606
  711ACTN    H5 7109   7.338   6.650   6.633
  711ACTN    H6 7110   7.177   6.576   6.630
  712ACTN    C1 7111   0.071   2.406   2.479
  712ACTN    O1 7112  -0.001   2.574   2.635
  712ACTN    C2 7113   0.040   2.458   2.617
  712ACTN    C3 7114   0.096   2.393   2.735
  712ACTN    H1 7115  -0.000   2.330   2.447
  712ACTN    H2 7116   0.171   2.362   2.481
  712ACTN    H3 7117   0.068   2.488   2.406
  712ACTN    H4 7118   0.017   2.328   2.774
  712ACTN    H5 7119   0.116   2.463   2.817
  712ACTN    H6 7120   0.185   2.334   2.716
  713ACTN    C1 7121   2.114   2.080   1.447
  713ACTN    O1 7122   2.179   1.880   1.562
  713ACTN    C2 7123   2.108   1.933   1.474
  713ACTN    C3 7124   2.056   1.840   1.374
  713ACTN    H1 7125   2.022   2.131   1.478
  713ACTN    H2 7126   2.129   2.095   1.341
  713ACTN    H3 7127   2.196   2.126   1.503
  713ACTN    H4 7128   1.953   1.820   1.402
  713ACTN    H5 7129   2.105   1.743   1.376
  713ACTN    H6 7130   2.058   1.879   1.273
  714ACTN    C1 7131   6.480   5.824   0.254
  714ACTN    O1 7132   6.602   5.714   0.080
  714ACTN    C2 7133   6.591   5.739   0.201
  714ACTN    C3 7134   6.664   5.648   0.290
  714ACTN    H1 7135   6.516   5.920   0.291
  714ACTN    H2 7136   6.432   5.771   0.336
  714ACTN    H3 7137   6.406   5.844   0.175
  714ACTN    H4 7138   6.756   5.699   0.317
  714ACTN    H5 7139   6.697   5.557   0.239
  714ACTN    H6 7140   6.610   5.620   0.379
  715ACTN    C1 7141   7.692   5.572   2.705
  715ACTN    O1 7142   7.856   5.527   2.875
  715ACTN    C2 7143   7.803   5.492   2.767
  715ACTN    C3 7144   7.883   5.399   2.686
  715ACTN    H1 7145   7.597   5.519   2.708
  715ACTN    H2 7146   7.718   5.592   2.602
  715ACTN    H3 7147   7.679   5.667   2.759
  715ACTN    H4 7148   7.841   5.300   2.705
  715ACTN    H5 7149   7.986   5.392   2.720
  715ACTN    H6 7150   7.881   5.420   2.580
  716ACTN    C1 7151   7.815   7.334   2.832
  716ACTN    O1 7152   7.976   7.460   2.957
  716ACTN    C2 7153   7.859   7.419   2.947
  716ACTN    C3 7154   7.783   7.421   3.072
  716ACTN    H1 7155   7.747   7.388   2.766
  716ACTN    H2 7156   7.765   7.246   2.871
  716ACTN    H3 7157   7.902   7.304   2.772
  716ACTN    H4 7158   7.721   7.510   3.068
  716ACTN    H5 7159   7.846   7.435   3.160
  716ACTN    H6 7160   7.720   7.334   3.087
  717ACTN    C1 7161   4.469   1.669   4.479
  717ACTN    O1 7162   4.504   1.868   4.349
  717ACTN    C2 7163   4.517   1.745   4.358
  717ACTN    C3 7164   4.542   1.675   4.232
  717ACTN    H1 7165   4.551   1.631   4.538
  717ACTN    H2 7166   4.408   1.586   4.445
  717ACTN    H3 7167   4.410   1.735   4.543
  717ACTN    H4 7168   4.649   1.657   4.227
  717ACTN    H5 7169   4.521   1.738   4.144
  717ACTN    H6 7170   4.489   1.581   4.222
  718ACTN    C1 7171   4.312   3.371   7.104
  718ACTN    O1 7172   4.118   3.252   7.180
  718ACTN    C2 7173   4.168   3.330   7.097
  718ACTN    C3 7174   4.093   3.344   6.972
  718ACTN    H1 7175   4.324   3.475   7.132
  718ACTN    H2 7176   4.358   3.354   7.007
  718ACTN    H3 7177   4.365   3.311   7.180
  718ACTN    H4 7178   4.036   3.436   6.981
  718ACTN    H5 7179   4.017   3.266   6.959
  718ACTN    H6 7180   4.155   3.348   6.884
  719ACTN    C1 7181   0.422   2.990   6.408
  719ACTN    O1 7182   0.522   3.165   6.537
  719ACTN    C2 7183   0.491   3.122   6.425
  719ACTN    C3 7184   0.487   3.222   6.318
  719ACTN    H1 7185   0.487   2.915   6.362
  719ACTN    H2 7186   0.335   3.005   6.345
  719ACTN    H3 7187   0.391   2.951   6.506
  719ACTN    H4 7188   0.581   3.213   6.264
  719ACTN    H5 7189   0.488   3.325   6.357
  719ACTN    H6 7190   0.405   3.210   6.250
  720ACTN    C1 7191   5.364   4.942   6.979
  720ACTN    O1 7192   5.424   4.711   6.954
  720ACTN    C2 7193   5.378   4.800   7.027
  720ACTN    C3 7194   5.301   4.753   7.142
  720ACTN    H1 7195   5.435   5.009   7.028
  720ACTN    H2 7196   5.263   4.975   6.999
  720ACTN    H3 7197   5.384   4.947   6.871
  720ACTN    H4 7198   5.368   4.758   7.228
  720ACTN    H5 7199   5.274   4.648   7.134
  720ACTN    H6 7200   5.212   4.811   7.163
  721ACTN    C1 7201   0.559   6.421   4.332
  721ACTN    O1 7202   0.769   6.537   4.347
  721ACTN    C2 7203   0.645   6.542   4.355
  721ACTN    C3 7204   0.592   6.657   4.429
  721ACTN    H1 7205   0.502   6.429   4.240
  721ACTN    H2 7206   0.491   6.411   4.415
  721ACTN    H3 7207   0.623   6.331   4.324
  721ACTN    H4 7208   0.561   6.730   4.353
  721ACTN    H5 7209   0.669   6.709   4.487
  721ACTN    H6 7210   0.509   6.634   4.493
  722ACTN    C1 7211   4.412   6.805   4.423
  722ACTN    O1 7212   4.609   6.692   4.347
  722ACTN    C2 7213   4.486   6.707   4.338
  722ACTN    C3 7214   4.427   6.656   4.214
  722ACTN    H1 7215   4.348   6.756   4.497
  722ACTN    H2 7216   4.350   6.867   4.359
  722ACTN    H3 7217   4.483   6.868   4.478
  722ACTN    H4 7218   4.385   6.559   4.238
  722ACTN    H5 7219   4.502   6.635   4.137
  722ACTN    H6 7220   4.351   6.720   4.172
  723ACTN    C1 7221   4.903   3.295   6.854
  723ACTN    O1 7222   5.000   3.124   6.990
  723ACTN    C2 7223   4.941   3.153   6.885
  723ACTN    C3 7224   4.952   3.054   6.778
  723ACTN    H1 7225   4.795   3.309   6.857
  723ACTN    H2 7226   4.939   3.320   6.754
  723ACTN    H3 7227   4.947   3.363   6.927
  723ACTN    H4 7228   4.859   2.998   6.779
  723ACTN    H5 7229   5.030   2.979   6.797
  723ACTN    H6 7230   4.967   3.096   6.679
  724ACTN    C1 7231   4.923   6.035   2.934
  724ACTN    O1 7232   5.095   6.017   2.767
  724ACTN    C2 7233   4.974   6.004   2.796
  724ACTN    C3 7234   4.883   6.000   2.682
  724ACTN    H1 7235   4.892   5.945   2.987
  724ACTN    H2 7236   4.839   6.102   2.925
  724ACTN    H3 7237   5.002   6.082   2.994
  724ACTN    H4 7238   4.859   5.895   2.665
  724ACTN    H5 7239   4.930   6.034   2.589
  724ACTN    H6 7240   4.791   6.056   2.697
  725ACTN    C1 7241   2.613   1.953   1.439
  725ACTN    O1 7242   2.393   1.933   1.535
  725ACTN    C2 7243   2.470   1.906   1.441
  725ACTN    C3 7244   2.428   1.794   1.356
  725ACTN    H1 7245   2.630   2.029   1.364
  725ACTN    H2 7246   2.676   1.867   1.419
  725ACTN    H3 7247   2.639   1.997   1.537
  725ACTN    H4 7248   2.382   1.839   1.268
  725ACTN    H5 7249   2.348   1.735   1.402
  725ACTN    H6 7250   2.508   1.729   1.326
  726ACTN    C1 7251   2.778   5.536   4.439
  726ACTN    O1 7252   2.758   5.320   4.541
  726ACTN    C2 7253   2.768   5.443   4.556
  726ACTN    C3 7254   2.726   5.492   4.688
  726ACTN    H1 7255   2.877   5.581   4.432
  726ACTN    H2 7256   2.704   5.614   4.451
  726ACTN    H3 7257   2.760   5.482   4.346
  726ACTN    H4 7258   2.817   5.507   4.745
  726ACTN    H5 7259   2.669   5.418   4.745
  726ACTN    H6 7260   2.670   5.584   4.684
  727ACTN    C1 7261   1.171   7.114   2.093
  727ACTN    O1 7262   1.050   7.306   2.170
  727ACTN    C2 7263   1.090   7.239   2.073
  727ACTN    C3 7264   1.019   7.263   1.947
  727ACTN    H1 7265   1.274   7.127   2.060
  727ACTN    H2 7266   1.125   7.034   2.036
  727ACTN    H3 7267   1.174   7.087   2.199
  727ACTN    H4 7268   1.082   7.330   1.889
  727ACTN    H5 7269   0.925   7.318   1.962
  727ACTN    H6 7270   0.999   7.173   1.890
  728ACTN    C1 7271   1.199   1.551   7.544
  728ACTN    O1 7272   1.323   1.712   7.670
  728ACTN    C2 7273   1.247   1.690   7.575
  728ACTN    C3 7274   1.173   1.806   7.526
  728ACTN    H1 7275   1.242   1.513   7.451
  728ACTN    H2 7276   1.091   1.553   7.535
  728ACTN    H3 7277   1.230   1.482   7.623
  728ACTN    H4 7278   1.226   1.840   7.437
  728ACTN    H5 7279   1.178   1.891   7.595
  728ACTN    H6 7280   1.070   1.786   7.501
  729ACTN    C1 7281   2.614   3.024   5.680
  729ACTN    O1 7282   2.595   3.149   5.884
  729ACTN    C2 7283   2.538   3.086   5.793
  729ACTN    C3 7284   2.402   3.039   5.826
  729ACTN    H1 7285   2.595   3.075   5.585
  729ACTN    H2 7286   2.584   2.920   5.671
  729ACTN    H3 7287   2.722   3.030   5.699
  729ACTN    H4 7288   2.334   3.110   5.780
  729ACTN    H5 7289   2.381   3.046   5.933
  729ACTN    H6 7290   2.380   2.940   5.791
  730ACTN    C1 7291   6.470   4.555   1.215
  730ACTN    O1 7292   6.244   4.554   1.134
  730ACTN    C2 7293   6.364   4.528   1.112
  730ACTN    C3 7294   6.388   4.433   1.003
  730ACTN    H1 7295   6.536   4.636   1.185
  730ACTN    H2 7296   6.529   4.465   1.227
  730ACTN    H3 7297   6.424   4.584   1.310
  730ACTN    H4 7298   6.416   4.493   0.916
  730ACTN    H5 7299   6.297   4.380   0.972
  730ACTN    H6 7300   6.466   4.361   1.023
  731ACTN    C1 7301   5.533   0.385   2.594
  731ACTN    O1 7302   5.454   0.536   2.425
  731ACTN    C2 7303   5.521   0.435   2.453
  731ACTN    C3 7304   5.549   0.347   2.340
  731ACTN    H1 7305   5.634   0.399   2.634
  731ACTN    H2 7306   5.509   0.279   2.595
  731ACTN    H3 7307   5.464   0.440   2.660
  731ACTN    H4 7308   5.651   0.370   2.308
  731ACTN    H5 7309   5.487   0.369   2.253
  731ACTN    H6 7310   5.542   0.241   2.363
  732ACTN    C1 7311   6.938   6.681   5.111
  732ACTN    O1 7312   6.889   6.564   5.314
  732ACTN    C2 7313   6.866   6.578   5.193
  732ACTN    C3 7314   6.801   6.464   5.128
  732ACTN    H1 7315   6.872   6.762   5.080
  732ACTN    H2 7316   6.979   6.633   5.023
  732ACTN    H3 7317   7.020   6.726   5.169
  732ACTN    H4 7318   6.695   6.490   5.122
  732ACTN    H5 7319   6.803   6.374   5.190
  732ACTN    H6 7320   6.839   6.441   5.030
  733ACTN    C1 7321   1.668   7.258   6.136
  733ACTN    O1 7322   1.747   7.122   6.317
  733ACTN    C2 7323   1.770   7.214   6.237
  733ACTN    C3 7324   1.882   7.301   6.274
  733ACTN    H1 7325   1.696   7.232   6.035
  733ACTN    H2 7326   1.657   7.366   6.144
  733ACTN    H3 7327   1.571   7.210   6.157
  733ACTN    H4 7328   1.967   7.268   6.215
  733ACTN    H5 7329   1.913   7.289   6.378
  733ACTN    H6 7330   1.863   7.406   6.255
  734ACTN    C1 7331   7.803   6.095   0.427
  734ACTN    O1 7332   7.745   6.328   0.433
  734ACTN    C2 7333   7.757   6.224   0.365
  734ACTN    C3 7334   7.684   6.224   0.238
  734ACTN    H1 7335   7.903   6.068   0.393
  734ACTN    H2 7336   7.733   6.017   0.399
  734ACTN    H3 7337   7.808   6.105   0.536
  734ACTN    H4 7338   7.758   6.248   0.161
  734ACTN    H5 7339   7.611   6.305   0.232
  734ACTN    H6 7340   7.636   6.130   0.214
  735ACTN    C1 7341   5.347   1.501   1.412
  735ACTN    O1 7342   5.319   1.264   1.386
  735ACTN    C2 7343   5.324   1.376   1.332
  735ACTN    C3 7344   5.349   1.374   1.187
  735ACTN    H1 7345   5.258   1.564   1.415
  735ACTN    H2 7346   5.428   1.557   1.366
  735ACTN    H3 7347   5.373   1.475   1.515
  735ACTN    H4 7348   5.253   1.388   1.139
  735ACTN    H5 7349   5.385   1.277   1.152
  735ACTN    H6 7350   5.418   1.451   1.154
  736ACTN    C1 7351   5.444   7.739   0.951
  736ACTN    O1 7352   5.313   7.910   1.056
  736ACTN    C2 7353   5.350   7.791   1.056
  736ACTN    C3 7354   5.334   7.721   1.184
  736ACTN    H1 7355   5.395   7.669   0.884
  736ACTN    H2 7356   5.526   7.688   1.001
  736ACTN    H3 7357   5.483   7.821   0.891
  736ACTN    H4 7358   5.244   7.661   1.174
  736ACTN    H5 7359   5.314   7.789   1.267
  736ACTN    H6 7360   5.417   7.656   1.210
  737ACTN    C1 7361   1.021   3.918   2.749
  737ACTN    O1 7362   0.789   3.950   2.802
  737ACTN    C2 7363   0.906   3.945   2.843
  737ACTN    C3 7364   0.930   4.007   2.974
  737ACTN    H1 7365   1.065   3.820   2.766
  737ACTN    H2 7366   1.096   3.995   2.765
  737ACTN    H3 7367   0.986   3.921   2.645
  737ACTN    H4 7368   0.932   3.925   3.046
  737ACTN    H5 7369   0.847   4.070   3.006
  737ACTN    H6 7370   1.022   4.063   2.980
  738ACTN    C1 7371   7.483   4.540   3.788
  738ACTN    O1 7372   7.511   4.530   4.026
  738ACTN    C2 7373   7.434   4.549   3.930
  738ACTN    C3 7374   7.292   4.535   3.961
  738ACTN    H1 7375   7.483   4.638   3.740
  738ACTN    H2 7376   7.417   4.474   3.734
  738ACTN    H3 7377   7.585   4.502   3.785
  738ACTN    H4 7378   7.254   4.637   3.974
  738ACTN    H5 7379   7.274   4.487   4.058
  738ACTN    H6 7380   7.235   4.484   3.885
  739ACTN    C1 7381   6.948   7.193   1.949
  739ACTN    O1 7382   6.788   7.023   1.891
  739ACTN    C2 7383   6.871   7.066   1.974
  739ACTN    C3 7384   6.857   7.013   2.110
  739ACTN    H1 7385   7.054   7.173   1.931
  739ACTN    H2 7386   6.938   7.257   2.036
  739ACTN    H3 7387   6.909   7.244   1.860
  739ACTN    H4 7388   6.932   6.935   2.119
  739ACTN    H5 7389   6.762   6.963   2.125
  739ACTN    H6 7390   6.871   7.087   2.187
  740ACTN    C1 7391   7.192   0.479   5.050
  740ACTN    O1 7392   7.066   0.674   4.988
  740ACTN    C2 7393   7.158   0.595   4.960
  740ACTN    C3 7394   7.199   0.594   4.819
  740ACTN    H1 7395   7.289   0.493   5.099
  740ACTN    H2 7396   7.195   0.389   4.990
  740ACTN    H3 7397   7.117   0.469   5.129
  740ACTN    H4 7398   7.289   0.655   4.814
  740ACTN    H5 7399   7.127   0.645   4.754
  740ACTN    H6 7400   7.219   0.496   4.780
  741ACTN    C1 7401   7.869   4.083   5.237
  741ACTN    O1 7402   7.800   4.160   5.020
  741ACTN    C2 7403   7.805   4.066   5.102
  741ACTN    C3 7404   7.711   3.957   5.077
  741ACTN    H1 7405   7.962   4.027   5.246
  741ACTN    H2 7406   7.799   4.048   5.312
  741ACTN    H3 7407   7.892   4.189   5.255
  741ACTN    H4 7408   7.768   3.878   5.028
  741ACTN    H5 7409   7.633   3.984   5.005
  741ACTN    H6 7410   7.665   3.917   5.166
  742ACTN    C1 7411   6.410   4.028   5.503
  742ACTN    O1 7412   6.554   4.210   5.442
  742ACTN    C2 7413   6.460   4.135   5.410
  742ACTN    C3 7414   6.376   4.183   5.299
  742ACTN    H1 7415   6.433   3.928   5.466
  742ACTN    H2 7416   6.302   4.038   5.511
  742ACTN    H3 7417   6.456   4.039   5.601
  742ACTN    H4 7418   6.410   4.131   5.210
  742ACTN    H5 7419   6.393   4.289   5.277
  742ACTN    H6 7420   6.271   4.167   5.314
  743ACTN    C1 7421   5.200   1.849   7.492
  743ACTN    O1 7422   5.219   2.055   7.614
  743ACTN    C2 7423   5.215   1.930   7.617
  743ACTN    C3 7424   5.268   1.870   7.740
  743ACTN    H1 7425   5.103   1.800   7.487
  743ACTN    H2 7426   5.278   1.773   7.491
  743ACTN    H3 7427   5.209   1.913   7.404
  743ACTN    H4 7428   5.182   1.845   7.801
  743ACTN    H5 7429   5.326   1.941   7.800
  743ACTN    H6 7430   5.327   1.781   7.723
  744ACTN    C1 7431   5.392   4.029   0.509
  744ACTN    O1 7432   5.206   4.154   0.595
  744ACTN    C2 7433   5.283   4.056   0.609
  744ACTN    C3 7434   5.288   4.000   0.743
  744ACTN    H1 7435   5.372   3.939   0.451
  744ACTN    H2 7436   5.485   4.016   0.564
  744ACTN    H3 7437   5.401   4.112   0.439
  744ACTN    H4 7438   5.224   3.911   0.742
  744ACTN    H5 7439   5.243   4.065   0.818
  744ACTN    H6 7440   5.387   3.971   0.776
  745ACTN    C1 7441   3.561   7.409   4.954
  745ACTN    O1 7442   3.330   7.471   4.935
  745ACTN    C2 7443   3.436   7.441   4.877
  745ACTN    C3 7444   3.421   7.398   4.738
  745ACTN    H1 7445   3.637   7.486   4.942
  745ACTN    H2 7446   3.600   7.315   4.918
  745ACTN    H3 7447   3.538   7.402   5.061
  745ACTN    H4 7448   3.446   7.484   4.676
  745ACTN    H5 7449   3.317   7.374   4.712
  745ACTN    H6 7450   3.484   7.314   4.711
  746ACTN    C1 7451   4.923   4.813   7.728
  746ACTN    O1 7452   5.024   4.964   7.571
  746ACTN    C2 7453   5.028   4.912   7.684
  746ACTN    C3 7454   5.157   4.918   7.752
  746ACTN    H1 7455   4.859   4.854   7.805
  746ACTN    H2 7456   4.973   4.725   7.766
  746ACTN    H3 7457   4.859   4.786   7.643
  746ACTN    H4 7458   5.151   5.001   7.822
  746ACTN    H5 7459   5.239   4.946   7.684
  746ACTN    H6 7460   5.184   4.827   7.804
  747ACTN    C1 7461   3.602   1.980   2.664
  747ACTN    O1 7462   3.364   1.951   2.654
  747ACTN    C2 7463   3.464   1.980   2.722
  747ACTN    C3 7464   3.435   2.055   2.845
  747ACTN    H1 7465   3.663   1.899   2.704
  747ACTN    H2 7466   3.649   2.075   2.687
  747ACTN    H3 7467   3.597   1.966   2.555
  747ACTN    H4 7468   3.437   1.982   2.926
  747ACTN    H5 7469   3.333   2.095   2.846
  747ACTN    H6 7470   3.505   2.135   2.865
  748ACTN    C1 7471   5.050   3.786   3.970
  748ACTN    O1 7472   4.904   3.973   3.935
  748ACTN    C2 7473   4.974   3.884   3.885
  748ACTN    C3 7474   4.945   3.853   3.744
  748ACTN    H1 7475   5.157   3.802   3.965
  748ACTN    H2 7476   5.027   3.686   3.935
  748ACTN    H3 7477   5.020   3.797   4.075
  748ACTN    H4 7478   5.021   3.906   3.686
  748ACTN    H5 7479   4.850   3.896   3.711
  748ACTN    H6 7480   4.947   3.748   3.721
  749ACTN    C1 7481   6.780   5.245   6.673
  749ACTN    O1 7482   6.729   5.478   6.687
  749ACTN    C2 7483   6.764   5.382   6.616
  749ACTN    C3 7484   6.745   5.402   6.472
  749ACTN    H1 7485   6.885   5.214   6.675
  749ACTN    H2 7486   6.724   5.175   6.611
  749ACTN    H3 7487   6.743   5.242   6.776
  749ACTN    H4 7488   6.843   5.429   6.432
  749ACTN    H5 7489   6.681   5.487   6.449
  749ACTN    H6 7490   6.708   5.314   6.420
  750ACTN    C1 7491   0.973   1.763   6.718
  750ACTN    O1 7492   0.992   1.531   6.660
  750ACTN    C2 7493   1.010   1.620   6.745
  750ACTN    C3 7494   1.027   1.572   6.882
  750ACTN    H1 7495   1.061   1.826   6.708
  750ACTN    H2 7496   0.912   1.798   6.800
  750ACTN    H3 7497   0.917   1.770   6.624
  750ACTN    H4 7498   1.134   1.572   6.901
  750ACTN    H5 7499   0.998   1.467   6.894
  750ACTN    H6 7500   0.976   1.632   6.956
  751ACTN    C1 7501   1.730   0.901   6.885
  751ACTN    O1 7502   1.630   1.110   6.823
  751ACTN    C2 7503   1.625   0.986   6.819
  751ACTN    C3 7504   1.493   0.929   6.788
  751ACTN    H1 7505   1.792   0.849   6.812
  751ACTN    H2 7506   1.681   0.828   6.948
  751ACTN    H3 7507   1.797   0.964   6.945
  751ACTN    H4 7508   1.496   0.903   6.682
  751ACTN    H5 7509   1.413   1.003   6.795
  751ACTN    H6 7510   1.467   0.842   6.846
  752ACTN    C1 7511   3.480   1.163   4.034
  752ACTN    O1 7512   3.404   1.377   4.110
  752ACTN    C2 7513   3.393   1.285   4.027
  752ACTN    C3 7514   3.266   1.282   3.953
  752ACTN    H1 7515   3.551   1.159   3.951
  752ACTN    H2 7516   3.416   1.075   4.030
  752ACTN    H3 7517   3.538   1.163   4.127
  752ACTN    H4 7518   3.287   1.327   3.856
  752ACTN    H5 7519   3.190   1.346   3.998
  752ACTN    H6 7520   3.226   1.183   3.939
  753ACTN    C1 7521   4.012   0.173   3.319
  753ACTN    O1 7522   4.239   0.185   3.242
  753ACTN    C2 7523   4.119   0.166   3.214
  753ACTN    C3 7524   4.085   0.179   3.072
  753ACTN    H1 7525   3.969   0.075   3.340
  753ACTN    H2 7526   3.933   0.239   3.283
  753ACTN    H3 7527   4.054   0.211   3.413
  753ACTN    H4 7528   4.081   0.078   3.032
  753ACTN    H5 7529   4.164   0.228   3.014
  753ACTN    H6 7530   3.991   0.229   3.053
  754ACTN    C1 7531   6.830   3.553   0.086
  754ACTN    O1 7532   6.773   3.516   0.316
  754ACTN    C2 7533   6.755   3.485   0.197
  754ACTN    C3 7534   6.692   3.355   0.175
  754ACTN    H1 7535   6.765   3.617   0.026
  754ACTN    H2 7536   6.874   3.477   0.023
  754ACTN    H3 7537   6.909   3.617   0.128
  754ACTN    H4 7538   6.587   3.374   0.156
  754ACTN    H5 7539   6.692   3.293   0.265
  754ACTN    H6 7540   6.734   3.299   0.093
  755ACTN    C1 7541   2.824   7.215   3.331
  755ACTN    O1 7542   2.648   7.290   3.476
  755ACTN    C2 7543   2.766   7.253   3.464
  755ACTN    C3 7544   2.854   7.290   3.576
  755ACTN    H1 7545   2.845   7.108   3.324
  755ACTN    H2 7546   2.917   7.270   3.317
  755ACTN    H3 7547   2.753   7.240   3.251
  755ACTN    H4 7548   2.863   7.201   3.638
  755ACTN    H5 7549   2.809   7.365   3.641
  755ACTN    H6 7550   2.952   7.323   3.545
  756ACTN    C1 7551   1.444   6.455   0.776
  756ACTN    O1 7552   1.206   6.440   0.748
  756ACTN    C2 7553   1.317   6.458   0.696
  756ACTN    C3 7554   1.321   6.439   0.550
  756ACTN    H1 7555   1.490   6.553   0.784
  756ACTN    H2 7556   1.514   6.387   0.727
  756ACTN    H3 7557   1.423   6.419   0.878
  756ACTN    H4 7558   1.316   6.539   0.507
  756ACTN    H5 7559   1.232   6.389   0.512
  756ACTN    H6 7560   1.409   6.388   0.514
  757ACTN    C1 7561   1.708   3.213   6.053
  757ACTN    O1 7562   1.775   3.441   6.023
  757ACTN    C2 7563   1.787   3.323   5.988
  757ACTN    C3 7564   1.846   3.303   5.855
  757ACTN    H1 7565   1.771   3.147   6.113
  757ACTN    H2 7566   1.659   3.155   5.975
  757ACTN    H3 7567   1.632   3.256   6.120
  757ACTN    H4 7568   1.950   3.278   5.872
  757ACTN    H5 7569   1.849   3.395   5.797
  757ACTN    H6 7570   1.799   3.225   5.797
  758ACTN    C1 7571   3.121   2.618   1.150
  758ACTN    O1 7572   3.283   2.534   0.994
  758ACTN    C2 7573   3.166   2.530   1.037
  758ACTN    C3 7574   3.069   2.469   0.946
  758ACTN    H1 7575   3.101   2.561   1.240
  758ACTN    H2 7576   3.030   2.668   1.119
  758ACTN    H3 7577   3.198   2.692   1.174
  758ACTN    H4 7578   3.055   2.367   0.981
  758ACTN    H5 7579   3.108   2.458   0.844
  758ACTN    H6 7580   2.974   2.520   0.942
  759ACTN    C1 7581   2.258   1.477   6.701
  759ACTN    O1 7582   2.325   1.693   6.780
  759ACTN    C2 7583   2.355   1.574   6.763
  759ACTN    C3 7584   2.498   1.544   6.767
  759ACTN    H1 7585   2.221   1.404   6.772
  759ACTN    H2 7586   2.309   1.425   6.620
  759ACTN    H3 7587   2.171   1.531   6.661
  759ACTN    H4 7588   2.518   1.505   6.866
  759ACTN    H5 7589   2.560   1.634   6.760
  759ACTN    H6 7590   2.530   1.472   6.693
  760ACTN    C1 7591   7.620   3.448   7.084
  760ACTN    O1 7592   7.606   3.220   7.157
  760ACTN    C2 7593   7.608   3.340   7.188
  760ACTN    C3 7594   7.556   3.371   7.322
  760ACTN    H1 7595   7.716   3.499   7.088
  760ACTN    H2 7596   7.541   3.521   7.101
  760ACTN    H3 7597   7.610   3.405   6.984
  760ACTN    H4 7598   7.643   3.383   7.386
  760ACTN    H5 7599   7.501   3.287   7.365
  760ACTN    H6 7600   7.496   3.460   7.326
  761ACTN    C1 7601   7.174   6.861   5.831
  761ACTN    O1 7602   7.231   6.668   5.700
  761ACTN    C2 7603   7.153   6.763   5.719
  761ACTN    C3 7604   7.069   6.799   5.604
  761ACTN    H1 7605   7.097   6.851   5.908
  761ACTN    H2 7606   7.170   6.961   5.790
  761ACTN    H3 7607   7.271   6.844   5.878
  761ACTN    H4 7608   6.972   6.753   5.622
  761ACTN    H5 7609   7.104   6.753   5.511
  761ACTN    H6 7610   7.058   6.905   5.589
  762ACTN    C1 7611   6.139   7.735   1.139
  762ACTN    O1 7612   5.914   7.766   1.059
  762ACTN    C2 7613   5.992   7.704   1.134
  762ACTN    C3 7614   5.927   7.632   1.244
  762ACTN    H1 7615   6.199   7.655   1.096
  762ACTN    H2 7616   6.167   7.748   1.243
  762ACTN    H3 7617   6.160   7.826   1.082
  762ACTN    H4 7618   5.920   7.528   1.212
  762ACTN    H5 7619   5.823   7.663   1.259
  762ACTN    H6 7620   5.980   7.638   1.338
  763ACTN    C1 7621   5.511   6.478   1.337
  763ACTN    O1 7622   5.581   6.413   1.557
  763ACTN    C2 7623   5.491   6.414   1.471
  763ACTN    C3 7624   5.386   6.314   1.491
  763ACTN    H1 7625   5.451   6.569   1.327
  763ACTN    H2 7626   5.483   6.407   1.260
  763ACTN    H3 7627   5.616   6.507   1.325
  763ACTN    H4 7628   5.302   6.366   1.537
  763ACTN    H5 7629   5.413   6.237   1.564
  763ACTN    H6 7630   5.353   6.266   1.400
  764ACTN    C1 7631   6.977   4.338   6.759
  764ACTN    O1 7632   7.122   4.413   6.584
  764ACTN    C2 7633   7.109   4.350   6.690
  764ACTN    C3 7634   7.216   4.253   6.719
  764ACTN    H1 7635   6.975   4.394   6.853
  764ACTN    H2 7636   6.957   4.234   6.780
  764ACTN    H3 7637   6.897   4.379   6.695
  764ACTN    H4 7638   7.283   4.302   6.790
  764ACTN    H5 7639   7.280   4.234   6.632
  764ACTN    H6 7640   7.182   4.160   6.760
  765ACTN    C1 7641   5.384   4.263   5.380
  765ACTN    O1 7642   5.317   4.489   5.334
  765ACTN    C2 7643   5.312   4.391   5.411
  765ACTN    C3 7644   5.272   4.422   5.549
  765ACTN    H1 7645   5.315   4.182   5.357
  765ACTN    H2 7646   5.444   4.235   5.466
  765ACTN    H3 7647   5.449   4.277   5.293
  765ACTN    H4 7648   5.166   4.396   5.556
  765ACTN    H5 7649   5.275   4.529   5.570
  765ACTN    H6 7650   5.328   4.369   5.624
  766ACTN    C1 7651   7.819   6.509   3.330
  766ACTN    O1 7652   7.681   6.337   3.236
  766ACTN    C2 7653   7.715   6.456   3.235
  766ACTN    C3 7654   7.683   6.530   3.112
  766ACTN    H1 7655   7.776   6.576   3.405
  766ACTN    H2 7656   7.893   6.563   3.273
  766ACTN    H3 7657   7.866   6.426   3.384
  766ACTN    H4 7658   7.592   6.586   3.134
  766ACTN    H5 7659   7.655   6.463   3.030
  766ACTN    H6 7660   7.760   6.597   3.079
  767ACTN    C1 7661   7.638   1.228   3.421
  767ACTN    O1 7662   7.530   1.403   3.297
  767ACTN    C2 7663   7.525   1.322   3.392
  767ACTN    C3 7664   7.425   1.353   3.495
  767ACTN    H1 7665   7.612   1.124   3.399
  767ACTN    H2 7666   7.664   1.236   3.526
  767ACTN    H3 7667   7.725   1.253   3.359
  767ACTN    H4 7668   7.339   1.290   3.475
  767ACTN    H5 7669   7.387   1.455   3.487
  767ACTN    H6 7670   7.460   1.336   3.596
  768ACTN    C1 7671   5.224   3.902   2.328
  768ACTN    O1 7672   5.065   3.827   2.164
  768ACTN    C2 7673   5.176   3.877   2.187
  768ACTN    C3 7674   5.273   3.868   2.077
  768ACTN    H1 7675   5.229   4.009   2.350
  768ACTN    H2 7676   5.322   3.858   2.339
  768ACTN    H3 7677   5.154   3.858   2.399
  768ACTN    H4 7678   5.272   3.965   2.028
  768ACTN    H5 7679   5.241   3.797   1.999
  768ACTN    H6 7680   5.373   3.843   2.108
  769ACTN    C1 7681   4.482   1.365   0.051
  769ACTN    O1 7682   4.602   1.408   0.254
  769ACTN    C2 7683   4.498   1.366   0.200
  769ACTN    C3 7684   4.415   1.280   0.285
  769ACTN    H1 7685   4.407   1.437   0.017
  769ACTN    H2 7686   4.450   1.265   0.021
  769ACTN    H3 7687   4.576   1.390   0.002
  769ACTN    H4 7688   4.334   1.344   0.322
  769ACTN    H5 7689   4.467   1.246   0.374
  769ACTN    H6 7690   4.373   1.195   0.234
  770ACTN    C1 7691   6.147   4.043   7.011
  770ACTN    O1 7692   6.288   4.158   6.854
  770ACTN    C2 7693   6.194   4.079   6.873
  770ACTN    C3 7694   6.107   4.057   6.757
  770ACTN    H1 7695   6.172   3.940   7.037
  770ACTN    H2 7696   6.040   4.057   7.016
  770ACTN    H3 7697   6.196   4.108   7.085
  770ACTN    H4 7698   6.139   3.964   6.712
  770ACTN    H5 7699   6.121   4.132   6.679
  770ACTN    H6 7700   6.001   4.052   6.781
  771ACTN    C1 7701   5.484   1.576   2.787
  771ACTN    O1 7702   5.485   1.547   2.549
  771ACTN    C2 7703   5.446   1.613   2.646
  771ACTN    C3 7704   5.400   1.749   2.615
  771ACTN    H1 7705   5.399   1.539   2.844
  771ACTN    H2 7706   5.524   1.665   2.836
  771ACTN    H3 7707   5.560   1.497   2.786
  771ACTN    H4 7708   5.291   1.744   2.612
  771ACTN    H5 7709   5.429   1.781   2.514
  771ACTN    H6 7710   5.430   1.824   2.686
  772ACTN    C1 7711   3.932   2.053   1.397
  772ACTN    O1 7712   4.162   1.986   1.379
  772ACTN    C2 7713   4.052   2.001   1.323
  772ACTN    C3 7714   4.057   2.007   1.176
  772ACTN    H1 7715   3.856   1.976   1.411
  772ACTN    H2 7716   3.890   2.135   1.340
  772ACTN    H3 7717   3.962   2.088   1.496
  772ACTN    H4 7718   4.029   1.908   1.141
  772ACTN    H5 7719   4.159   2.022   1.139
  772ACTN    H6 7720   3.992   2.081   1.133
  773ACTN    C1 7721   6.282   1.114   7.183
  773ACTN    O1 7722   6.340   0.972   7.367
  773ACTN    C2 7723   6.336   0.988   7.244
  773ACTN    C3 7724   6.425   0.900   7.167
  773ACTN    H1 7725   6.188   1.098   7.131
  773ACTN    H2 7726   6.356   1.152   7.112
  773ACTN    H3 7727   6.264   1.189   7.261
  773ACTN    H4 7728   6.362   0.820   7.128
  773ACTN    H5 7729   6.499   0.850   7.229
  773ACTN    H6 7730   6.475   0.949   7.085
  774ACTN    C1 7731   6.944   7.008   6.948
  774ACTN    O1 7732   7.067   7.143   6.793
  774ACTN    C2 7733   7.068   7.050   6.876
  774ACTN    C3 7734   7.184   6.960   6.867
  774ACTN    H1 7735   6.947   7.033   7.054
  774ACTN    H2 7736   6.934   6.900   6.938
  774ACTN    H3 7737   6.856   7.058   6.905
  774ACTN    H4 7738   7.253   6.992   6.945
  774ACTN    H5 7739   7.239   6.973   6.774
  774ACTN    H6 7740   7.160   6.856   6.880
  775ACTN    C1 7741   6.266   2.178   2.481
  775ACTN    O1 7742   6.401   2.010   2.587
  775ACTN    C2 7743   6.372   2.131   2.577
  775ACTN    C3 7744   6.412   2.214   2.691
  775ACTN    H1 7745   6.309   2.236   2.399
  775ACTN    H2 7746   6.196   2.241   2.536
  775ACTN    H3 7747   6.214   2.093   2.438
  775ACTN    H4 7748   6.504   2.264   2.661
  775ACTN    H5 7749   6.440   2.155   2.779
  775ACTN    H6 7750   6.338   2.287   2.720
  776ACTN    C1 7751   5.268   4.755   4.730
  776ACTN    O1 7752   5.192   4.859   4.933
  776ACTN    C2 7753   5.208   4.867   4.810
  776ACTN    C3 7754   5.127   4.970   4.744
  776ACTN    H1 7755   5.367   4.780   4.693
  776ACTN    H2 7756   5.202   4.733   4.647
  776ACTN    H3 7757   5.279   4.666   4.793
  776ACTN    H4 7758   5.193   5.056   4.729
  776ACTN    H5 7759   5.047   5.009   4.808
  776ACTN    H6 7760   5.085   4.940   4.649
  777ACTN    C1 7761   6.863   0.620   3.500
  777ACTN    O1 7762   6.701   0.541   3.659
  777ACTN    C2 7763   6.818   0.535   3.616
  777ACTN    C3 7764   6.915   0.478   3.709
  777ACTN    H1 7765   6.883   0.559   3.411
  777ACTN    H2 7766   6.954   0.671   3.529
  777ACTN    H3 7767   6.786   0.692   3.474
  777ACTN    H4 7768   6.930   0.375   3.678
  777ACTN    H5 7769   6.877   0.471   3.811
  777ACTN    H6 7770   7.011   0.529   3.710
  778ACTN    C1 7771   3.451   4.029   4.820
  778ACTN    O1 7772   3.603   3.920   4.669
  778ACTN    C2 7773   3.582   4.015   4.746
  778ACTN    C3 7774   3.701   4.085   4.793
  778ACTN    H1 7775   3.392   4.113   4.783
  778ACTN    H2 7776   3.473   4.043   4.925
  778ACTN    H3 7777   3.391   3.938   4.806
  778ACTN    H4 7778   3.710   4.175   4.732
  778ACTN    H5 7779   3.793   4.029   4.774
  778ACTN    H6 7780   3.698   4.112   4.898
  779ACTN    C1 7781   2.201   4.902   3.338
  779ACTN    O1 7782   2.357   4.722   3.368
  779ACTN    C2 7783   2.312   4.830   3.410
  779ACTN    C3 7784   2.341   4.860   3.550
  779ACTN    H1 7785   2.236   4.994   3.291
  779ACTN    H2 7786   2.124   4.926   3.410
  779ACTN    H3 7787   2.160   4.838   3.259
  779ACTN    H4 7788   2.426   4.929   3.550
  779ACTN    H5 7789   2.377   4.773   3.605
  779ACTN    H6 7790   2.259   4.905   3.604
  780ACTN    C1 7791   5.561   5.788   0.201
  780ACTN    O1 7792   5.784   5.702   0.224
  780ACTN    C2 7793   5.682   5.746   0.280
  780ACTN    C3 7794   5.670   5.715   0.423
  780ACTN    H1 7795   5.546   5.896   0.203
  780ACTN    H2 7796   5.474   5.740   0.243
  780ACTN    H3 7797   5.573   5.759   0.096
  780ACTN    H4 7798   5.703   5.805   0.476
  780ACTN    H5 7799   5.740   5.637   0.454
  780ACTN    H6 7800   5.570   5.689   0.454
  781ACTN    C1 7801   5.089   6.562   7.733
  781ACTN    O1 7802   4.855   6.509   7.736
  781ACTN    C2 7803   4.952   6.553   7.672
  781ACTN    C3 7804   4.936   6.552   7.526
  781ACTN    H1 7805   5.120   6.665   7.749
  781ACTN    H2 7806   5.160   6.514   7.666
  781ACTN    H3 7807   5.090   6.511   7.831
  781ACTN    H4 7808   4.909   6.654   7.499
  781ACTN    H5 7809   4.851   6.492   7.494
  781ACTN    H6 7810   5.024   6.522   7.472
  782ACTN    C1 7811   6.981   5.648   7.265
  782ACTN    O1 7812   7.042   5.444   7.376
  782ACTN    C2 7813   6.996   5.559   7.385
  782ACTN    C3 7814   6.919   5.585   7.507
  782ACTN    H1 7815   7.051   5.731   7.268
  782ACTN    H2 7816   6.880   5.686   7.264
  782ACTN    H3 7817   7.001   5.591   7.174
  782ACTN    H4 7818   6.986   5.638   7.575
  782ACTN    H5 7819   6.892   5.493   7.561
  782ACTN    H6 7820   6.830   5.644   7.491
  783ACTN    C1 7821   3.030   4.378   2.403
  783ACTN    O1 7822   3.221   4.484   2.303
  783ACTN    C2 7823   3.168   4.379   2.342
  783ACTN    C3 7824   3.226   4.255   2.289
  783ACTN    H1 7825   3.032   4.357   2.509
  783ACTN    H2 7826   2.971   4.303   2.352
  783ACTN    H3 7827   2.983   4.477   2.390
  783ACTN    H4 7828   3.292   4.217   2.366
  783ACTN    H5 7829   3.291   4.274   2.203
  783ACTN    H6 7830   3.153   4.180   2.262
  784ACTN    C1 7831   2.659   6.280   4.629
  784ACTN    O1 7832   2.633   6.073   4.512
  784ACTN    C2 7833   2.711   6.157   4.560
  784ACTN    C3 7834   2.847   6.109   4.585
  784ACTN    H1 7835   2.680   6.371   4.571
  784ACTN    H2 7836   2.707   6.288   4.726
  784ACTN    H3 7837   2.550   6.274   4.642
  784ACTN    H4 7838   2.907   6.145   4.501
  784ACTN    H5 7839   2.855   6.000   4.580
  784ACTN    H6 7840   2.890   6.144   4.678
  785ACTN    C1 7841   2.000   4.267   2.596
  785ACTN    O1 7842   2.200   4.370   2.511
  785ACTN    C2 7843   2.103   4.295   2.490
  785ACTN    C3 7844   2.072   4.272   2.348
  785ACTN    H1 7845   2.005   4.165   2.632
  785ACTN    H2 7846   1.902   4.286   2.553
  785ACTN    H3 7847   2.017   4.333   2.682
  785ACTN    H4 7848   2.115   4.175   2.323
  785ACTN    H5 7849   2.123   4.342   2.282
  785ACTN    H6 7850   1.967   4.272   2.326
  786ACTN    C1 7851   6.010   3.424   3.714
  786ACTN    O1 7852   6.014   3.523   3.933
  786ACTN    C2 7853   6.009   3.420   3.864
  786ACTN    C3 7854   6.044   3.297   3.936
  786ACTN    H1 7855   5.914   3.395   3.672
  786ACTN    H2 7856   6.087   3.356   3.679
  786ACTN    H3 7857   6.032   3.526   3.680
  786ACTN    H4 7858   5.950   3.249   3.963
  786ACTN    H5 7859   6.093   3.316   4.031
  786ACTN    H6 7860   6.105   3.228   3.878
  787ACTN    C1 7861   7.506   2.471   6.140
  787ACTN    O1 7862   7.576   2.242   6.150
  787ACTN    C2 7863   7.543   2.339   6.079
  787ACTN    C3 7864   7.584   2.330   5.939
  787ACTN    H1 7865   7.400   2.493   6.129
  787ACTN    H2 7866   7.564   2.549   6.091
  787ACTN    H3 7867   7.527   2.470   6.248
  787ACTN    H4 7868   7.496   2.298   5.884
  787ACTN    H5 7869   7.658   2.252   5.921
  787ACTN    H6 7870   7.620   2.424   5.898
  788ACTN    C1 7871   1.359   2.039   5.202
  788ACTN    O1 7872   1.227   2.235   5.156
  788ACTN    C2 7873   1.291   2.168   5.240
  788ACTN    C3 7874   1.330   2.241   5.361
  788ACTN    H1 7875   1.310   1.953   5.247
  788ACTN    H2 7876   1.461   2.044   5.237
  788ACTN    H3 7877   1.356   2.026   5.094
  788ACTN    H4 7878   1.258   2.214   5.438
  788ACTN    H5 7879   1.320   2.349   5.350
  788ACTN    H6 7880   1.430   2.218   5.395
  789ACTN    C1 7881   6.217   4.811   1.268
  789ACTN    O1 7882   5.992   4.793   1.187
  789ACTN    C2 7883   6.111   4.816   1.162
  789ACTN    C3 7884   6.148   4.804   1.020
  789ACTN    H1 7885   6.256   4.909   1.291
  789ACTN    H2 7886   6.297   4.747   1.234
  789ACTN    H3 7887   6.174   4.770   1.361
  789ACTN    H4 7888   6.150   4.906   0.981
  789ACTN    H5 7889   6.071   4.754   0.961
  789ACTN    H6 7890   6.243   4.756   1.003
  790ACTN    C1 7891   0.705   7.898   4.001
  790ACTN    O1 7892   0.907   7.794   4.078
  790ACTN    C2 7893   0.812   7.870   4.103
  790ACTN    C3 7894   0.787   7.894   4.245
  790ACTN    H1 7895   0.709   8.000   3.964
  790ACTN    H2 7896   0.608   7.881   4.047
  790ACTN    H3 7897   0.717   7.831   3.915
  790ACTN    H4 7898   0.832   7.991   4.267
  790ACTN    H5 7899   0.840   7.824   4.310
  790ACTN    H6 7900   0.683   7.896   4.272
  791ACTN    C1 7901   1.505   1.132   7.223
  791ACTN    O1 7902   1.307   1.053   7.333
  791ACTN    C2 7903   1.432   1.057   7.331
  791ACTN    C3 7904   1.497   1.023   7.457
  791ACTN    H1 7905   1.558   1.065   7.156
  791ACTN    H2 7906   1.577   1.198   7.271
  791ACTN    H3 7907   1.435   1.191   7.163
  791ACTN    H4 7908   1.530   0.920   7.448
  791ACTN    H5 7909   1.428   1.023   7.542
  791ACTN    H6 7910   1.582   1.086   7.481
  792ACTN    C1 7911   3.683   6.205   5.117
  792ACTN    O1 7912   3.656   6.020   5.268
  792ACTN    C2 7913   3.685   6.140   5.253
  792ACTN    C3 7914   3.679   6.221   5.375
  792ACTN    H1 7915   3.783   6.229   5.082
  792ACTN    H2 7916   3.624   6.295   5.124
  792ACTN    H3 7917   3.638   6.136   5.044
  792ACTN    H4 7918   3.782   6.231   5.410
  792ACTN    H5 7919   3.627   6.171   5.456
  792ACTN    H6 7920   3.636   6.319   5.360
  793ACTN    C1 7921   6.658   2.028   1.829
  793ACTN    O1 7922   6.584   2.256   1.822
  793ACTN    C2 7923   6.613   2.157   1.891
  793ACTN    C3 7924   6.642   2.186   2.032
  793ACTN    H1 7925   6.583   1.949   1.840
  793ACTN    H2 7926   6.750   1.997   1.877
  793ACTN    H3 7927   6.675   2.043   1.721
  793ACTN    H4 7928   6.551   2.161   2.087
  793ACTN    H5 7929   6.658   2.293   2.050
  793ACTN    H6 7930   6.725   2.130   2.072
  794ACTN    C1 7931   3.520   5.277   6.151
  794ACTN    O1 7932   3.487   5.512   6.113
  794ACTN    C2 7933   3.474   5.415   6.190
  794ACTN    C3 7934   3.452   5.449   6.330
  794ACTN    H1 7935   3.436   5.210   6.134
  794ACTN    H2 7936   3.582   5.238   6.231
  794ACTN    H3 7937   3.577   5.282   6.057
  794ACTN    H4 7938   3.345   5.440   6.348
  794ACTN    H5 7939   3.475   5.554   6.352
  794ACTN    H6 7940   3.505   5.386   6.400
  795ACTN    C1 7941   2.320   6.612   5.302
  795ACTN    O1 7942   2.524   6.649   5.422
  795ACTN    C2 7943   2.467   6.639   5.312
  795ACTN    C3 7944   2.540   6.696   5.199
  795ACTN    H1 7945   2.299   6.512   5.264
  795ACTN    H2 7946   2.276   6.685   5.235
  795ACTN    H3 7947   2.273   6.619   5.401
  795ACTN    H4 7948   2.589   6.612   5.149
  795ACTN    H5 7949   2.623   6.761   5.230
  795ACTN    H6 7950   2.478   6.749   5.128
  796ACTN    C1 7951   1.138   4.576   5.901
  796ACTN    O1 7952   1.212   4.595   6.128
  796ACTN    C2 7953   1.130   4.547   6.048
  796ACTN    C3 7954   1.055   4.431   6.097
  796ACTN    H1 7955   1.056   4.640   5.867
  796ACTN    H2 7956   1.135   4.482   5.847
  796ACTN    H3 7957   1.232   4.628   5.878
  796ACTN    H4 7958   0.958   4.469   6.129
  796ACTN    H5 7959   1.099   4.388   6.188
  796ACTN    H6 7960   1.041   4.353   6.023
  797ACTN    C1 7961   6.141   5.625   2.956
  797ACTN    O1 7962   6.058   5.562   3.173
  797ACTN    C2 7963   6.155   5.596   3.103
  797ACTN    C3 7964   6.271   5.647   3.178
  797ACTN    H1 7965   6.189   5.549   2.895
  797ACTN    H2 7966   6.186   5.722   2.936
  797ACTN    H3 7967   6.035   5.627   2.929
  797ACTN    H4 7968   6.341   5.564   3.184
  797ACTN    H5 7969   6.247   5.670   3.282
  797ACTN    H6 7970   6.319   5.732   3.132
  798ACTN    C1 7971   4.019   6.740   5.379
  798ACTN    O1 7972   4.162   6.751   5.572
  798ACTN    C2 7973   4.092   6.681   5.497
  798ACTN    C3 7974   4.119   6.537   5.502
  798ACTN    H1 7975   3.911   6.741   5.395
  798ACTN    H2 7976   4.042   6.682   5.291
  798ACTN    H3 7977   4.050   6.845   5.365
  798ACTN    H4 7978   4.042   6.494   5.566
  798ACTN    H5 7979   4.214   6.514   5.553
  798ACTN    H6 7980   4.118   6.488   5.406
  799ACTN    C1 7981   5.702   3.294   7.910
  799ACTN    O1 7982   5.835   3.380   7.730
  799ACTN    C2 7983   5.825   3.358   7.852
  799ACTN    C3 7984   5.952   3.356   7.926
  799ACTN    H1 7985   5.645   3.363   7.971
  799ACTN    H2 7986   5.734   3.210   7.972
  799ACTN    H3 7987   5.637   3.258   7.830
  799ACTN    H4 7988   5.960   3.454   7.974
  799ACTN    H5 7989   6.039   3.351   7.860
  799ACTN    H6 7990   5.959   3.278   8.000
  800ACTN    C1 7991   1.110   5.045   1.144
  800ACTN    O1 7992   1.345   5.005   1.169
  800ACTN    C2 7993   1.238   5.041   1.222
  800ACTN    C3 7994   1.237   5.036   1.368
  800ACTN    H1 7995   1.076   5.148   1.127
  800ACTN    H2 7996   1.034   4.992   1.200
  800ACTN    H3 7997   1.123   4.999   1.046
  800ACTN    H4 7998   1.254   5.138   1.402
  800ACTN    H5 7999   1.320   4.979   1.409
  800ACTN    H6 8000   1.144   4.999   1.410
  801ACTN    C1 8001   5.701   3.624   5.136
  801ACTN    O1 8002   5.811   3.837   5.125
  801ACTN    C2 8003   5.810   3.718   5.091
  801ACTN    C3 8004   5.892   3.686   4.974
  801ACTN    H1 8005   5.738   3.550   5.206
  801ACTN    H2 8006   5.662   3.573   5.048
  801ACTN    H3 8007   5.621   3.680   5.186
  801ACTN    H4 8008   5.985   3.644   5.013
  801ACTN    H5 8009   5.923   3.776   4.919
  801ACTN    H6 8010   5.846   3.616   4.905
  802ACTN    C1 8011   4.231   4.549   7.355
  802ACTN    O1 8012   4.366   4.386   7.468
  802ACTN    C2 8013   4.275   4.409   7.387
  802ACTN    C3 8014   4.245   4.299   7.295
  802ACTN    H1 8015   4.131   4.570   7.393
  802ACTN    H2 8016   4.230   4.561   7.247
  802ACTN    H3 8017   4.299   4.621   7.400
  802ACTN    H4 8018   4.157   4.249   7.335
  802ACTN    H5 8019   4.323   4.222   7.295
  802ACTN    H6 8020   4.226   4.330   7.193
  803ACTN    C1 8021   7.540   6.224   4.413
  803ACTN    O1 8022   7.714   6.309   4.271
  803ACTN    C2 8023   7.598   6.322   4.315
  803ACTN    C3 8024   7.542   6.456   4.302
  803ACTN    H1 8025   7.461   6.164   4.369
  803ACTN    H2 8026   7.500   6.279   4.497
  803ACTN    H3 8027   7.618   6.155   4.448
  803ACTN    H4 8028   7.477   6.453   4.215
  803ACTN    H5 8029   7.617   6.532   4.277
  803ACTN    H6 8030   7.485   6.489   4.388
  804ACTN    C1 8031   6.780   0.883   5.462
  804ACTN    O1 8032   6.839   1.003   5.263
  804ACTN    C2 8033   6.792   1.007   5.378
  804ACTN    C3 8034   6.791   1.140   5.441
  804ACTN    H1 8035   6.676   0.854   5.477
  804ACTN    H2 8036   6.825   0.903   5.559
  804ACTN    H3 8037   6.831   0.799   5.413
  804ACTN    H4 8038   6.689   1.177   5.430
  804ACTN    H5 8039   6.853   1.212   5.387
  804ACTN    H6 8040   6.819   1.139   5.545
  805ACTN    C1 8041   0.887   4.498   4.110
  805ACTN    O1 8042   0.676   4.539   4.218
  805ACTN    C2 8043   0.747   4.553   4.117
  805ACTN    C3 8044   0.674   4.587   3.994
  805ACTN    H1 8045   0.962   4.577   4.111
  805ACTN    H2 8046   0.896   4.440   4.018
  805ACTN    H3 8047   0.906   4.433   4.197
  805ACTN    H4 8048   0.685   4.695   3.982
  805ACTN    H5 8049   0.567   4.571   4.004
  805ACTN    H6 8050   0.710   4.536   3.906
  806ACTN    C1 8051   0.996   1.540   0.266
  806ACTN    O1 8052   1.213   1.639   0.239
  806ACTN    C2 8053   1.116   1.581   0.186
  806ACTN    C3 8054   1.109   1.594   0.041
  806ACTN    H1 8055   0.988   1.432   0.277
  806ACTN    H2 8056   0.907   1.577   0.215
  806ACTN    H3 8057   1.001   1.583   0.367
  806ACTN    H4 8058   1.149   1.501  -0.000
  806ACTN    H5 8059   1.174   1.672   0.002
  806ACTN    H6 8060   1.008   1.609   0.003
  807ACTN    C1 8061   5.318   3.046   6.840
  807ACTN    O1 8062   5.157   3.222   6.868
  807ACTN    C2 8063   5.227   3.134   6.921
  807ACTN    C3 8064   5.247   3.149   7.065
  807ACTN    H1 8065   5.283   2.944   6.835
  807ACTN    H2 8066   5.417   3.049   6.885
  807ACTN    H3 8067   5.323   3.084   6.737
  807ACTN    H4 8068   5.177   3.081   7.113
  807ACTN    H5 8069   5.219   3.248   7.102
  807ACTN    H6 8070   5.348   3.126   7.098
  808ACTN    C1 8071   4.314   4.368   3.516
  808ACTN    O1 8072   4.248   4.137   3.531
  808ACTN    C2 8073   4.340   4.220   3.527
  808ACTN    C3 8074   4.470   4.171   3.576
  808ACTN    H1 8075   4.343   4.407   3.419
  808ACTN    H2 8076   4.370   4.418   3.594
  808ACTN    H3 8077   4.207   4.387   3.528
  808ACTN    H4 8078   4.528   4.145   3.487
  808ACTN    H5 8079   4.461   4.077   3.631
  808ACTN    H6 8080   4.524   4.243   3.635
  809ACTN    C1 8081   4.247   5.343   7.845
  809ACTN    O1 8082   4.083   5.329   7.670
  809ACTN    C2 8083   4.198   5.364   7.705
  809ACTN    C3 8084   4.293   5.383   7.595
  809ACTN    H1 8085   4.259   5.438   7.898
  809ACTN    H2 8086   4.343   5.293   7.841
  809ACTN    H3 8087   4.175   5.282   7.902
  809ACTN    H4 8088   4.297   5.491   7.577
  809ACTN    H5 8089   4.257   5.342   7.500
  809ACTN    H6 8090   4.392   5.346   7.615
  810ACTN    C1 8091   5.345   0.640   0.676
  810ACTN    O1 8092   5.160   0.679   0.528
  810ACTN    C2 8093   5.283   0.683   0.546
  810ACTN    C3 8094   5.363   0.690   0.424
  810ACTN    H1 8095   5.386   0.725   0.731
  810ACTN    H2 8096   5.424   0.570   0.654
  810ACTN    H3 8097   5.269   0.593   0.740
  810ACTN    H4 8098   5.390   0.795   0.412
  810ACTN    H5 8099   5.305   0.666   0.334
  810ACTN    H6 8100   5.452   0.629   0.426
  811ACTN    C1 8101   1.568   2.494   1.946
  811ACTN    O1 8102   1.679   2.706   1.963
  811ACTN    C2 8103   1.646   2.611   1.891
  811ACTN    C3 8104   1.647   2.637   1.747
  811ACTN    H1 8105   1.628   2.403   1.950
  811ACTN    H2 8106   1.482   2.477   1.883
  811ACTN    H3 8107   1.535   2.516   2.049
  811ACTN    H4 8108   1.740   2.595   1.709
  811ACTN    H5 8109   1.654   2.744   1.724
  811ACTN    H6 8110   1.563   2.595   1.693
  812ACTN    C1 8111   0.431   1.941   4.229
  812ACTN    O1 8112   0.649   1.870   4.160
  812ACTN    C2 8113   0.577   1.913   4.251
  812ACTN    C3 8114   0.629   1.894   4.387
  812ACTN    H1 8115   0.409   2.048   4.232
  812ACTN    H2 8116   0.374   1.891   4.307
  812ACTN    H3 8117   0.400   1.903   4.131
  812ACTN    H4 8118   0.673   1.990   4.416
  812ACTN    H5 8119   0.713   1.824   4.390
  812ACTN    H6 8120   0.555   1.865   4.459
  813ACTN    C1 8121   3.219   1.646   4.504
  813ACTN    O1 8122   3.183   1.454   4.644
  813ACTN    C2 8123   3.158   1.574   4.621
  813ACTN    C3 8124   3.036   1.625   4.685
  813ACTN    H1 8125   3.292   1.720   4.536
  813ACTN    H2 8126   3.140   1.694   4.449
  813ACTN    H3 8127   3.272   1.574   4.440
  813ACTN    H4 8128   3.069   1.680   4.773
  813ACTN    H5 8129   2.972   1.546   4.724
  813ACTN    H6 8130   2.978   1.691   4.622
  814ACTN    C1 8131   2.900   6.130   1.369
  814ACTN    O1 8132   2.718   5.985   1.308
  814ACTN    C2 8133   2.841   6.006   1.308
  814ACTN    C3 8134   2.924   5.888   1.285
  814ACTN    H1 8135   2.940   6.197   1.293
  814ACTN    H2 8136   2.979   6.100   1.436
  814ACTN    H3 8137   2.822   6.185   1.424
  814ACTN    H4 8138   2.953   5.891   1.179
  814ACTN    H5 8139   2.868   5.794   1.296
  814ACTN    H6 8140   3.013   5.884   1.346
  815ACTN    C1 8141   7.463   7.323   5.678
  815ACTN    O1 8142   7.608   7.340   5.868
  815ACTN    C2 8143   7.592   7.301   5.751
  815ACTN    C3 8144   7.716   7.274   5.677
  815ACTN    H1 8145   7.409   7.229   5.661
  815ACTN    H2 8146   7.485   7.368   5.582
  815ACTN    H3 8147   7.397   7.389   5.736
  815ACTN    H4 8148   7.730   7.166   5.681
  815ACTN    H5 8149   7.804   7.315   5.727
  815ACTN    H6 8150   7.714   7.307   5.575
  816ACTN    C1 8151   3.382   4.809   4.961
  816ACTN    O1 8152   3.574   4.815   4.818
  816ACTN    C2 8153   3.461   4.859   4.844
  816ACTN    C3 8154   3.429   4.987   4.781
  816ACTN    H1 8155   3.295   4.750   4.930
  816ACTN    H2 8156   3.347   4.894   5.018
  816ACTN    H3 8157   3.444   4.745   5.024
  816ACTN    H4 8158   3.368   4.964   4.694
  816ACTN    H5 8159   3.517   5.038   4.742
  816ACTN    H6 8160   3.375   5.055   4.846
  817ACTN    C1 8161   5.541   3.776   5.782
  817ACTN    O1 8162   5.395   3.590   5.819
  817ACTN    C2 8163   5.499   3.650   5.851
  817ACTN    C3 8164   5.551   3.617   5.984
  817ACTN    H1 8165   5.630   3.761   5.721
  817ACTN    H2 8166   5.561   3.852   5.857
  817ACTN    H3 8167   5.462   3.811   5.715
  817ACTN    H4 8168   5.632   3.546   5.968
  817ACTN    H5 8169   5.478   3.563   6.045
  817ACTN    H6 8170   5.587   3.702   6.040
  818ACTN    C1 8171   0.835   1.219   6.087
  818ACTN    O1 8172   1.068   1.161   6.085
  818ACTN    C2 8173   0.963   1.176   6.021
  818ACTN    C3 8174   0.980   1.192   5.876
  818ACTN    H1 8175   0.762   1.139   6.089
  818ACTN    H2 8176   0.794   1.303   6.032
  818ACTN    H3 8177   0.855   1.248   6.191
  818ACTN    H4 8178   0.959   1.095   5.832
  818ACTN    H5 8179   1.084   1.213   5.848
  818ACTN    H6 8180   0.916   1.267   5.832
  819ACTN    C1 8181   6.793   2.044   5.416
  819ACTN    O1 8182   6.631   2.194   5.323
  819ACTN    C2 8183   6.653   2.090   5.387
  819ACTN    C3 8184   6.541   2.041   5.468
  819ACTN    H1 8185   6.818   1.953   5.360
  819ACTN    H2 8186   6.802   2.024   5.522
  819ACTN    H3 8187   6.865   2.121   5.386
  819ACTN    H4 8188   6.495   1.961   5.411
  819ACTN    H5 8189   6.462   2.116   5.480
  819ACTN    H6 8190   6.569   2.004   5.566
  820ACTN    C1 8191   6.815   4.890   2.875
  820ACTN    O1 8192   6.931   4.751   3.033
  820ACTN    C2 8193   6.910   4.865   2.989
  820ACTN    C3 8194   6.948   4.974   3.079
  820ACTN    H1 8195   6.867   4.920   2.784
  820ACTN    H2 8196   6.746   4.968   2.905
  820ACTN    H3 8197   6.760   4.798   2.852
  820ACTN    H4 8198   7.045   5.010   3.044
  820ACTN    H5 8199   6.966   4.940   3.181
  820ACTN    H6 8200   6.877   5.056   3.081
  821ACTN    C1 8201   0.288   7.291   0.767
  821ACTN    O1 8202   0.516   7.260   0.701
  821ACTN    C2 8203   0.397   7.232   0.683
  821ACTN    C3 8204   0.366   7.173   0.552
  821ACTN    H1 8205   0.242   7.217   0.833
  821ACTN    H2 8206   0.212   7.332   0.701
  821ACTN    H3 8207   0.329   7.371   0.831
  821ACTN    H4 8208   0.359   7.066   0.567
  821ACTN    H5 8209   0.447   7.186   0.480
  821ACTN    H6 8210   0.274   7.209   0.508
  822ACTN    C1 8211   6.469   5.171   1.151
  822ACTN    O1 8212   6.243   5.094   1.172
  822ACTN    C2 8213   6.351   5.120   1.228
  822ACTN    C3 8214   6.343   5.139   1.373
  822ACTN    H1 8215   6.549   5.097   1.146
  822ACTN    H2 8216   6.506   5.260   1.200
  822ACTN    H3 8217   6.439   5.195   1.048
  822ACTN    H4 8218   6.375   5.046   1.418
  822ACTN    H5 8219   6.240   5.152   1.408
  822ACTN    H6 8220   6.403   5.221   1.410
  823ACTN    C1 8221   3.240   2.968   7.513
  823ACTN    O1 8222   3.392   2.784   7.535
  823ACTN    C2 8223   3.320   2.868   7.592
  823ACTN    C3 8224   3.284   2.835   7.730
  823ACTN    H1 8225   3.279   3.069   7.526
  823ACTN    H2 8226   3.138   2.965   7.548
  823ACTN    H3 8227   3.245   2.945   7.406
  823ACTN    H4 8228   3.351   2.894   7.793
  823ACTN    H5 8229   3.305   2.731   7.756
  823ACTN    H6 8230   3.181   2.858   7.755
  824ACTN    C1 8231   5.444   2.448   5.153
  824ACTN    O1 8232   5.646   2.573   5.115
  824ACTN    C2 8233   5.530   2.572   5.159
  824ACTN    C3 8234   5.498   2.679   5.254
  824ACTN    H1 8235   5.362   2.460   5.082
  824ACTN    H2 8236   5.404   2.429   5.251
  824ACTN    H3 8237   5.505   2.363   5.120
  824ACTN    H4 8238   5.445   2.755   5.197
  824ACTN    H5 8239   5.588   2.730   5.291
  824ACTN    H6 8240   5.438   2.648   5.338
  825ACTN    C1 8241   4.214   7.294   3.401
  825ACTN    O1 8242   4.340   7.156   3.251
  825ACTN    C2 8243   4.241   7.167   3.326
  825ACTN    C3 8244   4.134   7.070   3.302
  825ACTN    H1 8245   4.228   7.282   3.508
  825ACTN    H2 8246   4.111   7.324   3.382
  825ACTN    H3 8247   4.282   7.373   3.367
  825ACTN    H4 8248   4.146   6.993   3.378
  825ACTN    H5 8249   4.146   7.017   3.207
  825ACTN    H6 8250   4.035   7.112   3.308
  826ACTN    C1 8251   7.516   7.622   0.933
  826ACTN    O1 8252   7.494   7.394   1.002
  826ACTN    C2 8253   7.518   7.512   1.034
  826ACTN    C3 8254   7.504   7.541   1.177
  826ACTN    H1 8255   7.616   7.662   0.914
  826ACTN    H2 8256   7.453   7.702   0.970
  826ACTN    H3 8257   7.477   7.585   0.837
  826ACTN    H4 8258   7.605   7.541   1.218
  826ACTN    H5 8259   7.451   7.463   1.232
  826ACTN    H6 8260   7.457   7.637   1.198
  827ACTN    C1 8261   5.254   1.380   3.870
  827ACTN    O1 8262   5.234   1.285   3.651
  827ACTN    C2 8263   5.190   1.365   3.735
  827ACTN    C3 8264   5.102   1.470   3.682
  827ACTN    H1 8265   5.192   1.341   3.950
  827ACTN    H2 8266   5.272   1.486   3.888
  827ACTN    H3 8267   5.349   1.325   3.873
  827ACTN    H4 8268   5.000   1.437   3.702
  827ACTN    H5 8269   5.108   1.478   3.573
  827ACTN    H6 8270   5.119   1.567   3.726
  828ACTN    C1 8271   2.069   4.347   1.876
  828ACTN    O1 8272   2.136   4.572   1.928
  828ACTN    C2 8273   2.114   4.486   1.841
  828ACTN    C3 8274   2.090   4.539   1.706
  828ACTN    H1 8275   2.147   4.273   1.855
  828ACTN    H2 8276   1.981   4.324   1.819
  828ACTN    H3 8277   2.047   4.341   1.984
  828ACTN    H4 8278   2.184   4.527   1.652
  828ACTN    H5 8279   2.072   4.647   1.706
  828ACTN    H6 8280   2.011   4.490   1.652
  829ACTN    C1 8281   5.119   1.857   3.301
  829ACTN    O1 8282   4.895   1.836   3.218
  829ACTN    C2 8283   4.969   1.861   3.314
  829ACTN    C3 8284   4.906   1.935   3.424
  829ACTN    H1 8285   5.162   1.774   3.356
  829ACTN    H2 8286   5.159   1.951   3.340
  829ACTN    H3 8287   5.147   1.846   3.196
  829ACTN    H4 8288   4.881   1.861   3.500
  829ACTN    H5 8289   4.809   1.978   3.395
  829ACTN    H6 8290   4.968   2.012   3.467
  830ACTN    C1 8291   4.181   7.230   2.038
  830ACTN    O1 8292   4.411   7.274   2.091
  830ACTN    C2 8293   4.307   7.311   2.034
  830ACTN    C3 8294   4.302   7.454   2.001
  830ACTN    H1 8295   4.157   7.187   1.941
  830ACTN    H2 8296   4.100   7.294   2.069
  830ACTN    H3 8297   4.192   7.147   2.109
  830ACTN    H4 8298   4.328   7.462   1.896
  830ACTN    H5 8299   4.379   7.512   2.053
  830ACTN    H6 8300   4.206   7.500   2.018
  831ACTN    C1 8301   2.391   2.552   0.785
  831ACTN    O1 8302   2.225   2.501   0.618
  831ACTN    C2 8303   2.316   2.577   0.657
  831ACTN    C3 8304   2.373   2.663   0.553
  831ACTN    H1 8305   2.367   2.626   0.861
  831ACTN    H2 8306   2.497   2.555   0.763
  831ACTN    H3 8307   2.364   2.453   0.825
  831ACTN    H4 8308   2.326   2.760   0.565
  831ACTN    H5 8309   2.345   2.631   0.452
  831ACTN    H6 8310   2.481   2.673   0.558
  832ACTN    C1 8311   0.419   5.904   1.474
  832ACTN    O1 8312   0.329   6.126   1.454
  832ACTN    C2 8313   0.375   6.025   1.397
  832ACTN    C3 8314   0.342   6.014   1.254
  832ACTN    H1 8315   0.527   5.891   1.471
  832ACTN    H2 8316   0.371   5.817   1.431
  832ACTN    H3 8317   0.391   5.915   1.579
  832ACTN    H4 8318   0.430   6.049   1.200
  832ACTN    H5 8319   0.263   6.083   1.224
  832ACTN    H6 8320   0.317   5.914   1.222
  833ACTN    C1 8321   2.046   2.779   6.635
  833ACTN    O1 8322   1.902   2.718   6.818
  833ACTN    C2 8323   2.007   2.697   6.755
  833ACTN    C3 8324   2.109   2.619   6.827
  833ACTN    H1 8325   2.040   2.722   6.543
  833ACTN    H2 8326   2.147   2.814   6.649
  833ACTN    H3 8327   1.977   2.865   6.626
  833ACTN    H4 8328   2.101   2.517   6.791
  833ACTN    H5 8329   2.088   2.612   6.935
  833ACTN    H6 8330   2.210   2.655   6.813
  834ACTN    C1 8331   6.851   0.506   6.554
  834ACTN    O1 8332   6.998   0.689   6.504
  834ACTN    C2 8333   6.910   0.611   6.464
  834ACTN    C3 8334   6.838   0.654   6.343
  834ACTN    H1 8335   6.881   0.406   6.525
  834ACTN    H2 8336   6.743   0.514   6.550
  834ACTN    H3 8337   6.885   0.522   6.657
  834ACTN    H4 8338   6.884   0.599   6.260
  834ACTN    H5 8339   6.856   0.759   6.319
  834ACTN    H6 8340   6.732   0.635   6.346
  835ACTN    C1 8341   1.979   7.792   6.160
  835ACTN    O1 8342   2.203   7.859   6.213
  835ACTN    C2 8343   2.092   7.820   6.255
  835ACTN    C3 8344   2.092   7.764   6.390
  835ACTN    H1 8345   1.899   7.865   6.169
  835ACTN    H2 8346   1.939   7.693   6.183
  835ACTN    H3 8347   2.015   7.795   6.057
  835ACTN    H4 8348   2.057   7.843   6.456
  835ACTN    H5 8349   2.193   7.741   6.426
  835ACTN    H6 8350   2.030   7.677   6.402
  836ACTN    C1 8351   3.631   7.420   6.246
  836ACTN    O1 8352   3.487   7.352   6.425
  836ACTN    C2 8353   3.573   7.320   6.342
  836ACTN    C3 8354   3.643   7.194   6.371
  836ACTN    H1 8355   3.599   7.402   6.144
  836ACTN    H2 8356   3.739   7.413   6.252
  836ACTN    H3 8357   3.599   7.521   6.273
  836ACTN    H4 8358   3.596   7.118   6.308
  836ACTN    H5 8359   3.627   7.160   6.473
  836ACTN    H6 8360   3.749   7.197   6.350
  837ACTN    C1 8361   7.616   4.199   7.291
  837ACTN    O1 8362   7.571   3.993   7.176
  837ACTN    C2 8363   7.654   4.080   7.207
  837ACTN    C3 8364   7.794   4.039   7.195
  837ACTN    H1 8365   7.617   4.291   7.233
  837ACTN    H2 8366   7.687   4.207   7.372
  837ACTN    H3 8367   7.515   4.186   7.330
  837ACTN    H4 8368   7.829   4.080   7.100
  837ACTN    H5 8369   7.805   3.931   7.184
  837ACTN    H6 8370   7.857   4.074   7.275
  838ACTN    C1 8371   7.547   2.664   5.800
  838ACTN    O1 8372   7.684   2.737   5.617
  838ACTN    C2 8373   7.640   2.642   5.683
  838ACTN    C3 8374   7.646   2.511   5.617
  838ACTN    H1 8375   7.595   2.640   5.895
  838ACTN    H2 8376   7.460   2.600   5.787
  838ACTN    H3 8377   7.516   2.769   5.804
  838ACTN    H4 8378   7.734   2.461   5.658
  838ACTN    H5 8379   7.667   2.520   5.510
  838ACTN    H6 8380   7.559   2.450   5.632
  839ACTN    C1 8381   5.969   3.096   6.170
  839ACTN    O1 8382   6.154   3.242   6.124
  839ACTN    C2 8383   6.083   3.185   6.209
  839ACTN    C3 8384   6.143   3.176   6.343
  839ACTN    H1 8385   5.872   3.140   6.195
  839ACTN    H2 8386   5.980   3.002   6.223
  839ACTN    H3 8387   5.970   3.078   6.062
  839ACTN    H4 8388   6.098   3.256   6.402
  839ACTN    H5 8389   6.250   3.198   6.343
  839ACTN    H6 8390   6.126   3.082   6.392
  840ACTN    C1 8391   4.396   6.262   6.203
  840ACTN    O1 8392   4.385   6.387   6.408
  840ACTN    C2 8393   4.373   6.277   6.351
  840ACTN    C3 8394   4.378   6.160   6.439
  840ACTN    H1 8395   4.304   6.242   6.149
  840ACTN    H2 8396   4.465   6.180   6.188
  840ACTN    H3 8397   4.438   6.355   6.163
  840ACTN    H4 8398   4.275   6.130   6.456
  840ACTN    H5 8399   4.416   6.184   6.539
  840ACTN    H6 8400   4.435   6.077   6.399
  841ACTN    C1 8401   6.414   3.650   4.967
  841ACTN    O1 8402   6.230   3.735   4.838
  841ACTN    C2 8403   6.345   3.687   4.839
  841ACTN    C3 8404   6.389   3.629   4.711
  841ACTN    H1 8405   6.497   3.716   4.989
  841ACTN    H2 8406   6.450   3.548   4.958
  841ACTN    H3 8407   6.343   3.657   5.051
  841ACTN    H4 8408   6.452   3.705   4.665
  841ACTN    H5 8409   6.306   3.615   4.641
  841ACTN    H6 8410   6.444   3.537   4.721
  842ACTN    C1 8411   3.750   1.872   3.809
  842ACTN    O1 8412   3.911   1.771   3.663
  842ACTN    C2 8413   3.883   1.811   3.777
  842ACTN    C3 8414   3.967   1.757   3.885
  842ACTN    H1 8415   3.757   1.979   3.829
  842ACTN    H2 8416   3.709   1.822   3.896
  842ACTN    H3 8417   3.682   1.860   3.723
  842ACTN    H4 8418   4.041   1.834   3.907
  842ACTN    H5 8419   4.027   1.671   3.852
  842ACTN    H6 8420   3.913   1.731   3.974
  843ACTN    C1 8421   4.272   1.483   3.978
  843ACTN    O1 8422   4.310   1.676   3.841
  843ACTN    C2 8423   4.272   1.630   3.950
  843ACTN    C3 8424   4.271   1.727   4.060
  843ACTN    H1 8425   4.170   1.443   3.986
  843ACTN    H2 8426   4.324   1.466   4.072
  843ACTN    H3 8427   4.322   1.429   3.897
  843ACTN    H4 8428   4.168   1.759   4.071
  843ACTN    H5 8429   4.326   1.819   4.036
  843ACTN    H6 8430   4.307   1.688   4.154
  844ACTN    C1 8431   6.107   4.077   3.375
  844ACTN    O1 8432   6.246   4.273   3.362
  844ACTN    C2 8433   6.236   4.152   3.391
  844ACTN    C3 8434   6.364   4.080   3.398
  844ACTN    H1 8435   6.064   4.050   3.471
  844ACTN    H2 8436   6.126   3.987   3.318
  844ACTN    H3 8437   6.034   4.140   3.322
  844ACTN    H4 8438   6.389   4.073   3.503
  844ACTN    H5 8439   6.446   4.136   3.353
  844ACTN    H6 8440   6.361   3.981   3.354
  845ACTN    C1 8441   0.701   7.232   1.436
  845ACTN    O1 8442   0.876   7.078   1.492
  845ACTN    C2 8443   0.797   7.121   1.406
  845ACTN    C3 8444   0.833   7.088   1.268
  845ACTN    H1 8445   0.598   7.198   1.439
  845ACTN    H2 8446   0.711   7.308   1.359
  845ACTN    H3 8447   0.724   7.276   1.534
  845ACTN    H4 8448   0.771   7.003   1.240
  845ACTN    H5 8449   0.935   7.052   1.258
  845ACTN    H6 8450   0.816   7.169   1.198
  846ACTN    C1 8451   5.267   3.702   7.688
  846ACTN    O1 8452   5.202   3.922   7.759
  846ACTN    C2 8453   5.256   3.814   7.788
  846ACTN    C3 8454   5.343   3.818   7.906
  846ACTN    H1 8455   5.202   3.618   7.714
  846ACTN    H2 8456   5.370   3.669   7.686
  846ACTN    H3 8457   5.236   3.738   7.589
  846ACTN    H4 8458   5.284   3.778   7.988
  846ACTN    H5 8459   5.368   3.920   7.936
  846ACTN    H6 8460   5.434   3.760   7.895
  847ACTN    C1 8461   4.896   7.915   4.649
  847ACTN    O1 8462   4.867   7.712   4.773
  847ACTN    C2 8463   4.891   7.833   4.775
  847ACTN    C3 8464   4.870   7.898   4.905
  847ACTN    H1 8465   4.997   7.949   4.627
  847ACTN    H2 8466   4.832   8.002   4.662
  847ACTN    H3 8467   4.861   7.856   4.564
  847ACTN    H4 8468   4.969   7.907   4.950
  847ACTN    H5 8469   4.814   7.835   4.975
  847ACTN    H6 8470   4.824   7.995   4.899
  848ACTN    C1 8471   3.027   5.623   5.268
  848ACTN    O1 8472   3.205   5.694   5.124
  848ACTN    C2 8473   3.171   5.646   5.234
  848ACTN    C3 8474   3.277   5.575   5.306
  848ACTN    H1 8475   2.992   5.691   5.346
  848ACTN    H2 8476   3.016   5.521   5.303
  848ACTN    H3 8477   2.964   5.639   5.180
  848ACTN    H4 8478   3.315   5.645   5.381
  848ACTN    H5 8479   3.364   5.554   5.242
  848ACTN    H6 8480   3.245   5.484   5.354
  849ACTN    C1 8481   5.086   2.865   7.138
  849ACTN    O1 8482   5.198   2.988   7.312
  849ACTN    C2 8483   5.094   2.933   7.272
  849ACTN    C3 8484   4.997   2.901   7.378
  849ACTN    H1 8485   5.022   2.919   7.069
  849ACTN    H2 8486   5.046   2.765   7.153
  849ACTN    H3 8487   5.186   2.859   7.093
  849ACTN    H4 8488   4.922   2.979   7.375
  849ACTN    H5 8489   5.040   2.907   7.478
  849ACTN    H6 8490   4.949   2.804   7.366
  850ACTN    C1 8491   7.327   4.065   1.223
  850ACTN    O1 8492   7.542   4.056   1.116
  850ACTN    C2 8493   7.475   4.090   1.215
  850ACTN    C3 8494   7.553   4.116   1.336
  850ACTN    H1 8495   7.270   4.157   1.217
  850ACTN    H2 8496   7.306   4.016   1.317
  850ACTN    H3 8497   7.296   4.001   1.140
  850ACTN    H4 8498   7.564   4.224   1.343
  850ACTN    H5 8499   7.655   4.078   1.330
  850ACTN    H6 8500   7.507   4.079   1.427
  851ACTN    C1 8501   5.951   2.209   6.064
  851ACTN    O1 8502   6.060   2.333   6.238
  851ACTN    C2 8503   5.953   2.301   6.183
  851ACTN    C3 8504   5.833   2.321   6.264
  851ACTN    H1 8505   5.922   2.261   5.973
  851ACTN    H2 8506   5.879   2.130   6.084
  851ACTN    H3 8507   6.050   2.167   6.047
  851ACTN    H4 8508   5.789   2.414   6.230
  851ACTN    H5 8509   5.856   2.338   6.370
  851ACTN    H6 8510   5.761   2.241   6.256
  852ACTN    C1 8511   3.642   3.196   2.528
  852ACTN    O1 8512   3.459   3.124   2.390
  852ACTN    C2 8513   3.556   3.200   2.405
  852ACTN    C3 8514   3.607   3.260   2.281
  852ACTN    H1 8515   3.629   3.286   2.589
  852ACTN    H2 8516   3.745   3.188   2.498
  852ACTN    H3 8517   3.614   3.110   2.590
  852ACTN    H4 8518   3.566   3.361   2.277
  852ACTN    H5 8519   3.568   3.211   2.191
  852ACTN    H6 8520   3.715   3.264   2.275
  853ACTN    C1 8521   3.876   6.052   5.569
  853ACTN    O1 8522   3.998   6.238   5.660
  853ACTN    C2 8523   4.002   6.130   5.599
  853ACTN    C3 8524   4.124   6.106   5.522
  853ACTN    H1 8525   3.871   5.960   5.627
  853ACTN    H2 8526   3.875   6.028   5.463
  853ACTN    H3 8527   3.788   6.112   5.595
  853ACTN    H4 8528   4.186   6.040   5.582
  853ACTN    H5 8529   4.184   6.196   5.509
  853ACTN    H6 8530   4.107   6.061   5.425
  854ACTN    C1 8531   5.341   1.721   4.287
  854ACTN    O1 8532   5.160   1.758   4.440
  854ACTN    C2 8533   5.204   1.772   4.325
  854ACTN    C3 8534   5.104   1.799   4.222
  854ACTN    H1 8535   5.411   1.803   4.269
  854ACTN    H2 8536   5.331   1.661   4.197
  854ACTN    H3 8537   5.382   1.660   4.369
  854ACTN    H4 8538   5.107   1.907   4.205
  854ACTN    H5 8539   5.002   1.780   4.257
  854ACTN    H6 8540   5.121   1.747   4.129
  855ACTN    C1 8541   1.238   0.745   3.341
  855ACTN    O1 8542   1.231   0.919   3.175
  855ACTN    C2 8543   1.196   0.804   3.209
  855ACTN    C3 8544   1.080   0.751   3.137
  855ACTN    H1 8545   1.309   0.664   3.328
  855ACTN    H2 8546   1.149   0.708   3.391
  855ACTN    H3 8547   1.287   0.822   3.402
  855ACTN    H4 8548   1.120   0.684   3.061
  855ACTN    H5 8549   1.026   0.827   3.081
  855ACTN    H6 8550   1.010   0.697   3.200
  856ACTN    C1 8551   3.963   4.373   0.337
  856ACTN    O1 8552   4.075   4.161   0.349
  856ACTN    C2 8553   4.016   4.245   0.279
  856ACTN    C3 8554   4.038   4.232   0.135
  856ACTN    H1 8555   3.854   4.374   0.340
  856ACTN    H2 8556   3.997   4.455   0.276
  856ACTN    H3 8557   3.999   4.385   0.440
  856ACTN    H4 8558   3.951   4.179   0.095
  856ACTN    H5 8559   4.122   4.167   0.111
  856ACTN    H6 8560   4.050   4.326   0.084
  857ACTN    C1 8561   2.208   3.825   6.423
  857ACTN    O1 8562   2.023   3.977   6.422
  857ACTN    C2 8563   2.106   3.912   6.356
  857ACTN    C3 8564   2.072   3.892   6.215
  857ACTN    H1 8565   2.309   3.865   6.414
  857ACTN    H2 8566   2.205   3.727   6.377
  857ACTN    H3 8567   2.186   3.817   6.530
  857ACTN    H4 8568   2.129   3.967   6.159
  857ACTN    H5 8569   1.967   3.916   6.194
  857ACTN    H6 8570   2.095   3.793   6.178
  858ACTN    C1 8571   5.915   5.189   5.055
  858ACTN    O1 8572   5.819   4.984   4.978
  858ACTN    C2 8573   5.852   5.101   4.952
  858ACTN    C3 8574   5.866   5.131   4.809
  858ACTN    H1 8575   5.849   5.270   5.086
  858ACTN    H2 8576   6.006   5.232   5.013
  858ACTN    H3 8577   5.940   5.131   5.145
  858ACTN    H4 8578   5.774   5.181   4.780
  858ACTN    H5 8579   5.869   5.041   4.747
  858ACTN    H6 8580   5.951   5.193   4.785
  859ACTN    C1 8581   1.202   5.300   2.402
  859ACTN    O1 8582   1.206   5.138   2.579
  859ACTN    C2 8583   1.258   5.239   2.527
  859ACTN    C3 8584   1.345   5.316   2.616
  859ACTN    H1 8585   1.268   5.286   2.317
  859ACTN    H2 8586   1.188   5.406   2.420
  859ACTN    H3 8587   1.106   5.254   2.377
  859ACTN    H4 8588   1.447   5.287   2.591
  859ACTN    H5 8589   1.333   5.288   2.721
  859ACTN    H6 8590   1.334   5.423   2.606
  860ACTN    C1 8591   6.648   4.149   6.060
  860ACTN    O1 8592   6.454   4.025   6.127
  860ACTN    C2 8593   6.522   4.129   6.138
  860ACTN    C3 8594   6.450   4.243   6.196
  860ACTN    H1 8595   6.736   4.147   6.123
  860ACTN    H2 8596   6.642   4.246   6.010
  860ACTN    H3 8597   6.659   4.070   5.985
  860ACTN    H4 8598   6.480   4.247   6.301
  860ACTN    H5 8599   6.342   4.228   6.198
  860ACTN    H6 8600   6.472   4.337   6.148
  861ACTN    C1 8601   4.624   5.086   6.112
  861ACTN    O1 8602   4.782   5.266   6.124
  861ACTN    C2 8603   4.715   5.181   6.185
  861ACTN    C3 8604   4.762   5.149   6.320
  861ACTN    H1 8605   4.519   5.107   6.132
  861ACTN    H2 8606   4.646   4.985   6.144
  861ACTN    H3 8607   4.639   5.095   6.004
  861ACTN    H4 8608   4.698   5.205   6.388
  861ACTN    H5 8609   4.863   5.187   6.339
  861ACTN    H6 8610   4.759   5.044   6.345
  862ACTN    C1 8611   2.941   2.243   0.046
  862ACTN    O1 8612   2.979   2.358   0.253
  862ACTN    C2 8613   2.958   2.250   0.195
  862ACTN    C3 8614   2.995   2.131   0.271
  862ACTN    H1 8615   2.838   2.218   0.018
  862ACTN    H2 8616   3.007   2.167   0.007
  862ACTN    H3 8617   2.964   2.340   0.001
  862ACTN    H4 8618   2.902   2.092   0.313
  862ACTN    H5 8619   3.057   2.154   0.358
  862ACTN    H6 8620   3.043   2.054   0.213
  863ACTN    C1 8621   0.910   0.621   5.447
  863ACTN    O1 8622   0.914   0.776   5.630
  863ACTN    C2 8623   0.942   0.662   5.588
  863ACTN    C3 8624   1.041   0.589   5.667
  863ACTN    H1 8625   0.830   0.547   5.443
  863ACTN    H2 8626   1.000   0.579   5.403
  863ACTN    H3 8627   0.877   0.708   5.389
  863ACTN    H4 8628   0.985   0.520   5.730
  863ACTN    H5 8629   1.095   0.653   5.736
  863ACTN    H6 8630   1.112   0.533   5.607
  864ACTN    C1 8631   4.430   6.894   2.641
  864ACTN    O1 8632   4.424   6.731   2.817
  864ACTN    C2 8633   4.380   6.838   2.771
  864ACTN    C3 8634   4.252   6.881   2.827
  864ACTN    H1 8635   4.489   6.984   2.655
  864ACTN    H2 8636   4.344   6.917   2.579
  864ACTN    H3 8637   4.494   6.820   2.590
  864ACTN    H4 8638   4.275   6.956   2.902
  864ACTN    H5 8639   4.201   6.801   2.883
  864ACTN    H6 8640   4.184   6.922   2.754
  865ACTN    C1 8641   3.529   5.771   7.851
  865ACTN    O1 8642   3.345   5.925   7.844
  865ACTN    C2 8643   3.427   5.855   7.781
  865ACTN    C3 8644   3.389   5.827   7.642
  865ACTN    H1 8645   3.630   5.810   7.837
  865ACTN    H2 8646   3.524   5.670   7.812
  865ACTN    H3 8647   3.510   5.770   7.959
  865ACTN    H4 8648   3.446   5.896   7.581
  865ACTN    H5 8649   3.284   5.850   7.622
  865ACTN    H6 8650   3.410   5.725   7.611
  866ACTN    C1 8651   4.727   7.009   2.437
  866ACTN    O1 8652   4.578   7.166   2.333
  866ACTN    C2 8653   4.613   7.047   2.347
  866ACTN    C3 8654   4.513   6.948   2.308
  866ACTN    H1 8655   4.813   6.974   2.381
  866ACTN    H2 8656   4.693   6.931   2.504
  866ACTN    H3 8657   4.760   7.096   2.496
  866ACTN    H4 8658   4.542   6.913   2.208
  866ACTN    H5 8659   4.414   6.991   2.294
  866ACTN    H6 8660   4.506   6.863   2.375
  867ACTN    C1 8661   5.173   1.347   2.719
  867ACTN    O1 8662   5.251   1.445   2.514
  867ACTN    C2 8663   5.219   1.342   2.576
  867ACTN    C3 8664   5.187   1.227   2.491
  867ACTN    H1 8665   5.245   1.302   2.786
  867ACTN    H2 8666   5.079   1.293   2.726
  867ACTN    H3 8667   5.159   1.451   2.750
  867ACTN    H4 8668   5.275   1.164   2.491
  867ACTN    H5 8669   5.172   1.255   2.386
  867ACTN    H6 8670   5.101   1.170   2.524
  868ACTN    C1 8671   1.932   0.812   7.246
  868ACTN    O1 8672   1.780   0.637   7.303
  868ACTN    C2 8673   1.857   0.726   7.342
  868ACTN    C3 8674   1.838   0.768   7.481
  868ACTN    H1 8675   2.039   0.791   7.246
  868ACTN    H2 8676   1.917   0.916   7.273
  868ACTN    H3 8677   1.896   0.795   7.144
  868ACTN    H4 8678   1.914   0.717   7.540
  868ACTN    H5 8679   1.743   0.734   7.523
  868ACTN    H6 8680   1.847   0.875   7.496
  869ACTN    C1 8681   4.307   0.530   5.241
  869ACTN    O1 8682   4.293   0.766   5.278
  869ACTN    C2 8683   4.339   0.657   5.314
  869ACTN    C3 8684   4.457   0.665   5.401
  869ACTN    H1 8685   4.244   0.463   5.299
  869ACTN    H2 8686   4.400   0.479   5.218
  869ACTN    H3 8687   4.254   0.552   5.148
  869ACTN    H4 8688   4.421   0.650   5.503
  869ACTN    H5 8689   4.502   0.765   5.402
  869ACTN    H6 8690   4.534   0.592   5.378
  870ACTN    C1 8691   4.914   4.252   3.290
  870ACTN    O1 8692   4.892   4.487   3.247
  870ACTN    C2 8693   4.947   4.379   3.217
  870ACTN    C3 8694   5.009   4.375   3.085
  870ACTN    H1 8695   4.997   4.218   3.352
  870ACTN    H2 8696   4.891   4.175   3.217
  870ACTN    H3 8697   4.828   4.267   3.356
  870ACTN    H4 8698   5.116   4.391   3.101
  870ACTN    H5 8699   4.978   4.458   3.021
  870ACTN    H6 8700   4.994   4.282   3.032
  871ACTN    C1 8701   2.542   3.192   3.078
  871ACTN    O1 8702   2.666   2.994   3.024
  871ACTN    C2 8703   2.630   3.075   3.111
  871ACTN    C3 8704   2.642   3.027   3.249
  871ACTN    H1 8705   2.595   3.287   3.085
  871ACTN    H2 8706   2.459   3.193   3.147
  871ACTN    H3 8707   2.505   3.183   2.975
  871ACTN    H4 8708   2.734   3.070   3.288
  871ACTN    H5 8709   2.658   2.919   3.255
  871ACTN    H6 8710   2.559   3.055   3.312
  872ACTN    C1 8711   2.788   1.193   1.405
  872ACTN    O1 8712   2.949   1.226   1.230
  872ACTN    C2 8713   2.838   1.182   1.263
  872ACTN    C3 8714   2.744   1.159   1.153
  872ACTN    H1 8715   2.784   1.097   1.454
  872ACTN    H2 8716   2.689   1.236   1.403
  872ACTN    H3 8717   2.855   1.258   1.463
  872ACTN    H4 8718   2.748   1.052   1.132
  872ACTN    H5 8719   2.776   1.206   1.060
  872ACTN    H6 8720   2.642   1.188   1.175
  873ACTN    C1 8721   1.222   3.379   3.050
  873ACTN    O1 8722   1.236   3.141   3.020
  873ACTN    C2 8723   1.166   3.239   3.049
  873ACTN    C3 8724   1.021   3.217   3.039
  873ACTN    H1 8725   1.229   3.419   3.150
  873ACTN    H2 8726   1.157   3.442   2.990
  873ACTN    H3 8727   1.323   3.378   3.007
  873ACTN    H4 8728   0.986   3.199   3.141
  873ACTN    H5 8729   0.996   3.126   2.985
  873ACTN    H6 8730   0.967   3.300   2.996
  874ACTN    C1 8731   1.285   3.185   3.321
  874ACTN    O1 8732   1.291   2.952   3.264
  874ACTN    C2 8733   1.231   3.044   3.322
  874ACTN    C3 8734   1.090   3.019   3.350
  874ACTN    H1 8735   1.319   3.215   3.420
  874ACTN    H2 8736   1.205   3.251   3.289
  874ACTN    H3 8737   1.370   3.192   3.253
  874ACTN    H4 8738   1.085   2.989   3.455
  874ACTN    H5 8739   1.051   2.932   3.296
  874ACTN    H6 8740   1.025   3.104   3.333
  875ACTN    C1 8741   6.119   3.011   7.574
  875ACTN    O1 8742   5.893   2.932   7.594
  875ACTN    C2 8743   5.998   2.933   7.528
  875ACTN    C3 8744   6.013   2.824   7.431
  875ACTN    H1 8745   6.139   3.097   7.510
  875ACTN    H2 8746   6.205   2.944   7.572
  875ACTN    H3 8747   6.103   3.048   7.676
  875ACTN    H4 8748   5.986   2.867   7.334
  875ACTN    H5 8749   5.940   2.744   7.447
  875ACTN    H6 8750   6.112   2.782   7.426
  876ACTN    C1 8751   3.665   1.114   2.670
  876ACTN    O1 8752   3.683   0.916   2.804
  876ACTN    C2 8753   3.611   1.008   2.761
  876ACTN    C3 8754   3.467   0.981   2.767
  876ACTN    H1 8755   3.670   1.211   2.719
  876ACTN    H2 8756   3.600   1.122   2.583
  876ACTN    H3 8757   3.767   1.089   2.638
  876ACTN    H4 8758   3.431   1.034   2.856
  876ACTN    H5 8759   3.444   0.876   2.787
  876ACTN    H6 8760   3.412   1.014   2.681
  877ACTN    C1 8761   6.723   5.857   4.346
  877ACTN    O1 8762   6.545   5.948   4.213
  877ACTN    C2 8763   6.640   5.969   4.291
  877ACTN    C3 8764   6.691   6.106   4.290
  877ACTN    H1 8765   6.706   5.843   4.453
  877ACTN    H2 8766   6.827   5.880   4.329
  877ACTN    H3 8767   6.697   5.762   4.296
  877ACTN    H4 8768   6.647   6.155   4.376
  877ACTN    H5 8769   6.655   6.164   4.204
  877ACTN    H6 8770   6.799   6.113   4.295
  878ACTN    C1 8771   4.435   6.929   5.377
  878ACTN    O1 8772   4.263   7.013   5.521
  878ACTN    C2 8773   4.385   7.002   5.498
  878ACTN    C3 8774   4.471   7.099   5.567
  878ACTN    H1 8775   4.485   6.836   5.404
  878ACTN    H2 8776   4.505   6.993   5.324
  878ACTN    H3 8777   4.351   6.903   5.311
  878ACTN    H4 8778   4.512   7.047   5.653
  878ACTN    H5 8779   4.414   7.182   5.610
  878ACTN    H6 8780   4.551   7.139   5.506
  879ACTN    C1 8781   1.363   7.232   2.448
  879ACTN    O1 8782   1.401   7.468   2.470
  879ACTN    C2 8783   1.389   7.370   2.394
  879ACTN    C3 8784   1.360   7.402   2.254
  879ACTN    H1 8785   1.449   7.166   2.435
  879ACTN    H2 8786   1.278   7.190   2.394
  879ACTN    H3 8787   1.340   7.237   2.555
  879ACTN    H4 8788   1.455   7.395   2.201
  879ACTN    H5 8789   1.329   7.506   2.241
  879ACTN    H6 8790   1.288   7.337   2.208
  880ACTN    C1 8791   1.931   4.364   7.411
  880ACTN    O1 8792   1.969   4.527   7.239
  880ACTN    C2 8793   2.016   4.439   7.312
  880ACTN    C3 8794   2.144   4.383   7.267
  880ACTN    H1 8795   1.956   4.391   7.514
  880ACTN    H2 8796   1.947   4.258   7.397
  880ACTN    H3 8797   1.826   4.389   7.396
  880ACTN    H4 8798   2.221   4.433   7.326
  880ACTN    H5 8799   2.168   4.410   7.164
  880ACTN    H6 8800   2.153   4.276   7.279
  881ACTN    C1 8801   4.834   5.513   7.464
  881ACTN    O1 8802   4.606   5.563   7.407
  881ACTN    C2 8803   4.695   5.477   7.419
  881ACTN    C3 8804   4.647   5.339   7.431
  881ACTN    H1 8805   4.906   5.502   7.384
  881ACTN    H2 8806   4.861   5.448   7.547
  881ACTN    H3 8807   4.836   5.618   7.497
  881ACTN    H4 8808   4.659   5.295   7.332
  881ACTN    H5 8809   4.539   5.333   7.450
  881ACTN    H6 8810   4.700   5.280   7.504
  882ACTN    C1 8811   1.172   2.713   7.915
  882ACTN    O1 8812   1.081   2.734   7.694
  882ACTN    C2 8813   1.078   2.770   7.813
  882ACTN    C3 8814   1.010   2.898   7.837
  882ACTN    H1 8815   1.121   2.649   7.987
  882ACTN    H2 8816   1.219   2.795   7.968
  882ACTN    H3 8817   1.248   2.651   7.866
  882ACTN    H4 8818   0.910   2.873   7.872
  882ACTN    H5 8819   0.994   2.955   7.745
  882ACTN    H6 8820   1.060   2.961   7.910
  883ACTN    C1 8821   5.802   4.024   0.550
  883ACTN    O1 8822   5.785   4.247   0.636
  883ACTN    C2 8823   5.751   4.128   0.645
  883ACTN    C3 8824   5.696   4.089   0.775
  883ACTN    H1 8825   5.724   3.987   0.483
  883ACTN    H2 8826   5.842   3.941   0.608
  883ACTN    H3 8827   5.881   4.066   0.487
  883ACTN    H4 8828   5.588   4.088   0.763
  883ACTN    H5 8829   5.715   4.163   0.853
  883ACTN    H6 8830   5.729   3.992   0.810
  884ACTN    C1 8831   4.466   6.108   3.044
  884ACTN    O1 8832   4.341   6.003   3.220
  884ACTN    C2 8833   4.374   6.003   3.100
  884ACTN    C3 8834   4.353   5.877   3.030
  884ACTN    H1 8835   4.413   6.177   2.977
  884ACTN    H2 8836   4.545   6.058   2.989
  884ACTN    H3 8837   4.508   6.168   3.125
  884ACTN    H4 8838   4.260   5.887   2.974
  884ACTN    H5 8839   4.336   5.793   3.098
  884ACTN    H6 8840   4.433   5.851   2.961
  885ACTN    C1 8841   6.053   0.781   1.744
  885ACTN    O1 8842   6.100   0.555   1.680
  885ACTN    C2 8843   6.015   0.644   1.697
  885ACTN    C3 8844   5.887   0.622   1.630
  885ACTN    H1 8845   6.019   0.800   1.846
  885ACTN    H2 8846   6.009   0.854   1.677
  885ACTN    H3 8847   6.163   0.792   1.744
  885ACTN    H4 8848   5.819   0.583   1.705
  885ACTN    H5 8849   5.892   0.543   1.554
  885ACTN    H6 8850   5.844   0.711   1.585
  886ACTN    C1 8851   7.759   3.520   3.335
  886ACTN    O1 8852   7.960   3.434   3.236
  886ACTN    C2 8853   7.894   3.454   3.340
  886ACTN    C3 8854   7.934   3.374   3.455
  886ACTN    H1 8855   7.761   3.620   3.379
  886ACTN    H2 8856   7.689   3.458   3.391
  886ACTN    H3 8857   7.726   3.530   3.231
  886ACTN    H4 8858   7.996   3.439   3.517
  886ACTN    H5 8859   8.000   3.291   3.428
  886ACTN    H6 8860   7.851   3.337   3.514
  887ACTN    C1 8861   6.772   7.385   5.714
  887ACTN    O1 8862   6.677   7.164   5.709
  887ACTN    C2 8863   6.751   7.246   5.767
  887ACTN    C3 8864   6.778   7.215   5.908
  887ACTN    H1 8865   6.873   7.398   5.677
  887ACTN    H2 8866   6.753   7.455   5.794
  887ACTN    H3 8867   6.704   7.403   5.630
  887ACTN    H4 8868   6.877   7.169   5.911
  887ACTN    H5 8869   6.711   7.139   5.949
  887ACTN    H6 8870   6.776   7.302   5.973
  888ACTN    C1 8871   1.255   2.784   7.184
  888ACTN    O1 8872   1.274   2.551   7.134
  888ACTN    C2 8873   1.207   2.655   7.126
  888ACTN    C3 8874   1.104   2.654   7.021
  888ACTN    H1 8875   1.195   2.815   7.270
  888ACTN    H2 8876   1.248   2.861   7.108
  888ACTN    H3 8877   1.358   2.774   7.218
  888ACTN    H4 8878   1.010   2.632   7.071
  888ACTN    H5 8879   1.118   2.572   6.950
  888ACTN    H6 8880   1.096   2.747   6.966
  889ACTN    C1 8881   6.503   7.238   1.976
  889ACTN    O1 8882   6.357   7.114   2.120
  889ACTN    C2 8883   6.386   7.223   2.070
  889ACTN    C3 8884   6.279   7.323   2.071
  889ACTN    H1 8885   6.584   7.295   2.021
  889ACTN    H2 8886   6.469   7.288   1.887
  889ACTN    H3 8887   6.543   7.139   1.951
  889ACTN    H4 8888   6.300   7.389   2.155
  889ACTN    H5 8889   6.182   7.280   2.094
  889ACTN    H6 8890   6.272   7.381   1.980
  890ACTN    C1 8891   1.899   4.536   3.935
  890ACTN    O1 8892   2.000   4.752   3.907
  890ACTN    C2 8893   2.013   4.628   3.900
  890ACTN    C3 8894   2.124   4.582   3.818
  890ACTN    H1 8895   1.918   4.482   4.028
  890ACTN    H2 8896   1.887   4.465   3.854
  890ACTN    H3 8897   1.807   4.593   3.950
  890ACTN    H4 8898   2.205   4.557   3.888
  890ACTN    H5 8899   2.166   4.660   3.755
  890ACTN    H6 8900   2.101   4.495   3.757
  891ACTN    C1 8901   7.403   1.832   3.924
  891ACTN    O1 8902   7.486   1.967   4.104
  891ACTN    C2 8903   7.400   1.951   4.016
  891ACTN    C3 8904   7.276   2.027   4.035
  891ACTN    H1 8905   7.428   1.860   3.822
  891ACTN    H2 8906   7.305   1.785   3.925
  891ACTN    H3 8907   7.479   1.760   3.958
  891ACTN    H4 8908   7.284   2.114   3.970
  891ACTN    H5 8909   7.268   2.068   4.136
  891ACTN    H6 8910   7.187   1.972   4.011
  892ACTN    C1 8911   4.707   4.652   4.952
  892ACTN    O1 8912   4.939   4.702   4.915
  892ACTN    C2 8913   4.830   4.667   4.867
  892ACTN    C3 8914   4.818   4.683   4.722
  892ACTN    H1 8915   4.677   4.548   4.963
  892ACTN    H2 8916   4.626   4.707   4.906
  892ACTN    H3 8917   4.727   4.691   5.053
  892ACTN    H4 8918   4.836   4.585   4.679
  892ACTN    H5 8919   4.897   4.747   4.680
  892ACTN    H6 8920   4.722   4.720   4.689
  893ACTN    C1 8921   1.590   1.543   5.728
  893ACTN    O1 8922   1.544   1.743   5.853
  893ACTN    C2 8923   1.543   1.685   5.743
  893ACTN    C3 8924   1.457   1.746   5.641
  893ACTN    H1 8925   1.684   1.537   5.673
  893ACTN    H2 8926   1.514   1.487   5.676
  893ACTN    H3 8927   1.608   1.499   5.827
  893ACTN    H4 8928   1.522   1.805   5.577
  893ACTN    H5 8929   1.386   1.818   5.684
  893ACTN    H6 8930   1.402   1.674   5.582
  894ACTN    C1 8931   2.991   7.048   7.559
  894ACTN    O1 8932   2.944   6.825   7.481
  894ACTN    C2 8933   2.941   6.947   7.459
  894ACTN    C3 8934   2.927   6.984   7.317
  894ACTN    H1 8935   2.910   7.106   7.602
  894ACTN    H2 8936   3.060   7.115   7.509
  894ACTN    H3 8937   3.042   6.996   7.641
  894ACTN    H4 8938   2.821   7.008   7.303
  894ACTN    H5 8939   2.946   6.900   7.250
  894ACTN    H6 8940   2.987   7.068   7.287
  895ACTN    C1 8941   7.018   3.194   0.318
  895ACTN    O1 8942   6.929   3.395   0.413
  895ACTN    C2 8943   7.002   3.295   0.427
  895ACTN    C3 8944   7.100   3.305   0.536
  895ACTN    H1 8945   6.971   3.099   0.342
  895ACTN    H2 8946   7.125   3.178   0.302
  895ACTN    H3 8947   6.972   3.231   0.225
  895ACTN    H4 8948   7.057   3.250   0.620
  895ACTN    H5 8949   7.112   3.407   0.572
  895ACTN    H6 8950   7.197   3.264   0.511
  896ACTN    C1 8951   5.818   4.148   0.151
  896ACTN    O1 8952   5.875   3.925   0.081
  896ACTN    C2 8953   5.911   4.043   0.096
  896ACTN    C3 8954   6.056   4.064   0.099
  896ACTN    H1 8955   5.789   4.221   0.076
  896ACTN    H2 8956   5.868   4.199   0.233
  896ACTN    H3 8957   5.726   4.100   0.188
  896ACTN    H4 8958   6.084   4.099  -0.000
  896ACTN    H5 8959   6.112   3.971   0.112
  896ACTN    H6 8960   6.089   4.136   0.174
  897ACTN    C1 8961   2.920   0.902   3.924
  897ACTN    O1 8962   2.709   0.851   3.822
  897ACTN    C2 8963   2.780   0.935   3.879
  897ACTN    C3 8964   2.738   1.075   3.863
  897ACTN    H1 8965   2.928   0.897   4.032
  897ACTN    H2 8966   2.987   0.979   3.887
  897ACTN    H3 8967   2.950   0.804   3.884
  897ACTN    H4 8968   2.684   1.101   3.953
  897ACTN    H5 8969   2.665   1.087   3.782
  897ACTN    H6 8970   2.820   1.144   3.848
  898ACTN    C1 8971   3.991   0.941   5.117
  898ACTN    O1 8972   3.911   0.811   4.932
  898ACTN    C2 8973   3.917   0.922   4.988
  898ACTN    C3 8974   3.887   1.037   4.902
  898ACTN    H1 8975   3.923   0.961   5.200
  898ACTN    H2 8976   4.059   1.025   5.106
  898ACTN    H3 8977   4.048   0.850   5.141
  898ACTN    H4 8978   3.784   1.064   4.923
  898ACTN    H5 8979   3.888   1.011   4.795
  898ACTN    H6 8980   3.951   1.122   4.918
  899ACTN    C1 8981   7.622   5.321   4.429
  899ACTN    O1 8982   7.507   5.531   4.444
  899ACTN    C2 8983   7.613   5.470   4.420
  899ACTN    C3 8984   7.712   5.547   4.342
  899ACTN    H1 8985   7.684   5.289   4.513
  899ACTN    H2 8986   7.666   5.284   4.337
  899ACTN    H3 8987   7.522   5.278   4.443
  899ACTN    H4 8988   7.784   5.585   4.414
  899ACTN    H5 8989   7.669   5.636   4.296
  899ACTN    H6 8990   7.763   5.489   4.267
  900ACTN    C1 8991   6.046   0.752   3.310
  900ACTN    O1 8992   5.812   0.781   3.351
  900ACTN    C2 8993   5.904   0.772   3.268
  900ACTN    C3 8994   5.862   0.740   3.131
  900ACTN    H1 8995   6.108   0.840   3.292
  900ACTN    H2 8996   6.087   0.668   3.255
  900ACTN    H3 8997   6.051   0.731   3.418
  900ACTN    H4 8998   5.861   0.834   3.076
  900ACTN    H5 8999   5.758   0.704   3.127
  900ACTN    H6 9000   5.926   0.669   3.081
  901ACTN    C1 9001   7.914   0.605   7.310
  901ACTN    O1 9002   7.731   0.468   7.238
  901ACTN    C2 9003   7.802   0.567   7.217
  901ACTN    C3 9004   7.800   0.617   7.079
  901ACTN    H1 9005   7.892   0.696   7.365
  901ACTN    H2 9006   8.004   0.618   7.252
  901ACTN    H3 9007   7.929   0.525   7.384
  901ACTN    H4 9008   7.733   0.702   7.079
  901ACTN    H5 9009   7.756   0.546   7.009
  901ACTN    H6 9010   7.897   0.648   7.042
  902ACTN    C1 9011   5.193   2.050   4.918
  902ACTN    O1 9012   5.404   2.069   4.805
  902ACTN    C2 9013   5.329   2.001   4.878
  902ACTN    C3 9014   5.362   1.858   4.884
  902ACTN    H1 9015   5.189   2.073   5.024
  902ACTN    H2 9016   5.121   1.972   4.896
  902ACTN    H3 9017   5.168   2.141   4.863
  902ACTN    H4 9018   5.417   1.844   4.977
  902ACTN    H5 9019   5.432   1.827   4.805
  902ACTN    H6 9020   5.276   1.793   4.882
  903ACTN    C1 9021   5.413   2.045   6.985
  903ACTN    O1 9022   5.281   1.854   6.924
  903ACTN    C2 9023   5.286   1.965   6.980
  903ACTN    C3 9024   5.156   2.030   6.999
  903ACTN    H1 9025   5.453   2.050   7.086
  903ACTN    H2 9026   5.392   2.145   6.949
  903ACTN    H3 9027   5.490   1.998   6.922
  903ACTN    H4 9028   5.128   2.012   7.103
  903ACTN    H5 9029   5.076   1.983   6.941
  903ACTN    H6 9030   5.157   2.136   6.979
  904ACTN    C1 9031   3.048   6.626   3.913
  904ACTN    O1 9032   2.864   6.511   4.017
  904ACTN    C2 9033   2.976   6.503   3.963
  904ACTN    C3 9034   3.050   6.380   3.991
  904ACTN    H1 9035   3.053   6.628   3.805
  904ACTN    H2 9036   3.148   6.625   3.954
  904ACTN    H3 9037   2.995   6.716   3.946
  904ACTN    H4 9038   3.036   6.316   3.903
  904ACTN    H5 9039   3.007   6.323   4.074
  904ACTN    H6 9040   3.155   6.394   4.008
  905ACTN    C1 9041   7.519   7.740   1.442
  905ACTN    O1 9042   7.639   7.940   1.499
  905ACTN    C2 9043   7.555   7.855   1.532
  905ACTN    C3 9044   7.526   7.848   1.676
  905ACTN    H1 9045   7.418   7.750   1.402
  905ACTN    H2 9046   7.526   7.648   1.499
  905ACTN    H3 9047   7.588   7.737   1.357
  905ACTN    H4 9048   7.434   7.904   1.691
  905ACTN    H5 9049   7.601   7.901   1.736
  905ACTN    H6 9050   7.515   7.748   1.714
  906ACTN    C1 9051   5.623   5.108   5.289
  906ACTN    O1 9052   5.727   5.324   5.273
  906ACTN    C2 9053   5.650   5.249   5.335
  906ACTN    C3 9054   5.622   5.289   5.473
  906ACTN    H1 9055   5.522   5.096   5.251
  906ACTN    H2 9056   5.638   5.042   5.373
  906ACTN    H3 9057   5.692   5.082   5.208
  906ACTN    H4 9058   5.525   5.339   5.471
  906ACTN    H5 9059   5.692   5.365   5.510
  906ACTN    H6 9060   5.619   5.206   5.543
  907ACTN    C1 9061   1.802   7.620   1.027
  907ACTN    O1 9062   1.613   7.740   0.941
  907ACTN    C2 9063   1.729   7.699   0.922
  907ACTN    C3 9064   1.771   7.693   0.782
  907ACTN    H1 9065   1.885   7.677   1.070
  907ACTN    H2 9066   1.841   7.530   0.981
  907ACTN    H3 9067   1.734   7.594   1.109
  907ACTN    H4 9068   1.831   7.782   0.765
  907ACTN    H5 9069   1.687   7.702   0.712
  907ACTN    H6 9070   1.829   7.605   0.757
  908ACTN    C1 9071   0.526   0.441   2.590
  908ACTN    O1 9072   0.450   0.626   2.457
  908ACTN    C2 9073   0.429   0.550   2.554
  908ACTN    C3 9074   0.333   0.600   2.652
  908ACTN    H1 9075   0.485   0.342   2.570
  908ACTN    H2 9076   0.549   0.450   2.696
  908ACTN    H3 9077   0.618   0.451   2.531
  908ACTN    H4 9078   0.239   0.549   2.631
  908ACTN    H5 9079   0.311   0.706   2.640
  908ACTN    H6 9080   0.361   0.581   2.755
  909ACTN    C1 9081   7.464   3.426   1.956
  909ACTN    O1 9082   7.354   3.546   1.779
  909ACTN    C2 9083   7.445   3.468   1.813
  909ACTN    C3 9084   7.502   3.388   1.704
  909ACTN    H1 9085   7.554   3.468   1.999
  909ACTN    H2 9086   7.469   3.318   1.959
  909ACTN    H3 9087   7.379   3.461   2.016
  909ACTN    H4 9088   7.594   3.437   1.675
  909ACTN    H5 9089   7.440   3.390   1.613
  909ACTN    H6 9090   7.522   3.285   1.730
  910ACTN    C1 9091   5.598   0.232   0.353
  910ACTN    O1 9092   5.638   0.197   0.119
  910ACTN    C2 9093   5.675   0.177   0.236
  910ACTN    C3 9094   5.768   0.065   0.254
  910ACTN    H1 9095   5.653   0.312   0.403
  910ACTN    H2 9096   5.580   0.152   0.423
  910ACTN    H3 9097   5.503   0.275   0.319
  910ACTN    H4 9098   5.867   0.109   0.261
  910ACTN    H5 9099   5.773   0.000   0.166
  910ACTN    H6 9100   5.749   0.006   0.342
  911ACTN    C1 9101   5.881   7.334   2.053
  911ACTN    O1 9102   5.791   7.345   1.830
  911ACTN    C2 9103   5.770   7.330   1.952
  911ACTN    C3 9104   5.631   7.351   1.993
  911ACTN    H1 9105   5.900   7.236   2.096
  911ACTN    H2 9106   5.853   7.403   2.131
  911ACTN    H3 9107   5.974   7.367   2.004
  911ACTN    H4 9108   5.587   7.252   2.003
  911ACTN    H5 9109   5.571   7.401   1.916
  911ACTN    H6 9110   5.620   7.404   2.087
  912ACTN    C1 9111   0.906   6.991   5.302
  912ACTN    O1 9112   0.765   7.178   5.251
  912ACTN    C2 9113   0.835   7.085   5.209
  912ACTN    C3 9114   0.809   7.046   5.070
  912ACTN    H1 9115   1.014   7.004   5.298
  912ACTN    H2 9116   0.882   6.889   5.273
  912ACTN    H3 9117   0.874   7.009   5.405
  912ACTN    H4 9118   0.887   7.093   5.010
  912ACTN    H5 9119   0.715   7.088   5.031
  912ACTN    H6 9120   0.809   6.939   5.053
  913ACTN    C1 9121   4.860   7.541   1.846
  913ACTN    O1 9122   4.753   7.367   1.972
  913ACTN    C2 9123   4.848   7.401   1.899
  913ACTN    C3 9124   4.965   7.313   1.905
  913ACTN    H1 9125   4.844   7.545   1.739
  913ACTN    H2 9126   4.960   7.577   1.868
  913ACTN    H3 9127   4.786   7.606   1.893
  913ACTN    H4 9128   4.959   7.249   1.817
  913ACTN    H5 9129   4.962   7.244   1.990
  913ACTN    H6 9130   5.060   7.365   1.905
  914ACTN    C1 9131   2.939   4.832   0.159
  914ACTN    O1 9132   2.785   4.924  -0.000
  914ACTN    C2 9133   2.823   4.825   0.064
  914ACTN    C3 9134   2.724   4.717   0.075
  914ACTN    H1 9135   3.025   4.776   0.123
  914ACTN    H2 9136   2.908   4.790   0.254
  914ACTN    H3 9137   2.970   4.936   0.173
  914ACTN    H4 9138   2.752   4.643  -0.000
  914ACTN    H5 9139   2.624   4.749   0.046
  914ACTN    H6 9140   2.720   4.670   0.172
  915ACTN    C1 9141   7.610   0.093   4.076
  915ACTN    O1 9142   7.785   0.258   4.080
  915ACTN    C2 9143   7.671   0.224   4.118
  915ACTN    C3 9144   7.621   0.296   4.235
  915ACTN    H1 9145   7.527   0.107   4.008
  915ACTN    H2 9146   7.575   0.042   4.165
  915ACTN    H3 9147   7.685   0.032   4.025
  915ACTN    H4 9148   7.554   0.373   4.197
  915ACTN    H5 9149   7.699   0.351   4.288
  915ACTN    H6 9150   7.569   0.233   4.306
  916ACTN    C1 9151   5.562   4.891   1.266
  916ACTN    O1 9152   5.437   4.709   1.171
  916ACTN    C2 9153   5.483   4.824   1.157
  916ACTN    C3 9154   5.493   4.870   1.018
  916ACTN    H1 9155   5.507   4.974   1.310
  916ACTN    H2 9156   5.654   4.928   1.223
  916ACTN    H3 9157   5.583   4.820   1.346
  916ACTN    H4 9158   5.406   4.933   1.001
  916ACTN    H5 9159   5.482   4.788   0.946
  916ACTN    H6 9160   5.583   4.925   0.996
  917ACTN    C1 9161   2.335   2.240   7.938
  917ACTN    O1 9162   2.536   2.296   7.820
  917ACTN    C2 9163   2.415   2.317   7.837
  917ACTN    C3 9164   2.367   2.447   7.787
  917ACTN    H1 9165   2.263   2.173   7.890
  917ACTN    H2 9166   2.281   2.310   8.000
  917ACTN    H3 9167   2.401   2.179   7.999
  917ACTN    H4 9168   2.320   2.426   7.691
  917ACTN    H5 9169   2.448   2.516   7.764
  917ACTN    H6 9170   2.296   2.495   7.852
  918ACTN    C1 9171   6.223   1.406   2.175
  918ACTN    O1 9172   6.284   1.197   2.276
  918ACTN    C2 9173   6.310   1.285   2.191
  918ACTN    C3 9174   6.448   1.284   2.142
  918ACTN    H1 9175   6.169   1.405   2.080
  918ACTN    H2 9176   6.287   1.494   2.178
  918ACTN    H3 9177   6.149   1.411   2.255
  918ACTN    H4 9178   6.446   1.234   2.046
  918ACTN    H5 9179   6.515   1.224   2.204
  918ACTN    H6 9180   6.491   1.383   2.130
  919ACTN    C1 9181   4.655   1.327   5.077
  919ACTN    O1 9182   4.434   1.237   5.048
  919ACTN    C2 9183   4.531   1.297   4.998
  919ACTN    C3 9184   4.535   1.296   4.851
  919ACTN    H1 9185   4.666   1.433   5.097
  919ACTN    H2 9186   4.741   1.292   5.021
  919ACTN    H3 9187   4.651   1.276   5.174
  919ACTN    H4 9188   4.496   1.393   4.820
  919ACTN    H5 9189   4.465   1.224   4.808
  919ACTN    H6 9190   4.633   1.281   4.810
  920ACTN    C1 9191   2.806   4.241   1.339
  920ACTN    O1 9192   2.679   4.168   1.529
  920ACTN    C2 9193   2.680   4.227   1.419
  920ACTN    C3 9194   2.549   4.241   1.355
  920ACTN    H1 9195   2.841   4.344   1.336
  920ACTN    H2 9196   2.786   4.207   1.238
  920ACTN    H3 9197   2.886   4.180   1.383
  920ACTN    H4 9198   2.516   4.343   1.376
  920ACTN    H5 9199   2.473   4.178   1.401
  920ACTN    H6 9200   2.550   4.225   1.248
  921ACTN    C1 9201   1.481   1.429   0.315
  921ACTN    O1 9202   1.508   1.463   0.079
  921ACTN    C2 9203   1.493   1.514   0.192
  921ACTN    C3 9204   1.533   1.654   0.202
  921ACTN    H1 9205   1.381   1.433   0.357
  921ACTN    H2 9206   1.552   1.464   0.389
  921ACTN    H3 9207   1.502   1.324   0.290
  921ACTN    H4 9208   1.441   1.712   0.197
  921ACTN    H5 9209   1.592   1.688   0.116
  921ACTN    H6 9210   1.586   1.679   0.293
  922ACTN    C1 9211   4.891   1.457   0.317
  922ACTN    O1 9212   4.853   1.638   0.470
  922ACTN    C2 9213   4.814   1.529   0.424
  922ACTN    C3 9214   4.717   1.458   0.507
  922ACTN    H1 9215   4.839   1.457   0.222
  922ACTN    H2 9216   4.906   1.354   0.350
  922ACTN    H3 9217   4.988   1.505   0.302
  922ACTN    H4 9218   4.619   1.478   0.464
  922ACTN    H5 9219   4.711   1.498   0.609
  922ACTN    H6 9220   4.733   1.351   0.512
  923ACTN    C1 9221   5.720   0.687   4.426
  923ACTN    O1 9222   5.529   0.803   4.512
  923ACTN    C2 9223   5.592   0.764   4.413
  923ACTN    C3 9224   5.515   0.759   4.288
  923ACTN    H1 9225   5.807   0.745   4.394
  923ACTN    H2 9226   5.713   0.598   4.366
  923ACTN    H3 9227   5.737   0.660   4.531
  923ACTN    H4 9228   5.541   0.850   4.233
  923ACTN    H5 9229   5.407   0.767   4.305
  923ACTN    H6 9230   5.535   0.672   4.227
  924ACTN    C1 9231   3.622   6.520   0.515
  924ACTN    O1 9232   3.427   6.382   0.511
  924ACTN    C2 9233   3.480   6.490   0.480
  924ACTN    C3 9234   3.412   6.563   0.373
  924ACTN    H1 9235   3.630   6.598   0.591
  924ACTN    H2 9236   3.674   6.553   0.425
  924ACTN    H3 9237   3.671   6.431   0.555
  924ACTN    H4 9238   3.352   6.640   0.421
  924ACTN    H5 9239   3.339   6.502   0.319
  924ACTN    H6 9240   3.479   6.609   0.301
  925ACTN    C1 9241   3.164   4.476   3.789
  925ACTN    O1 9242   3.217   4.675   3.912
  925ACTN    C2 9243   3.145   4.620   3.827
  925ACTN    C3 9244   3.018   4.688   3.799
  925ACTN    H1 9245   3.202   4.465   3.688
  925ACTN    H2 9246   3.068   4.426   3.796
  925ACTN    H3 9247   3.235   4.429   3.857
  925ACTN    H4 9248   3.033   4.745   3.707
  925ACTN    H5 9249   2.994   4.764   3.874
  925ACTN    H6 9250   2.934   4.622   3.787
  926ACTN    C1 9251   1.605   2.980   2.259
  926ACTN    O1 9252   1.532   2.951   2.032
  926ACTN    C2 9253   1.625   2.979   2.110
  926ACTN    C3 9254   1.760   2.968   2.052
  926ACTN    H1 9255   1.609   3.080   2.300
  926ACTN    H2 9256   1.684   2.920   2.304
  926ACTN    H3 9257   1.507   2.938   2.284
  926ACTN    H4 9258   1.790   3.070   2.026
  926ACTN    H5 9259   1.760   2.914   1.957
  926ACTN    H6 9260   1.832   2.925   2.119
  927ACTN    C1 9261   1.829   3.239   0.294
  927ACTN    O1 9262   2.023   3.363   0.224
  927ACTN    C2 9263   1.975   3.276   0.299
  927ACTN    C3 9264   2.073   3.185   0.359
  927ACTN    H1 9265   1.776   3.272   0.383
  927ACTN    H2 9266   1.822   3.131   0.286
  927ACTN    H3 9267   1.781   3.287   0.208
  927ACTN    H4 9268   2.090   3.222   0.461
  927ACTN    H5 9269   2.171   3.191   0.311
  927ACTN    H6 9270   2.041   3.082   0.363
  928ACTN    C1 9271   6.473   1.529   2.992
  928ACTN    O1 9272   6.459   1.505   3.230
  928ACTN    C2 9273   6.524   1.483   3.126
  928ACTN    C3 9274   6.665   1.452   3.146
  928ACTN    H1 9275   6.444   1.445   2.929
  928ACTN    H2 9276   6.553   1.584   2.943
  928ACTN    H3 9277   6.386   1.594   3.005
  928ACTN    H4 9278   6.674   1.344   3.139
  928ACTN    H5 9279   6.700   1.476   3.247
  928ACTN    H6 9280   6.731   1.499   3.074
  929ACTN    C1 9281   7.145   2.625   5.558
  929ACTN    O1 9282   7.038   2.799   5.683
  929ACTN    C2 9283   7.093   2.687   5.684
  929ACTN    C3 9284   7.141   2.643   5.815
  929ACTN    H1 9285   7.086   2.538   5.528
  929ACTN    H2 9286   7.248   2.593   5.575
  929ACTN    H3 9287   7.142   2.697   5.475
  929ACTN    H4 9288   7.066   2.574   5.853
  929ACTN    H5 9289   7.144   2.724   5.888
  929ACTN    H6 9290   7.237   2.593   5.812
  930ACTN    C1 9291   5.947   5.741   2.262
  930ACTN    O1 9292   5.940   5.509   2.203
  930ACTN    C2 9293   5.877   5.612   2.231
  930ACTN    C3 9294   5.736   5.612   2.189
  930ACTN    H1 9295   5.936   5.769   2.367
  930ACTN    H2 9296   5.904   5.819   2.201
  930ACTN    H3 9297   6.054   5.732   2.241
  930ACTN    H4 9298   5.678   5.587   2.279
  930ACTN    H5 9299   5.713   5.531   2.119
  930ACTN    H6 9300   5.702   5.706   2.148
  931ACTN    C1 9301   7.234   6.916   1.573
  931ACTN    O1 9302   7.436   6.897   1.444
  931ACTN    C2 9303   7.324   6.950   1.457
  931ACTN    C3 9304   7.304   7.074   1.381
  931ACTN    H1 9305   7.147   6.860   1.541
  931ACTN    H2 9306   7.202   7.009   1.619
  931ACTN    H3 9307   7.289   6.855   1.645
  931ACTN    H4 9308   7.248   7.046   1.292
  931ACTN    H5 9309   7.398   7.115   1.343
  931ACTN    H6 9310   7.251   7.151   1.435
  932ACTN    C1 9311   4.218   3.334   7.562
  932ACTN    O1 9312   4.369   3.333   7.748
  932ACTN    C2 9313   4.312   3.268   7.658
  932ACTN    C3 9314   4.374   3.139   7.626
  932ACTN    H1 9315   4.115   3.303   7.578
  932ACTN    H2 9316   4.248   3.307   7.461
  932ACTN    H3 9317   4.222   3.443   7.574
  932ACTN    H4 9318   4.315   3.064   7.678
  932ACTN    H5 9319   4.475   3.129   7.668
  932ACTN    H6 9320   4.377   3.117   7.520
  933ACTN    C1 9321   5.825   3.479   0.262
  933ACTN    O1 9322   5.623   3.366   0.326
  933ACTN    C2 9323   5.700   3.462   0.344
  933ACTN    C3 9324   5.641   3.576   0.415
  933ACTN    H1 9325   5.915   3.463   0.321
  933ACTN    H2 9326   5.826   3.580   0.222
  933ACTN    H3 9327   5.826   3.406   0.180
  933ACTN    H4 9328   5.674   3.568   0.518
  933ACTN    H5 9329   5.532   3.570   0.420
  933ACTN    H6 9330   5.669   3.672   0.375
  934ACTN    C1 9331   5.767   7.628   6.681
  934ACTN    O1 9332   5.727   7.862   6.716
  934ACTN    C2 9333   5.801   7.774   6.669
  934ACTN    C3 9334   5.896   7.820   6.568
  934ACTN    H1 9335   5.835   7.576   6.749
  934ACTN    H2 9336   5.774   7.583   6.583
  934ACTN    H3 9337   5.666   7.616   6.721
  934ACTN    H4 9338   5.991   7.832   6.618
  934ACTN    H5 9339   5.872   7.920   6.530
  934ACTN    H6 9340   5.907   7.753   6.484
  935ACTN    C1 9341   6.933   4.302   1.490
  935ACTN    O1 9342   6.745   4.159   1.531
  935ACTN    C2 9343   6.800   4.268   1.551
  935ACTN    C3 9344   6.712   4.375   1.600
  935ACTN    H1 9345   7.012   4.306   1.564
  935ACTN    H2 9346   6.925   4.398   1.440
  935ACTN    H3 9347   6.961   4.225   1.417
  935ACTN    H4 9348   6.727   4.380   1.707
  935ACTN    H5 9349   6.606   4.350   1.588
  935ACTN    H6 9350   6.731   4.471   1.555
  936ACTN    C1 9351   4.055   5.067   7.514
  936ACTN    O1 9352   4.273   5.016   7.600
  936ACTN    C2 9353   4.149   5.006   7.613
  936ACTN    C3 9354   4.105   4.898   7.702
  936ACTN    H1 9355   4.001   5.151   7.556
  936ACTN    H2 9356   3.984   4.991   7.482
  936ACTN    H3 9357   4.110   5.104   7.426
  936ACTN    H4 9358   4.082   4.946   7.797
  936ACTN    H5 9359   4.184   4.827   7.725
  936ACTN    H6 9360   4.018   4.845   7.666
  937ACTN    C1 9361   0.317   7.108   7.125
  937ACTN    O1 9362   0.239   6.896   7.043
  937ACTN    C2 9363   0.317   6.957   7.119
  937ACTN    C3 9364   0.373   6.878   7.228
  937ACTN    H1 9365   0.407   7.150   7.082
  937ACTN    H2 9366   0.309   7.137   7.229
  937ACTN    H3 9367   0.232   7.148   7.069
  937ACTN    H4 9368   0.474   6.850   7.196
  937ACTN    H5 9369   0.322   6.783   7.242
  937ACTN    H6 9370   0.379   6.931   7.322
  938ACTN    C1 9371   5.456   6.182   0.394
  938ACTN    O1 9372   5.660   6.137   0.276
  938ACTN    C2 9373   5.605   6.162   0.384
  938ACTN    C3 9374   5.683   6.129   0.503
  938ACTN    H1 9375   5.431   6.286   0.415
  938ACTN    H2 9376   5.418   6.118   0.473
  938ACTN    H3 9377   5.409   6.156   0.298
  938ACTN    H4 9378   5.728   6.222   0.538
  938ACTN    H5 9379   5.769   6.064   0.481
  938ACTN    H6 9380   5.626   6.084   0.583
  939ACTN    C1 9381   6.014   4.332   5.084
  939ACTN    O1 9382   6.016   4.105   5.162
  939ACTN    C2 9383   5.968   4.189   5.084
  939ACTN    C3 9384   5.901   4.133   4.966
  939ACTN    H1 9385   5.936   4.399   5.121
  939ACTN    H2 9386   6.040   4.360   4.983
  939ACTN    H3 9387   6.101   4.343   5.150
  939ACTN    H4 9388   5.794   4.136   4.988
  939ACTN    H5 9389   5.923   4.027   4.951
  939ACTN    H6 9390   5.921   4.186   4.874
  940ACTN    C1 9391   4.848   4.025   4.856
  940ACTN    O1 9392   4.767   4.251   4.854
  940ACTN    C2 9393   4.830   4.162   4.915
  940ACTN    C3 9394   4.918   4.210   5.022
  940ACTN    H1 9395   4.791   3.950   4.910
  940ACTN    H2 9396   4.954   4.000   4.860
  940ACTN    H3 9397   4.814   4.024   4.752
  940ACTN    H4 9398   4.864   4.194   5.115
  940ACTN    H5 9399   4.935   4.318   5.017
  940ACTN    H6 9400   5.013   4.159   5.026
  941ACTN    C1 9401   6.951   3.818   2.482
  941ACTN    O1 9402   7.033   3.760   2.701
  941ACTN    C2 9403   6.944   3.747   2.614
  941ACTN    C3 9404   6.859   3.629   2.631
  941ACTN    H1 9405   6.876   3.896   2.473
  941ACTN    H2 9406   6.937   3.744   2.403
  941ACTN    H3 9407   7.049   3.865   2.471
  941ACTN    H4 9408   6.767   3.664   2.678
  941ACTN    H5 9409   6.900   3.557   2.702
  941ACTN    H6 9410   6.835   3.578   2.539
  942ACTN    C1 9411   3.845   2.336   7.192
  942ACTN    O1 9412   3.795   2.104   7.229
  942ACTN    C2 9413   3.753   2.220   7.221
  942ACTN    C3 9414   3.609   2.233   7.200
  942ACTN    H1 9415   3.858   2.401   7.278
  942ACTN    H2 9416   3.803   2.393   7.110
  942ACTN    H3 9417   3.944   2.298   7.164
  942ACTN    H4 9418   3.565   2.255   7.297
  942ACTN    H5 9419   3.562   2.139   7.169
  942ACTN    H6 9420   3.581   2.310   7.129
  943ACTN    C1 9421   2.571   2.068   0.276
  943ACTN    O1 9422   2.358   2.176   0.301
  943ACTN    C2 9423   2.476   2.183   0.261
  943ACTN    C3 9424   2.502   2.289   0.164
  943ACTN    H1 9425   2.649   2.088   0.349
  943ACTN    H2 9426   2.617   2.048   0.180
  943ACTN    H3 9427   2.517   1.978   0.310
  943ACTN    H4 9428   2.547   2.371   0.220
  943ACTN    H5 9429   2.411   2.331   0.122
  943ACTN    H6 9430   2.568   2.260   0.083
  944ACTN    C1 9431   2.235   1.851   7.295
  944ACTN    O1 9432   2.465   1.888   7.351
  944ACTN    C2 9433   2.349   1.931   7.351
  944ACTN    C3 9434   2.323   2.042   7.444
  944ACTN    H1 9435   2.196   1.894   7.203
  944ACTN    H2 9436   2.156   1.848   7.369
  944ACTN    H3 9437   2.269   1.749   7.272
  944ACTN    H4 9438   2.326   2.133   7.385
  944ACTN    H5 9439   2.403   2.054   7.517
  944ACTN    H6 9440   2.228   2.035   7.496
  945ACTN    C1 9441   1.247   7.502   1.203
  945ACTN    O1 9442   1.360   7.713   1.186
  945ACTN    C2 9443   1.357   7.599   1.235
  945ACTN    C3 9444   1.485   7.551   1.287
  945ACTN    H1 9445   1.182   7.484   1.289
  945ACTN    H2 9446   1.291   7.408   1.172
  945ACTN    H3 9447   1.184   7.542   1.122
  945ACTN    H4 9448   1.481   7.566   1.395
  945ACTN    H5 9449   1.570   7.612   1.254
  945ACTN    H6 9450   1.506   7.447   1.266
  946ACTN    C1 9451   6.368   2.725   2.919
  946ACTN    O1 9452   6.184   2.805   2.787
  946ACTN    C2 9453   6.289   2.832   2.848
  946ACTN    C3 9454   6.351   2.959   2.812
  946ACTN    H1 9455   6.363   2.736   3.027
  946ACTN    H2 9456   6.471   2.733   2.887
  946ACTN    H3 9457   6.328   2.626   2.894
  946ACTN    H4 9458   6.322   3.030   2.890
  946ACTN    H5 9459   6.311   3.001   2.720
  946ACTN    H6 9460   6.459   2.955   2.805
  947ACTN    C1 9461   2.140   6.568   2.420
  947ACTN    O1 9462   2.314   6.432   2.514
  947ACTN    C2 9463   2.272   6.547   2.488
  947ACTN    C3 9464   2.334   6.654   2.566
  947ACTN    H1 9465   2.153   6.607   2.318
  947ACTN    H2 9466   2.083   6.640   2.478
  947ACTN    H3 9467   2.085   6.474   2.412
  947ACTN    H4 9468   2.409   6.699   2.500
  947ACTN    H5 9469   2.391   6.617   2.651
  947ACTN    H6 9470   2.265   6.730   2.599
  948ACTN    C1 9471   1.997   0.725   2.559
  948ACTN    O1 9472   2.190   0.582   2.565
  948ACTN    C2 9473   2.119   0.666   2.623
  948ACTN    C3 9474   2.136   0.670   2.769
  948ACTN    H1 9475   2.011   0.830   2.534
  948ACTN    H2 9476   1.914   0.715   2.628
  948ACTN    H3 9477   1.975   0.672   2.465
  948ACTN    H4 9478   2.201   0.755   2.789
  948ACTN    H5 9479   2.189   0.583   2.808
  948ACTN    H6 9480   2.043   0.683   2.824
  949ACTN    C1 9481   7.013   4.601   5.470
  949ACTN    O1 9482   6.853   4.773   5.421
  949ACTN    C2 9483   6.972   4.743   5.442
  949ACTN    C3 9484   7.070   4.842   5.397
  949ACTN    H1 9485   7.045   4.587   5.573
  949ACTN    H2 9486   7.095   4.576   5.403
  949ACTN    H3 9487   6.929   4.533   5.452
  949ACTN    H4 9488   7.100   4.898   5.486
  949ACTN    H5 9489   7.027   4.917   5.330
  949ACTN    H6 9490   7.158   4.799   5.351
  950ACTN    C1 9491   0.807   3.700   4.034
  950ACTN    O1 9492   0.623   3.582   4.133
  950ACTN    C2 9493   0.682   3.617   4.030
  950ACTN    C3 9494   0.649   3.538   3.910
  950ACTN    H1 9495   0.791   3.801   3.996
  950ACTN    H2 9496   0.883   3.651   3.973
  950ACTN    H3 9497   0.843   3.709   4.137
  950ACTN    H4 9498   0.577   3.597   3.854
  950ACTN    H5 9499   0.596   3.446   3.934
  950ACTN    H6 9500   0.734   3.516   3.848
  951ACTN    C1 9501   2.418   2.981   4.261
  951ACTN    O1 9502   2.535   3.179   4.331
  951ACTN    C2 9503   2.510   3.059   4.352
  951ACTN    C3 9504   2.604   2.990   4.439
  951ACTN    H1 9505   2.324   2.956   4.310
  951ACTN    H2 9506   2.469   2.890   4.232
  951ACTN    H3 9507   2.394   3.040   4.172
  951ACTN    H4 9508   2.558   2.986   4.538
  951ACTN    H5 9509   2.697   3.046   4.455
  951ACTN    H6 9510   2.629   2.889   4.407
  952ACTN    C1 9511   0.237   1.552   2.023
  952ACTN    O1 9512  -0.000   1.569   2.053
  952ACTN    C2 9513   0.108   1.527   2.096
  952ACTN    C3 9514   0.108   1.491   2.238
  952ACTN    H1 9515   0.278   1.461   1.980
  952ACTN    H2 9516   0.309   1.593   2.094
  952ACTN    H3 9517   0.221   1.623   1.942
  952ACTN    H4 9518   0.098   1.382   2.242
  952ACTN    H5 9519   0.021   1.529   2.292
  952ACTN    H6 9520   0.198   1.520   2.291
  953ACTN    C1 9521   3.071   5.285   6.926
  953ACTN    O1 9522   3.305   5.328   6.962
  953ACTN    C2 9523   3.203   5.350   6.894
  953ACTN    C3 9524   3.208   5.472   6.813
  953ACTN    H1 9525   3.043   5.212   6.850
  953ACTN    H2 9526   2.995   5.362   6.931
  953ACTN    H3 9527   3.078   5.232   7.022
  953ACTN    H4 9528   3.233   5.440   6.712
  953ACTN    H5 9529   3.290   5.538   6.841
  953ACTN    H6 9530   3.115   5.528   6.811
  954ACTN    C1 9531   3.342   7.349   3.490
  954ACTN    O1 9532   3.397   7.578   3.440
  954ACTN    C2 9533   3.359   7.467   3.398
  954ACTN    C3 9534   3.293   7.469   3.267
  954ACTN    H1 9535   3.417   7.273   3.473
  954ACTN    H2 9536   3.244   7.307   3.474
  954ACTN    H3 9537   3.352   7.382   3.595
  954ACTN    H4 9538   3.368   7.439   3.195
  954ACTN    H5 9539   3.264   7.570   3.237
  954ACTN    H6 9540   3.207   7.404   3.260
  955ACTN    C1 9541   4.348   5.438   5.216
  955ACTN    O1 9542   4.210   5.343   5.045
  955ACTN    C2 9543   4.269   5.443   5.089
  955ACTN    C3 9544   4.292   5.550   4.991
  955ACTN    H1 9545   4.301   5.495   5.296
  955ACTN    H2 9546   4.447   5.480   5.197
  955ACTN    H3 9547   4.358   5.334   5.251
  955ACTN    H4 9548   4.214   5.624   5.008
  955ACTN    H5 9549   4.276   5.516   4.888
  955ACTN    H6 9550   4.389   5.596   4.999
  956ACTN    C1 9551   5.601   6.977   2.477
  956ACTN    O1 9552   5.435   7.149   2.495
  956ACTN    C2 9553   5.506   7.065   2.553
  956ACTN    C3 9554   5.524   7.088   2.697
  956ACTN    H1 9555   5.569   6.873   2.477
  956ACTN    H2 9556   5.699   6.984   2.524
  956ACTN    H3 9557   5.607   7.009   2.372
  956ACTN    H4 9558   5.455   7.021   2.747
  956ACTN    H5 9559   5.493   7.188   2.728
  956ACTN    H6 9560   5.625   7.069   2.732
  957ACTN    C1 9561   5.860   5.493   4.835
  957ACTN    O1 9562   5.781   5.647   4.669
  957ACTN    C2 9563   5.754   5.574   4.765
  957ACTN    C3 9564   5.628   5.604   4.833
  957ACTN    H1 9565   5.848   5.386   4.817
  957ACTN    H2 9566   5.854   5.512   4.941
  957ACTN    H3 9567   5.960   5.521   4.797
  957ACTN    H4 9568   5.556   5.531   4.795
  957ACTN    H5 9569   5.587   5.701   4.804
  957ACTN    H6 9570   5.633   5.598   4.941
  958ACTN    C1 9571   3.693   2.615   1.691
  958ACTN    O1 9572   3.717   2.489   1.894
  958ACTN    C2 9573   3.640   2.536   1.807
  958ACTN    C3 9574   3.507   2.475   1.802
  958ACTN    H1 9575   3.666   2.721   1.698
  958ACTN    H2 9576   3.651   2.574   1.600
  958ACTN    H3 9577   3.803   2.610   1.688
  958ACTN    H4 9578   3.441   2.543   1.855
  958ACTN    H5 9579   3.502   2.381   1.857
  958ACTN    H6 9580   3.470   2.459   1.702
  959ACTN    C1 9581   2.497   1.324   3.297
  959ACTN    O1 9582   2.571   1.347   3.069
  959ACTN    C2 9583   2.507   1.281   3.153
  959ACTN    C3 9584   2.410   1.186   3.097
  959ACTN    H1 9585   2.553   1.258   3.363
  959ACTN    H2 9586   2.392   1.324   3.325
  959ACTN    H3 9587   2.539   1.425   3.308
  959ACTN    H4 9588   2.458   1.088   3.099
  959ACTN    H5 9589   2.390   1.205   2.991
  959ACTN    H6 9590   2.317   1.182   3.151
  960ACTN    C1 9591   4.824   2.434   4.884
  960ACTN    O1 9592   5.046   2.526   4.881
  960ACTN    C2 9593   4.945   2.497   4.947
  960ACTN    C3 9594   4.967   2.488   5.092
  960ACTN    H1 9595   4.739   2.502   4.882
  960ACTN    H2 9596   4.798   2.346   4.942
  960ACTN    H3 9597   4.847   2.406   4.781
  960ACTN    H4 9598   4.932   2.582   5.134
  960ACTN    H5 9599   5.073   2.484   5.118
  960ACTN    H6 9600   4.915   2.405   5.139
  961ACTN    C1 9601   3.954   4.402   4.106
  961ACTN    O1 9602   3.758   4.527   4.046
  961ACTN    C2 9603   3.830   4.481   4.136
  961ACTN    C3 9604   3.812   4.544   4.267
  961ACTN    H1 9605   3.943   4.297   4.132
  961ACTN    H2 9606   4.036   4.444   4.162
  961ACTN    H3 9607   3.976   4.407   3.998
  961ACTN    H4 9608   3.748   4.477   4.325
  961ACTN    H5 9609   3.756   4.638   4.262
  961ACTN    H6 9610   3.904   4.560   4.321
  962ACTN    C1 9611   5.733   7.358   6.309
  962ACTN    O1 9612   5.959   7.356   6.230
  962ACTN    C2 9613   5.879   7.326   6.320
  962ACTN    C3 9614   5.927   7.223   6.413
  962ACTN    H1 9615   5.703   7.435   6.380
  962ACTN    H2 9616   5.677   7.267   6.330
  962ACTN    H3 9617   5.710   7.394   6.209
  962ACTN    H4 9618   5.962   7.276   6.502
  962ACTN    H5 9619   6.015   7.170   6.376
  962ACTN    H6 9620   5.851   7.151   6.441
  963ACTN    C1 9621   1.742   3.879   1.980
  963ACTN    O1 9622   1.904   4.027   1.882
  963ACTN    C2 9623   1.811   3.946   1.864
  963ACTN    C3 9624   1.746   3.954   1.733
  963ACTN    H1 9625   1.765   3.773   1.984
  963ACTN    H2 9626   1.635   3.892   1.968
  963ACTN    H3 9627   1.775   3.924   2.074
  963ACTN    H4 9628   1.789   3.873   1.674
  963ACTN    H5 9629   1.772   4.045   1.679
  963ACTN    H6 9630   1.639   3.944   1.736
  964ACTN    C1 9631   3.958   6.310   0.197
  964ACTN    O1 9632   3.910   6.122   0.338
  964ACTN    C2 9633   3.933   6.243   0.330
  964ACTN    C3 9634   3.892   6.323   0.446
  964ACTN    H1 9635   4.061   6.342   0.186
  964ACTN    H2 9636   3.892   6.396   0.189
  964ACTN    H3 9637   3.937   6.239   0.116
  964ACTN    H4 9638   3.982   6.339   0.504
  964ACTN    H5 9639   3.826   6.267   0.513
  964ACTN    H6 9640   3.847   6.418   0.421
  965ACTN    C1 9641   6.715   5.713   0.679
  965ACTN    O1 9642   6.571   5.811   0.844
  965ACTN    C2 9643   6.597   5.794   0.723
  965ACTN    C3 9644   6.486   5.821   0.631
  965ACTN    H1 9645   6.793   5.775   0.634
  965ACTN    H2 9646   6.681   5.640   0.606
  965ACTN    H3 9647   6.760   5.661   0.765
  965ACTN    H4 9648   6.503   5.921   0.591
  965ACTN    H5 9649   6.390   5.827   0.683
  965ACTN    H6 9650   6.478   5.750   0.550
  966ACTN    C1 9651   0.492   4.198   3.303
  966ACTN    O1 9652   0.458   4.068   3.501
  966ACTN    C2 9653   0.409   4.143   3.416
  966ACTN    C3 9654   0.263   4.140   3.406
  966ACTN    H1 9655   0.509   4.305   3.313
  966ACTN    H2 9656   0.440   4.179   3.210
  966ACTN    H3 9657   0.590   4.149   3.302
  966ACTN    H4 9658   0.227   4.227   3.461
  966ACTN    H5 9659   0.219   4.055   3.458
  966ACTN    H6 9660   0.226   4.143   3.305
  967ACTN    C1 9661   7.366   0.420   0.916
  967ACTN    O1 9662   7.163   0.294   0.895
  967ACTN    C2 9663   7.255   0.356   0.838
  967ACTN    C3 9664   7.272   0.324   0.696
  967ACTN    H1 9665   7.361   0.529   0.912
  967ACTN    H2 9666   7.461   0.388   0.874
  967ACTN    H3 9667   7.360   0.391   1.021
  967ACTN    H4 9668   7.224   0.405   0.641
  967ACTN    H5 9669   7.218   0.234   0.666
  967ACTN    H6 9670   7.375   0.316   0.665
  968ACTN    C1 9671   1.946   1.875   0.545
  968ACTN    O1 9672   1.757   1.860   0.397
  968ACTN    C2 9673   1.881   1.867   0.410
  968ACTN    C3 9674   1.958   1.822   0.293
  968ACTN    H1 9675   1.991   1.973   0.563
  968ACTN    H2 9676   2.023   1.799   0.551
  968ACTN    H3 9677   1.871   1.859   0.624
  968ACTN    H4 9678   1.988   1.913   0.241
  968ACTN    H5 9679   1.896   1.767   0.221
  968ACTN    H6 9680   2.045   1.764   0.318
  969ACTN    C1 9681   1.513   6.015   7.585
  969ACTN    O1 9682   1.294   5.960   7.666
  969ACTN    C2 9683   1.369   5.977   7.568
  969ACTN    C3 9684   1.322   5.918   7.443
  969ACTN    H1 9685   1.533   6.117   7.553
  969ACTN    H2 9686   1.574   5.947   7.527
  969ACTN    H3 9687   1.541   6.009   7.691
  969ACTN    H4 9688   1.278   5.998   7.385
  969ACTN    H5 9689   1.241   5.846   7.458
  969ACTN    H6 9690   1.401   5.871   7.385
  970ACTN    C1 9691   4.401   6.226   7.121
  970ACTN    O1 9692   4.170   6.265   7.071
  970ACTN    C2 9693   4.258   6.183   7.102
  970ACTN    C3 9694   4.210   6.058   7.159
  970ACTN    H1 9695   4.466   6.188   7.042
  970ACTN    H2 9696   4.436   6.188   7.216
  970ACTN    H3 9697   4.408   6.335   7.119
  970ACTN    H4 9698   4.212   5.985   7.078
  970ACTN    H5 9699   4.105   6.063   7.189
  970ACTN    H6 9700   4.269   6.022   7.242
  971ACTN    C1 9701   7.182   7.719   3.301
  971ACTN    O1 9702   6.976   7.602   3.266
  971ACTN    C2 9703   7.059   7.683   3.223
  971ACTN    C3 9704   7.053   7.708   3.078
  971ACTN    H1 9705   7.179   7.821   3.339
  971ACTN    H2 9706   7.269   7.708   3.236
  971ACTN    H3 9707   7.192   7.652   3.388
  971ACTN    H4 9708   6.999   7.801   3.066
  971ACTN    H5 9709   6.993   7.634   3.025
  971ACTN    H6 9710   7.150   7.716   3.031
  972ACTN    C1 9711   7.582   7.560   0.370
  972ACTN    O1 9712   7.377   7.468   0.286
  972ACTN    C2 9713   7.464   7.468   0.375
  972ACTN    C3 9714   7.422   7.407   0.502
  972ACTN    H1 9715   7.675   7.506   0.352
  972ACTN    H2 9716   7.589   7.612   0.465
  972ACTN    H3 9717   7.570   7.633   0.289
  972ACTN    H4 9718   7.463   7.306   0.502
  972ACTN    H5 9719   7.314   7.393   0.508
  972ACTN    H6 9720   7.456   7.460   0.590
  973ACTN    C1 9721   1.723   3.145   2.638
  973ACTN    O1 9722   1.952   3.071   2.631
  973ACTN    C2 9723   1.852   3.112   2.569
  973ACTN    C3 9724   1.881   3.166   2.435
  973ACTN    H1 9725   1.645   3.073   2.614
  973ACTN    H2 9726   1.692   3.244   2.608
  973ACTN    H3 9727   1.738   3.142   2.747
  973ACTN    H4 9728   1.857   3.087   2.365
  973ACTN    H5 9729   1.987   3.186   2.420
  973ACTN    H6 9730   1.825   3.256   2.411
  974ACTN    C1 9731   0.772   3.146   7.560
  974ACTN    O1 9732   0.908   3.178   7.365
  974ACTN    C2 9733   0.805   3.130   7.415
  974ACTN    C3 9734   0.700   3.096   7.318
  974ACTN    H1 9735   0.781   3.052   7.615
  974ACTN    H2 9736   0.671   3.184   7.569
  974ACTN    H3 9737   0.842   3.217   7.607
  974ACTN    H4 9738   0.707   2.989   7.302
  974ACTN    H5 9739   0.717   3.141   7.220
  974ACTN    H6 9740   0.600   3.121   7.351
  975ACTN    C1 9741   2.588   6.939   4.734
  975ACTN    O1 9742   2.622   6.714   4.656
  975ACTN    C2 9743   2.662   6.808   4.727
  975ACTN    C3 9744   2.757   6.771   4.832
  975ACTN    H1 9745   2.643   7.020   4.686
  975ACTN    H2 9746   2.573   6.964   4.839
  975ACTN    H3 9747   2.491   6.930   4.683
  975ACTN    H4 9748   2.856   6.795   4.793
  975ACTN    H5 9749   2.760   6.663   4.849
  975ACTN    H6 9750   2.741   6.822   4.926
  976ACTN    C1 9751   7.891   0.200   7.172
  976ACTN    O1 9752   7.941   0.204   6.937
  976ACTN    C2 9753   7.855   0.213   7.027
  976ACTN    C3 9754   7.729   0.277   6.986
  976ACTN    H1 9755   7.853   0.108   7.215
  976ACTN    H2 9756   7.849   0.285   7.225
  976ACTN    H3 9757   8.000   0.199   7.183
  976ACTN    H4 9758   7.659   0.197   6.967
  976ACTN    H5 9759   7.738   0.330   6.891
  976ACTN    H6 9760   7.689   0.344   7.061
  977ACTN    C1 9761   2.944   0.613   2.907
  977ACTN    O1 9762   2.782   0.717   3.050
  977ACTN    C2 9763   2.896   0.720   3.001
  977ACTN    C3 9764   2.961   0.851   3.004
  977ACTN    H1 9765   3.022   0.551   2.952
  977ACTN    H2 9766   2.984   0.661   2.818
  977ACTN    H3 9767   2.861   0.547   2.880
  977ACTN    H4 9768   3.030   0.849   3.088
  977ACTN    H5 9769   2.891   0.932   3.026
  977ACTN    H6 9770   3.016   0.876   2.914
  978ACTN    C1 9771   7.658   4.258   0.699
  978ACTN    O1 9772   7.535   4.126   0.858
  978ACTN    C2 9773   7.589   4.133   0.746
  978ACTN    C3 9774   7.618   4.004   0.683
  978ACTN    H1 9775   7.603   4.308   0.619
  978ACTN    H2 9776   7.756   4.232   0.664
  978ACTN    H3 9777   7.666   4.330   0.782
  978ACTN    H4 9778   7.538   3.987   0.611
  978ACTN    H5 9779   7.611   3.921   0.753
  978ACTN    H6 9780   7.713   4.001   0.632
  979ACTN    C1 9781   7.100   0.761   2.318
  979ACTN    O1 9782   7.329   0.816   2.269
  979ACTN    C2 9783   7.210   0.822   2.234
  979ACTN    C3 9784   7.179   0.925   2.135
  979ACTN    H1 9785   7.056   0.674   2.269
  979ACTN    H2 9786   7.023   0.836   2.333
  979ACTN    H3 9787   7.140   0.728   2.414
  979ACTN    H4 9788   7.174   0.874   2.039
  979ACTN    H5 9789   7.260   0.998   2.124
  979ACTN    H6 9790   7.086   0.977   2.153
  980ACTN    C1 9791   3.588   6.786   5.443
  980ACTN    O1 9792   3.369   6.701   5.396
  980ACTN    C2 9793   3.491   6.680   5.398
  980ACTN    C3 9794   3.530   6.539   5.396
  980ACTN    H1 9795   3.648   6.824   5.361
  980ACTN    H2 9796   3.654   6.742   5.518
  980ACTN    H3 9797   3.534   6.871   5.487
  980ACTN    H4 9798   3.558   6.517   5.293
  980ACTN    H5 9799   3.447   6.472   5.417
  980ACTN    H6 9800   3.613   6.515   5.461
  981ACTN    C1 9801   7.705   6.462   1.414
  981ACTN    O1 9802   7.764   6.237   1.355
  981ACTN    C2 9803   7.798   6.357   1.361
  981ACTN    C3 9804   7.942   6.380   1.354
  981ACTN    H1 9805   7.670   6.529   1.336
  981ACTN    H2 9806   7.758   6.520   1.489
  981ACTN    H3 9807   7.616   6.416   1.459
  981ACTN    H4 9808   7.963   6.409   1.252
  981ACTN    H5 9809   8.000   6.289   1.370
  981ACTN    H6 9810   7.977   6.457   1.422
  982ACTN    C1 9811   0.939   2.292   7.516
  982ACTN    O1 9812   1.155   2.293   7.411
  982ACTN    C2 9813   1.087   2.264   7.510
  982ACTN    C3 9814   1.147   2.166   7.601
  982ACTN    H1 9815   0.915   2.371   7.586
  982ACTN    H2 9816   0.888   2.201   7.545
  982ACTN    H3 9817   0.904   2.324   7.417
  982ACTN    H4 9818   1.191   2.223   7.683
  982ACTN    H5 9819   1.232   2.114   7.555
  982ACTN    H6 9820   1.078   2.093   7.640
  983ACTN    C1 9821   5.430   4.941   6.574
  983ACTN    O1 9822   5.192   4.943   6.545
  983ACTN    C2 9823   5.293   4.881   6.584
  983ACTN    C3 9824   5.266   4.771   6.677
  983ACTN    H1 9825   5.491   4.890   6.499
  983ACTN    H2 9826   5.478   4.933   6.670
  983ACTN    H3 9827   5.423   5.046   6.543
  983ACTN    H4 9828   5.270   4.680   6.618
  983ACTN    H5 9829   5.165   4.774   6.718
  983ACTN    H6 9830   5.338   4.764   6.759
  984ACTN    C1 9831   5.084   2.333   4.045
  984ACTN    O1 9832   5.223   2.199   3.902
  984ACTN    C2 9833   5.167   2.308   3.922
  984ACTN    C3 9834   5.220   2.420   3.844
  984ACTN    H1 9835   4.978   2.341   4.022
  984ACTN    H2 9836   5.118   2.425   4.091
  984ACTN    H3 9837   5.096   2.249   4.116
  984ACTN    H4 9838   5.152   2.434   3.760
  984ACTN    H5 9839   5.316   2.398   3.798
  984ACTN    H6 9840   5.228   2.513   3.900
  985ACTN    C1 9841   7.300   6.668   1.245
  985ACTN    O1 9842   7.382   6.444   1.223
  985ACTN    C2 9843   7.311   6.524   1.286
  985ACTN    C3 9844   7.208   6.463   1.370
  985ACTN    H1 9845   7.348   6.735   1.317
  985ACTN    H2 9846   7.195   6.694   1.237
  985ACTN    H3 9847   7.349   6.683   1.148
  985ACTN    H4 9848   7.248   6.464   1.472
  985ACTN    H5 9849   7.193   6.357   1.348
  985ACTN    H6 9850   7.113   6.514   1.368
  986ACTN    C1 9851   5.334   2.651   4.176
  986ACTN    O1 9852   5.135   2.702   4.300
  986ACTN    C2 9853   5.210   2.730   4.205
  986ACTN    C3 9854   5.150   2.815   4.101
  986ACTN    H1 9855   5.424   2.707   4.197
  986ACTN    H2 9856   5.333   2.622   4.071
  986ACTN    H3 9857   5.336   2.561   4.239
  986ACTN    H4 9858   5.184   2.916   4.120
  986ACTN    H5 9859   5.041   2.820   4.109
  986ACTN    H6 9860   5.176   2.786   4.000
  987ACTN    C1 9861   6.734   4.104   6.434
  987ACTN    O1 9862   6.652   3.977   6.621
  987ACTN    C2 9863   6.625   4.048   6.522
  987ACTN    C3 9864   6.487   4.038   6.474
  987ACTN    H1 9865   6.743   4.212   6.445
  987ACTN    H2 9866   6.709   4.080   6.331
  987ACTN    H3 9867   6.830   4.060   6.461
  987ACTN    H4 9868   6.435   4.125   6.514
  987ACTN    H5 9869   6.434   3.952   6.515
  987ACTN    H6 9870   6.478   4.037   6.366
  988ACTN    C1 9871   6.098   0.541   2.747
  988ACTN    O1 9872   6.065   0.309   2.797
  988ACTN    C2 9873   6.124   0.415   2.825
  988ACTN    C3 9874   6.182   0.422   2.959
  988ACTN    H1 9875   6.183   0.570   2.686
  988ACTN    H2 9876   6.075   0.621   2.817
  988ACTN    H3 9877   6.013   0.527   2.678
  988ACTN    H4 9878   6.288   0.401   2.946
  988ACTN    H5 9879   6.146   0.342   3.024
  988ACTN    H6 9880   6.169   0.517   3.008
  989ACTN    C1 9881   5.248   3.333   2.917
  989ACTN    O1 9882   5.271   3.549   3.020
  989ACTN    C2 9883   5.255   3.427   3.035
  989ACTN    C3 9884   5.287   3.376   3.168
  989ACTN    H1 9885   5.148   3.292   2.904
  989ACTN    H2 9886   5.318   3.252   2.934
  989ACTN    H3 9887   5.274   3.387   2.825
  989ACTN    H4 9888   5.192   3.365   3.220
  989ACTN    H5 9889   5.343   3.448   3.228
  989ACTN    H6 9890   5.339   3.281   3.168
  990ACTN    C1 9891   3.888   7.297   3.717
  990ACTN    O1 9892   3.860   7.323   3.480
  990ACTN    C2 9893   3.890   7.248   3.575
  990ACTN    C3 9894   3.885   7.105   3.546
  990ACTN    H1 9895   3.987   7.305   3.760
  990ACTN    H2 9896   3.829   7.227   3.776
  990ACTN    H3 9897   3.842   7.397   3.722
  990ACTN    H4 9898   3.988   7.074   3.527
  990ACTN    H5 9899   3.833   7.083   3.452
  990ACTN    H6 9900   3.843   7.045   3.625
  991ACTN    C1 9901   1.677   4.148   4.340
  991ACTN    O1 9902   1.719   4.339   4.479
  991ACTN    C2 9903   1.765   4.254   4.401
  991ACTN    C3 9904   1.893   4.289   4.339
  991ACTN    H1 9905   1.700   4.049   4.379
  991ACTN    H2 9906   1.692   4.148   4.233
  991ACTN    H3 9907   1.572   4.168   4.363
  991ACTN    H4 9908   1.969   4.235   4.395
  991ACTN    H5 9909   1.918   4.395   4.352
  991ACTN    H6 9910   1.900   4.263   4.234
  992ACTN    C1 9911   3.082   6.752   2.738
  992ACTN    O1 9912   3.167   6.976   2.745
  992ACTN    C2 9913   3.088   6.892   2.792
  992ACTN    C3 9914   3.035   6.923   2.925
  992ACTN    H1 9915   2.990   6.733   2.684
  992ACTN    H2 9916   3.090   6.683   2.822
  992ACTN    H3 9917   3.165   6.735   2.668
  992ACTN    H4 9918   2.935   6.965   2.909
  992ACTN    H5 9919   3.090   7.003   2.974
  992ACTN    H6 9920   3.029   6.838   2.991
  993ACTN    C1 9921   5.869   2.997   0.327
  993ACTN    O1 9922   5.736   2.843   0.200
  993ACTN    C2 9923   5.812   2.942   0.200
  993ACTN    C3 9924   5.874   2.972   0.071
  993ACTN    H1 9925   5.827   3.095   0.352
  993ACTN    H2 9926   5.976   3.007   0.315
  993ACTN    H3 9927   5.847   2.930   0.411
  993ACTN    H4 9928   5.816   3.053   0.027
  993ACTN    H5 9929   5.865   2.890  -0.000
  993ACTN    H6 9930   5.978   3.002   0.078
  994ACTN    C1 9931   4.305   2.491   6.029
  994ACTN    O1 9932   4.297   2.473   6.268
  994ACTN    C2 9933   4.334   2.538   6.169
  994ACTN    C3 9934   4.367   2.678   6.195
  994ACTN    H1 9935   4.395   2.460   5.977
  994ACTN    H2 9936   4.260   2.574   5.974
  994ACTN    H3 9937   4.236   2.406   6.031
  994ACTN    H4 9938   4.476   2.683   6.202
  994ACTN    H5 9939   4.332   2.712   6.293
  994ACTN    H6 9940   4.333   2.747   6.119
  995ACTN    C1 9941   7.119   5.173   1.825
  995ACTN    O1 9942   6.880   5.170   1.839
  995ACTN    C2 9943   6.989   5.152   1.896
  995ACTN    C3 9944   6.982   5.153   2.043
  995ACTN    H1 9945   7.172   5.078   1.809
  995ACTN    H2 9946   7.182   5.237   1.886
  995ACTN    H3 9947   7.102   5.219   1.727
  995ACTN    H4 9948   6.982   5.049   2.074
  995ACTN    H5 9949   6.888   5.194   2.081
  995ACTN    H6 9950   7.065   5.205   2.090
  996ACTN    C1 9951   4.590   4.530   5.332
  996ACTN    O1 9952   4.482   4.622   5.526
  996ACTN    C2 9953   4.588   4.586   5.471
  996ACTN    C3 9954   4.710   4.641   5.531
  996ACTN    H1 9955   4.614   4.424   5.331
  996ACTN    H2 9956   4.664   4.584   5.274
  996ACTN    H3 9957   4.491   4.541   5.286
  996ACTN    H4 9958   4.751   4.562   5.595
  996ACTN    H5 9959   4.690   4.724   5.599
  996ACTN    H6 9960   4.785   4.672   5.459
  997ACTN    C1 9961   6.500   0.907   1.912
  997ACTN    O1 9962   6.419   0.817   2.119
  997ACTN    C2 9963   6.468   0.795   2.007
  997ACTN    C3 9964   6.533   0.664   1.992
  997ACTN    H1 9965   6.433   0.906   1.825
  997ACTN    H2 9966   6.602   0.896   1.878
  997ACTN    H3 9967   6.487   1.004   1.962
  997ACTN    H4 9968   6.461   0.601   1.940
  997ACTN    H5 9969   6.549   0.615   2.088
  997ACTN    H6 9970   6.625   0.667   1.937
  998ACTN    C1 9971   4.137   3.233   2.440
  998ACTN    O1 9972   4.007   3.103   2.286
  998ACTN    C2 9973   4.118   3.151   2.316
  998ACTN    C3 9974   4.233   3.089   2.249
  998ACTN    H1 9975   4.155   3.338   2.418
  998ACTN    H2 9976   4.222   3.193   2.495
  998ACTN    H3 9977   4.047   3.228   2.503
  998ACTN    H4 9978   4.259   3.155   2.166
  998ACTN    H5 9979   4.207   2.994   2.201
  998ACTN    H6 9980   4.319   3.075   2.313
  999ACTN    C1 9981   3.334   7.448   0.348
  999ACTN    O1 9982   3.361   7.667   0.255
  999ACTN    C2 9983   3.364   7.544   0.237
  999ACTN    C3 9984   3.355   7.502   0.097
  999ACTN    H1 9985   3.422   7.393   0.379
  999ACTN    H2 9986   3.259   7.378   0.313
  999ACTN    H3 9987   3.296   7.502   0.435
  999ACTN    H4 9988   3.457   7.479   0.065
  999ACTN    H5 9989   3.323   7.583   0.031
  999ACTN    H6 9990   3.292   7.416   0.081
 1000ACTN    C1 9991   0.715   5.407   6.135
 1000ACTN    O1 9992   0.535   5.262   6.072
 1000ACTN    C2 9993   0.605   5.360   6.043
 1000ACTN    C3 9994   0.606   5.398   5.901
 1000ACTN    H1 9995   0.691   5.503   6.180
 1000ACTN    H2 9996   0.806   5.417   6.077
 1000ACTN    H3 9997   0.730   5.335   6.216
 1000ACTN    H4 9998   0.537   5.482   5.892
 1000ACTN    H5 9999   0.563   5.320   5.837
 1000ACTN    H610000   0.703   5.426   5.863
    1SOL     OW10001   5.728   3.949   1.597
    1SOL    HW110002   5.750   4.041   1.564
    1SOL    HW210003   5.767   3.937   1.689
    2SOL     OW10004   1.488   3.053   4.142
    2SOL    HW110005   1.533   3.007   4.066
    2SOL    HW210006   1.408   3.104   4.108
    3SOL     OW10007   4.770   0.100   1.543
    3SOL    HW110008   4.749   0.132   1.451
    3SOL    HW210009   4.772  -0.000   1.545
    4SOL     OW10010   7.071   1.948   6.254
    4SOL    HW110011   7.058   2.038   6.213
    4SOL    HW210012   7.169   1.929   6.264
    5SOL     OW10013   4.887   6.702   4.204
    5SOL    HW110014   4.944   6.782   4.183
    5SOL    HW210015   4.808   6.730   4.258
    6SOL     OW10016   7.164   1.275   7.630
    6SOL    HW110017   7.220   1.213   7.574
    6SOL    HW210018   7.157   1.364   7.585
    7SOL     OW10019   2.794   4.855   1.447
    7SOL    HW110020   2.864   4.921   1.476
    7SOL    HW210021   2.728   4.841   1.520
    8SOL     OW10022   2.423   6.432   1.807
    8SOL    HW110023   2.418   6.505   1.876
    8SOL    HW210024   2.399   6.345   1.849
    9SOL     OW10025   3.351   1.527   7.814
    9SOL    HW110026   3.386   1.606   7.864
    9SOL    HW210027   3.318   1.555   7.724
   10SOL     OW10028   0.096   1.812   3.662
   10SOL    HW110029   0.132   1.904   3.673
   10SOL    HW210030  -0.001   1.816   3.638
   11SOL     OW10031   7.548   1.529   4.216
   11SOL    HW110032   7.590   1.442   4.242
   11SOL    HW210033   7.580   1.556   4.125
   12SOL     OW10034   2.657   0.135   3.789
   12SOL    HW110035   2.657   0.048   3.739
   12SOL    HW210036   2.595   0.128   3.868
   13SOL     OW10037   1.464   5.242   0.655
   13SOL    HW110038   1.448   5.167   0.719
   13SOL    HW210039   1.483   5.206   0.564
   14SOL     OW10040   3.895   4.244   7.357
   14SOL    HW110041   3.932   4.337   7.363
   14SOL    HW210042   3.862   4.226   7.264
   15SOL     OW10043   5.476   1.258   2.686
   15SOL    HW110044   5.488   1.161   2.664
   15SOL    HW210045   5.463   1.269   2.784
   16SOL     OW10046   5.775   0.906   1.669
   16SOL    HW110047   5.748   0.955   1.586
   16SOL    HW210048   5.703   0.844   1.697
   17SOL     OW10049   4.545   6.250   7.397
   17SOL    HW110050   4.511   6.343   7.388
   17SOL    HW210051   4.570   6.232   7.492
   18SOL     OW10052   4.168   4.388   4.377
   18SOL    HW110053   4.115   4.402   4.461
   18SOL    HW210054   4.248   4.446   4.378
   19SOL     OW10055   2.846   5.073   1.691
   19SOL    HW110056   2.941   5.051   1.716
   19SOL    HW210057   2.836   5.172   1.678
   20SOL     OW10058   6.078   4.592   0.230
   20SOL    HW110059   6.169   4.561   0.201
   20SOL    HW210060   6.055   4.551   0.318
   21SOL     OW10061   2.040   1.930   2.876
   21SOL    HW110062   2.022   2.028   2.864
   21SOL    HW210063   1.963   1.877   2.840
   22SOL     OW10064   0.255   5.447   4.307
   22SOL    HW110065   0.308   5.486   4.231
   22SOL    HW210066   0.259   5.347   4.304
   23SOL     OW10067   5.266   6.423   2.536
   23SOL    HW110068   5.248   6.460   2.445
   23SOL    HW210069   5.181   6.387   2.575
   24SOL     OW10070   6.053   1.430   5.966
   24SOL    HW110071   5.972   1.381   5.933
   24SOL    HW210072   6.064   1.416   6.065
   25SOL     OW10073   1.611   7.229   1.433
   25SOL    HW110074   1.611   7.240   1.333
   25SOL    HW210075   1.523   7.259   1.470
   26SOL     OW10076   1.699   3.082   7.838
   26SOL    HW110077   1.706   3.138   7.921
   26SOL    HW210078   1.759   3.002   7.847
   27SOL     OW10079   1.599   5.390   3.682
   27SOL    HW110080   1.672   5.453   3.708
   27SOL    HW210081   1.555   5.421   3.598
   28SOL     OW10082   3.482   2.143   0.568
   28SOL    HW110083   3.537   2.060   0.557
   28SOL    HW210084   3.398   2.122   0.619
   29SOL     OW10085   7.345   1.918   6.396
   29SOL    HW110086   7.360   2.014   6.372
   29SOL    HW210087   7.370   1.859   6.320
   30SOL     OW10088   2.694   3.210   4.181
   30SOL    HW110089   2.783   3.245   4.209
   30SOL    HW210090   2.675   3.235   4.086
   31SOL     OW10091   5.436   3.796   2.523
   31SOL    HW110092   5.362   3.855   2.556
   31SOL    HW210093   5.500   3.849   2.468
   32SOL     OW10094   3.736   2.676   0.489
   32SOL    HW110095   3.754   2.669   0.587
   32SOL    HW210096   3.807   2.730   0.445
   33SOL     OW10097   6.455   6.994   7.319
   33SOL    HW110098   6.430   7.047   7.400
   33SOL    HW210099   6.516   7.048   7.261
   34SOL     OW10100   2.306   0.213   6.108
   34SOL    HW110101   2.402   0.232   6.087
   34SOL    HW210102   2.299   0.168   6.197
   35SOL     OW10103   0.434   2.374   5.761
   35SOL    HW110104   0.507   2.403   5.824
   35SOL    HW210105   0.474   2.346   5.674
   36SOL     OW10106   3.872   2.405   5.503
   36SOL    HW110107   3.802   2.438   5.440
   36SOL    HW210108   3.963   2.426   5.467
   37SOL     OW10109   2.498   3.104   7.175
   37SOL    HW110110   2.593   3.137   7.177
   37SOL    HW210111   2.476   3.068   7.084
   38SOL     OW10112   4.218   5.577   4.479
   38SOL    HW110113   4.256   5.490   4.510
   38SOL    HW210114   4.121   5.582   4.504
   39SOL     OW10115   3.182   2.130   4.233
   39SOL    HW110116   3.260   2.165   4.181
   39SOL    HW210117   3.215   2.083   4.315
   40SOL     OW10118   3.721   0.043   6.374
   40SOL    HW110119   3.748   0.123   6.427
   40SOL    HW210120   3.630   0.013   6.402
   41SOL     OW10121   2.997   5.164   3.840
   41SOL    HW110122   3.066   5.225   3.880
   41SOL    HW210123   2.993   5.178   3.741
   42SOL     OW10124   3.183   5.788   5.589
   42SOL    HW110125   3.172   5.690   5.577
   42SOL    HW210126   3.145   5.816   5.678
   43SOL     OW10127   7.804   4.921   6.018
   43SOL    HW110128   7.759   4.926   6.107
   43SOL    HW210129   7.744   4.875   5.952
   44SOL     OW10130   1.010   7.583   1.972
   44SOL    HW110131   1.011   7.544   1.880
   44SOL    HW210132   0.926   7.634   1.987
   45SOL     OW10133   2.991   2.878   3.896
   45SOL    HW110134   2.994   2.971   3.859
   45SOL    HW210135   3.014   2.878   3.993
   46SOL     OW10136   6.491   1.077   4.670
   46SOL    HW110137   6.557   1.018   4.623
   46SOL    HW210138   6.409   1.025   4.692
   47SOL     OW10139   6.883   7.260   5.008
   47SOL    HW110140   6.856   7.242   4.914
   47SOL    HW210141   6.972   7.220   5.026
   48SOL     OW10142   5.399   5.312   4.611
   48SOL    HW110143   5.321   5.353   4.658
   48SOL    HW210144   5.484   5.346   4.650
   49SOL     OW10145   4.971   6.295   5.430
   49SOL    HW110146   4.966   6.324   5.526
   49SOL    HW210147   4.940   6.201   5.421
   50SOL     OW10148   5.174   7.224   6.792
   50SOL    HW110149   5.110   7.186   6.726
   50SOL    HW210150   5.130   7.235   6.881
   51SOL     OW10151   0.312   3.059   3.415
   51SOL    HW110152   0.344   2.968   3.388
   51SOL    HW210153   0.268   3.054   3.505
   52SOL     OW10154   6.878   5.747   5.760
   52SOL    HW110155   6.831   5.660   5.780
   52SOL    HW210156   6.887   5.759   5.662
   53SOL     OW10157   6.317   2.035   3.064
   53SOL    HW110158   6.356   2.038   2.972
   53SOL    HW210159   6.244   2.103   3.072
   54SOL     OW10160   4.620   5.598   6.150
   54SOL    HW110161   4.636   5.531   6.077
   54SOL    HW210162   4.560   5.559   6.219
   55SOL     OW10163   6.487   3.384   6.833
   55SOL    HW110164   6.479   3.405   6.930
   55SOL    HW210165   6.511   3.467   6.782
   56SOL     OW10166   4.838   5.589   4.526
   56SOL    HW110167   4.854   5.610   4.429
   56SOL    HW210168   4.893   5.510   4.554
   57SOL     OW10169   0.130   7.488   1.832
   57SOL    HW110170   0.073   7.439   1.766
   57SOL    HW210171   0.159   7.576   1.794
   58SOL     OW10172   3.033   1.757   5.280
   58SOL    HW110173   2.957   1.696   5.305
   58SOL    HW210174   3.052   1.748   5.182
   59SOL     OW10175   6.082   4.932   6.694
   59SOL    HW110176   6.023   4.853   6.674
   59SOL    HW210177   6.063   4.966   6.786
   60SOL     OW10178   2.489   7.542   7.339
   60SOL    HW110179   2.532   7.494   7.416
   60SOL    HW210180   2.553   7.549   7.263
   61SOL     OW10181   5.555   1.287   0.859
   61SOL    HW110182   5.572   1.385   0.848
   61SOL    HW210183   5.594   1.254   0.945
   62SOL     OW10184   1.079   5.295   2.881
   62SOL    HW110185   1.038   5.228   2.819
   62SOL    HW210186   1.178   5.281   2.887
   63SOL     OW10187   2.034   7.299   7.775
   63SOL    HW110188   2.033   7.329   7.871
   63SOL    HW210189   1.950   7.329   7.730
   64SOL     OW10190   1.636   6.096   3.144
   64SOL    HW110191   1.569   6.046   3.089
   64SOL    HW210192   1.608   6.094   3.240
   65SOL     OW10193   7.252   2.007   6.758
   65SOL    HW110194   7.312   1.990   6.836
   65SOL    HW210195   7.234   2.105   6.748
   66SOL     OW10196   0.850   2.023   6.294
   66SOL    HW110197   0.768   2.071   6.326
   66SOL    HW210198   0.866   1.943   6.351
   67SOL     OW10199   7.320   7.362   4.611
   67SOL    HW110200   7.319   7.457   4.642
   67SOL    HW210201   7.232   7.339   4.569
   68SOL     OW10202   2.901   6.667   6.263
   68SOL    HW110203   2.861   6.751   6.299
   68SOL    HW210204   2.866   6.650   6.171
   69SOL     OW10205   4.778   1.182   1.839
   69SOL    HW110206   4.698   1.216   1.888
   69SOL    HW210207   4.751   1.138   1.755
   70SOL     OW10208   2.006   6.843   2.574
   70SOL    HW110209   2.101   6.874   2.573
   70SOL    HW210210   1.984   6.805   2.664
   71SOL     OW10211   2.681   4.013   6.252
   71SOL    HW110212   2.770   3.972   6.272
   71SOL    HW210213   2.655   4.076   6.326
   72SOL     OW10214   0.621   2.570   1.183
   72SOL    HW110215   0.696   2.510   1.210
   72SOL    HW210216   0.581   2.614   1.264
   73SOL     OW10217   2.521   7.663   6.260
   73SOL    HW110218   2.430   7.661   6.300
   73SOL    HW210219   2.587   7.621   6.323
   74SOL     OW10220   4.414   4.037   4.344
   74SOL    HW110221   4.481   3.969   4.374
   74SOL    HW210222   4.404   4.108   4.414
   75SOL     OW10223   3.014   4.727   1.423
   75SOL    HW110224   2.977   4.664   1.354
   75SOL    HW210225   3.048   4.675   1.501
   76SOL     OW10226   3.377   3.378   1.780
   76SOL    HW110227   3.470   3.371   1.744
   76SOL    HW210228   3.327   3.449   1.731
   77SOL     OW10229   0.900   0.729   2.696
   77SOL    HW110230   0.833   0.659   2.672
   77SOL    HW210231   0.891   0.807   2.634
   78SOL     OW10232   1.317   6.471   6.107
   78SOL    HW110233   1.351   6.384   6.071
   78SOL    HW210234   1.276   6.457   6.197
   79SOL     OW10235   6.106   2.190   2.165
   79SOL    HW110236   6.089   2.138   2.081
   79SOL    HW210237   6.177   2.145   2.219
   80SOL     OW10238   5.639   5.421   4.031
   80SOL    HW110239   5.545   5.457   4.030
   80SOL    HW210240   5.704   5.495   4.017
   81SOL     OW10241   0.769   4.735   6.915
   81SOL    HW110242   0.776   4.835   6.913
   81SOL    HW210243   0.790   4.701   7.007
   82SOL     OW10244   2.205   4.915   2.766
   82SOL    HW110245   2.135   4.986   2.779
   82SOL    HW210246   2.290   4.944   2.811
   83SOL     OW10247   3.478   0.188   5.956
   83SOL    HW110248   3.494   0.166   6.052
   83SOL    HW210249   3.440   0.109   5.909
   84SOL     OW10250   2.511   7.601   1.831
   84SOL    HW110251   2.580   7.537   1.864
   84SOL    HW210252   2.547   7.652   1.752
   85SOL     OW10253   1.093   0.086   5.236
   85SOL    HW110254   1.091   0.084   5.337
   85SOL    HW210255   1.187   0.094   5.204
   86SOL     OW10256   0.434   5.738   1.861
   86SOL    HW110257   0.451   5.825   1.814
   86SOL    HW210258   0.446   5.750   1.959
   87SOL     OW10259   0.031   2.531   1.016
   87SOL    HW110260   0.000   2.623   1.044
   87SOL    HW210261   0.000   2.512   0.923
   88SOL     OW10262   4.086   7.422   4.396
   88SOL    HW110263   3.988   7.442   4.391
   88SOL    HW210264   4.122   7.452   4.484
   89SOL     OW10265   1.931   7.026   5.292
   89SOL    HW110266   1.878   6.988   5.367
   89SOL    HW210267   2.009   7.078   5.327
   90SOL     OW10268   1.152   7.945   4.105
   90SOL    HW110269   1.073   7.988   4.149
   90SOL    HW210270   1.122   7.873   4.043
   91SOL     OW10271   1.993   5.586   3.904
   91SOL    HW110272   1.957   5.665   3.954
   91SOL    HW210273   1.971   5.595   3.807
   92SOL     OW10274   4.776   2.758   0.814
   92SOL    HW110275   4.678   2.769   0.832
   92SOL    HW210276   4.789   2.709   0.728
   93SOL     OW10277   6.891   7.470   2.007
   93SOL    HW110278   6.851   7.492   2.096
   93SOL    HW210279   6.823   7.483   1.935
   94SOL     OW10280   0.870   4.671   3.433
   94SOL    HW110281   0.837   4.593   3.380
   94SOL    HW210282   0.891   4.747   3.372
   95SOL     OW10283   2.890   5.364   3.919
   95SOL    HW110284   2.797   5.326   3.920
   95SOL    HW210285   2.920   5.379   3.825
   96SOL     OW10286   1.876   2.891   1.660
   96SOL    HW110287   1.830   2.905   1.748
   96SOL    HW210288   1.924   2.974   1.633
   97SOL     OW10289   1.605   4.221   1.438
   97SOL    HW110290   1.660   4.273   1.503
   97SOL    HW210291   1.563   4.283   1.372
   98SOL     OW10292   0.957   3.828   5.191
   98SOL    HW110293   0.911   3.745   5.158
   98SOL    HW210294   0.902   3.908   5.169
   99SOL     OW10295   0.945   1.338   7.922
   99SOL    HW110296   0.875   1.347   7.992
   99SOL    HW210297   0.951   1.243   7.891
  100SOL     OW10298   2.196   6.739   1.059
  100SOL    HW110299   2.147   6.654   1.040
  100SOL    HW210300   2.291   6.720   1.082
  101SOL     OW10301   2.698   5.576   2.763
  101SOL    HW110302   2.713   5.521   2.846
  101SOL    HW210303   2.684   5.516   2.684
  102SOL     OW10304   6.385   1.693   6.476
  102SOL    HW110305   6.285   1.693   6.468
  102SOL    HW210306   6.412   1.702   6.571
  103SOL     OW10307   6.715   0.094   3.549
  103SOL    HW110308   6.687   0.189   3.564
  103SOL    HW210309   6.814   0.086   3.556
  104SOL     OW10310   1.681   4.208   7.802
  104SOL    HW110311   1.775   4.198   7.770
  104SOL    HW210312   1.673   4.175   7.896
  105SOL     OW10313   4.845   3.955   6.323
  105SOL    HW110314   4.794   4.028   6.277
  105SOL    HW210315   4.909   3.912   6.259
  106SOL     OW10316   6.621   3.884   4.559
  106SOL    HW110317   6.702   3.942   4.551
  106SOL    HW210318   6.588   3.859   4.468
  107SOL     OW10319   5.331   1.898   2.953
  107SOL    HW110320   5.288   1.970   3.009
  107SOL    HW210321   5.278   1.884   2.870
  108SOL     OW10322   0.720   4.485   7.332
  108SOL    HW110323   0.660   4.405   7.325
  108SOL    HW210324   0.698   4.537   7.414
  109SOL     OW10325   1.946   1.859   2.609
  109SOL    HW110326   1.905   1.899   2.527
  109SOL    HW210327   1.884   1.791   2.648
  110SOL     OW10328   1.847   6.876   4.721
  110SOL    HW110329   1.838   6.943   4.646
  110SOL    HW210330   1.814   6.916   4.806
  111SOL     OW10331   4.628   4.246   1.388
  111SOL    HW110332   4.714   4.265   1.341
  111SOL    HW210333   4.636   4.161   1.440
  112SOL     OW10334   4.507   5.755   0.729
  112SOL    HW110335   4.556   5.707   0.656
  112SOL    HW210336   4.416   5.716   0.741
  113SOL     OW10337   0.874   4.756   1.966
  113SOL    HW110338   0.845   4.845   1.929
  113SOL    HW210339   0.836   4.682   1.911
  114SOL     OW10340   6.670   5.338   5.000
  114SOL    HW110341   6.580   5.296   5.008
  114SOL    HW210342   6.707   5.323   4.908
  115SOL     OW10343   7.073   5.640   3.271
  115SOL    HW110344   7.095   5.721   3.216
  115SOL    HW210345   7.143   5.570   3.260
  116SOL     OW10346   6.621   5.844   6.065
  116SOL    HW110347   6.526   5.865   6.090
  116SOL    HW210348   6.655   5.767   6.120
  117SOL     OW10349   0.887   2.458   1.114
  117SOL    HW110350   0.966   2.453   1.174
  117SOL    HW210351   0.840   2.370   1.110
  118SOL     OW10352   6.267   4.586   2.631
  118SOL    HW110353   6.187   4.636   2.664
  118SOL    HW210354   6.255   4.562   2.535
  119SOL     OW10355   4.689   0.381   6.654
  119SOL    HW110356   4.743   0.454   6.696
  119SOL    HW210357   4.737   0.294   6.664
  120SOL     OW10358   6.229   4.996   5.891
  120SOL    HW110359   6.267   5.064   5.954
  120SOL    HW210360   6.213   5.038   5.801
  121SOL     OW10361   4.246   4.417   1.470
  121SOL    HW110362   4.336   4.417   1.424
  121SOL    HW210363   4.253   4.371   1.558
  122SOL     OW10364   6.625   5.250   3.554
  122SOL    HW110365   6.653   5.160   3.522
  122SOL    HW210366   6.597   5.246   3.650
  123SOL     OW10367   5.877   4.214   5.378
  123SOL    HW110368   5.865   4.212   5.278
  123SOL    HW210369   5.881   4.309   5.410
  124SOL     OW10370   3.586   6.384   1.158
  124SOL    HW110371   3.671   6.414   1.203
  124SOL    HW210372   3.543   6.460   1.110
  125SOL     OW10373   2.889   1.689   2.233
  125SOL    HW110374   2.825   1.617   2.262
  125SOL    HW210375   2.918   1.672   2.139
  126SOL     OW10376   4.427   2.393   7.580
  126SOL    HW110377   4.383   2.306   7.559
  126SOL    HW210378   4.438   2.403   7.679
  127SOL     OW10379   6.834   0.252   6.694
  127SOL    HW110380   6.763   0.188   6.723
  127SOL    HW210381   6.897   0.269   6.770
  128SOL     OW10382   5.354   7.859   2.365
  128SOL    HW110383   5.403   7.930   2.313
  128SOL    HW210384   5.266   7.894   2.397
  129SOL     OW10385   4.759   5.181   2.757
  129SOL    HW110386   4.753   5.118   2.835
  129SOL    HW210387   4.784   5.131   2.675
  130SOL     OW10388   5.366   0.222   0.152
  130SOL    HW110389   5.338   0.255   0.061
  130SOL    HW210390   5.285   0.207   0.208
  131SOL     OW10391   5.009   3.674   0.959
  131SOL    HW110392   4.927   3.619   0.941
  131SOL    HW210393   5.071   3.669   0.881
  132SOL     OW10394   2.398   5.515   2.596
  132SOL    HW110395   2.467   5.470   2.653
  132SOL    HW210396   2.314   5.528   2.649
  133SOL     OW10397   0.765   0.245   6.732
  133SOL    HW110398   0.700   0.314   6.699
  133SOL    HW210399   0.811   0.202   6.654
  134SOL     OW10400   0.902   5.129   6.223
  134SOL    HW110401   0.882   5.071   6.144
  134SOL    HW210402   1.001   5.129   6.241
  135SOL     OW10403   3.370   0.281   0.335
  135SOL    HW110404   3.452   0.266   0.391
  135SOL    HW210405   3.300   0.214   0.358
  136SOL     OW10406   7.885   5.169   7.438
  136SOL    HW110407   7.981   5.146   7.420
  136SOL    HW210408   7.858   5.135   7.528
  137SOL     OW10409   0.387   5.432   4.793
  137SOL    HW110410   0.377   5.396   4.885
  137SOL    HW210411   0.356   5.527   4.789
  138SOL     OW10412   6.680   7.449   7.297
  138SOL    HW110413   6.731   7.529   7.329
  138SOL    HW210414   6.650   7.462   7.203
  139SOL     OW10415   2.167   3.178   6.428
  139SOL    HW110416   2.200   3.115   6.498
  139SOL    HW210417   2.088   3.229   6.462
  140SOL     OW10418   3.125   2.889   0.773
  140SOL    HW110419   3.182   2.814   0.741
  140SOL    HW210420   3.122   2.891   0.873
  141SOL     OW10421   6.725   6.468   0.815
  141SOL    HW110422   6.689   6.502   0.902
  141SOL    HW210423   6.811   6.419   0.830
  142SOL     OW10424   3.594   7.523   5.960
  142SOL    HW110425   3.572   7.568   5.874
  142SOL    HW210426   3.693   7.521   5.973
  143SOL     OW10427   4.852   7.959   5.895
  143SOL    HW110428   4.845   7.883   5.830
  143SOL    HW210429   4.943   8.000   5.890
  144SOL     OW10430   4.545   7.257   1.243
  144SOL    HW110431   4.613   7.297   1.181
  144SOL    HW210432   4.536   7.159   1.225
  145SOL     OW10433   3.229   7.266   7.651
  145SOL    HW110434   3.301   7.220   7.703
  145SOL    HW210435   3.249   7.364   7.644
  146SOL     OW10436   3.312   4.644   5.292
  146SOL    HW110437   3.395   4.601   5.328
  146SOL    HW210438   3.329   4.677   5.199
  147SOL     OW10439   0.609   6.299   4.662
  147SOL    HW110440   0.603   6.203   4.632
  147SOL    HW210441   0.569   6.308   4.753
  148SOL     OW10442   1.285   5.278   3.372
  148SOL    HW110443   1.290   5.364   3.321
  148SOL    HW210444   1.366   5.269   3.431
  149SOL     OW10445   2.013   1.494   3.089
  149SOL    HW110446   2.112   1.484   3.095
  149SOL    HW210447   1.972   1.486   3.180
  150SOL     OW10448   7.864   6.245   1.906
  150SOL    HW110449   7.954   6.203   1.902
  150SOL    HW210450   7.832   6.250   2.001
  151SOL     OW10451   7.976   7.126   5.892
  151SOL    HW110452   7.933   7.153   5.806
  151SOL    HW210453   7.970   7.201   5.958
  152SOL     OW10454   5.876   7.606   6.063
  152SOL    HW110455   5.871   7.518   6.110
  152SOL    HW210456   5.812   7.671   6.104
  153SOL     OW10457   2.276   4.151   2.969
  153SOL    HW110458   2.194   4.135   2.913
  153SOL    HW210459   2.313   4.064   3.001
  154SOL     OW10460   7.598   6.256   6.639
  154SOL    HW110461   7.540   6.319   6.690
  154SOL    HW210462   7.545   6.207   6.570
  155SOL     OW10463   5.659   5.207   3.954
  155SOL    HW110464   5.661   5.167   3.863
  155SOL    HW210465   5.750   5.238   3.981
  156SOL     OW10466   5.723   2.497   4.722
  156SOL    HW110467   5.720   2.534   4.629
  156SOL    HW210468   5.696   2.401   4.722
  157SOL     OW10469   1.089   2.378   3.154
  157SOL    HW110470   0.997   2.413   3.136
  157SOL    HW210471   1.135   2.358   3.067
  158SOL     OW10472   6.659   4.986   0.990
  158SOL    HW110473   6.617   5.062   0.939
  158SOL    HW210474   6.653   4.902   0.937
  159SOL     OW10475   5.388   1.378   4.696
  159SOL    HW110476   5.427   1.470   4.707
  159SOL    HW210477   5.388   1.331   4.784
  160SOL     OW10478   5.249   0.635   6.524
  160SOL    HW110479   5.214   0.682   6.443
  160SOL    HW210480   5.194   0.658   6.604
  161SOL     OW10481   6.364   2.448   6.750
  161SOL    HW110482   6.406   2.365   6.786
  161SOL    HW210483   6.399   2.467   6.659
  162SOL     OW10484   6.523   7.743   4.612
  162SOL    HW110485   6.604   7.704   4.570
  162SOL    HW210486   6.501   7.831   4.569
  163SOL     OW10487   1.186   4.999   5.156
  163SOL    HW110488   1.267   4.992   5.098
  163SOL    HW210489   1.192   4.933   5.231
  164SOL     OW10490   3.053   4.337   5.633
  164SOL    HW110491   3.101   4.274   5.694
  164SOL    HW210492   3.112   4.363   5.556
  165SOL     OW10493   7.860   4.835   2.846
  165SOL    HW110494   7.765   4.861   2.864
  165SOL    HW210495   7.865   4.771   2.769
  166SOL     OW10496   2.420   5.316   4.350
  166SOL    HW110497   2.456   5.369   4.427
  166SOL    HW210498   2.456   5.352   4.264
  167SOL     OW10499   5.515   6.418   6.499
  167SOL    HW110500   5.585   6.347   6.506
  167SOL    HW210501   5.554   6.507   6.520
  168SOL     OW10502   2.040   7.182   6.785
  168SOL    HW110503   2.107   7.177   6.711
  168SOL    HW210504   2.044   7.100   6.841
  169SOL     OW10505   7.170   1.228   0.544
  169SOL    HW110506   7.091   1.234   0.605
  169SOL    HW210507   7.229   1.307   0.556
  170SOL     OW10508   4.991   1.348   0.960
  170SOL    HW110509   4.927   1.271   0.970
  170SOL    HW210510   5.005   1.392   1.049
  171SOL     OW10511   2.917   0.072   0.734
  171SOL    HW110512   2.881   0.156   0.775
  171SOL    HW210513   2.848  -0.000   0.737
  172SOL     OW10514   6.917   7.389   6.617
  172SOL    HW110515   6.938   7.418   6.524
  172SOL    HW210516   6.868   7.301   6.615
  173SOL     OW10517   6.897   3.795   1.860
  173SOL    HW110518   6.872   3.852   1.939
  173SOL    HW210519   6.866   3.837   1.776
  174SOL     OW10520   6.419   1.278   4.621
  174SOL    HW110521   6.401   1.282   4.719
  174SOL    HW210522   6.334   1.296   4.570
  175SOL     OW10523   2.123   2.509   0.131
  175SOL    HW110524   2.142   2.589   0.188
  175SOL    HW210525   2.068   2.536   0.052
  176SOL     OW10526   0.985   3.510   7.945
  176SOL    HW110527   0.904   3.555   7.984
  176SOL    HW210528   0.965   3.479   7.852
  177SOL     OW10529   6.047   2.375   0.327
  177SOL    HW110530   6.110   2.374   0.405
  177SOL    HW210531   6.058   2.291   0.273
  178SOL     OW10532   2.322   7.063   2.942
  178SOL    HW110533   2.384   7.094   2.870
  178SOL    HW210534   2.359   6.981   2.986
  179SOL     OW10535   0.540   0.673   2.207
  179SOL    HW110536   0.529   0.689   2.109
  179SOL    HW210537   0.515   0.754   2.259
  180SOL     OW10538   5.673   5.901   5.159
  180SOL    HW110539   5.761   5.941   5.133
  180SOL    HW210540   5.679   5.861   5.251
  181SOL     OW10541   6.728   4.200   2.765
  181SOL    HW110542   6.812   4.170   2.809
  181SOL    HW210543   6.747   4.238   2.674
  182SOL     OW10544   6.147   7.325   4.275
  182SOL    HW110545   6.153   7.424   4.259
  182SOL    HW210546   6.174   7.305   4.370
  183SOL     OW10547   1.183   3.001   6.807
  183SOL    HW110548   1.250   2.928   6.820
  183SOL    HW210549   1.188   3.036   6.714
  184SOL     OW10550   4.425   5.403   5.690
  184SOL    HW110551   4.468   5.367   5.773
  184SOL    HW210552   4.492   5.452   5.635
  185SOL     OW10553   2.832   5.261   1.962
  185SOL    HW110554   2.905   5.201   1.928
  185SOL    HW210555   2.809   5.237   2.056
  186SOL     OW10556   4.365   2.278   2.939
  186SOL    HW110557   4.397   2.359   2.891
  186SOL    HW210558   4.401   2.276   3.033
  187SOL     OW10559   0.512   3.112   0.684
  187SOL    HW110560   0.457   3.194   0.667
  187SOL    HW210561   0.595   3.136   0.735
  188SOL     OW10562   2.034   2.079   6.578
  188SOL    HW110563   1.976   2.095   6.658
  188SOL    HW210564   1.980   2.037   6.504
  189SOL     OW10565   5.597   1.418   3.911
  189SOL    HW110566   5.546   1.358   3.974
  189SOL    HW210567   5.579   1.391   3.817
  190SOL     OW10568   2.708   0.734   6.493
  190SOL    HW110569   2.730   0.636   6.489
  190SOL    HW210570   2.785   0.788   6.459
  191SOL     OW10571   0.591   7.298   4.328
  191SOL    HW110572   0.520   7.234   4.298
  191SOL    HW210573   0.567   7.335   4.418
  192SOL     OW10574   1.079   4.234   4.549
  192SOL    HW110575   1.160   4.254   4.604
  192SOL    HW210576   1.003   4.207   4.608
  193SOL     OW10577   2.231   5.192   2.922
  193SOL    HW110578   2.276   5.124   2.979
  193SOL    HW210579   2.253   5.284   2.954
  194SOL     OW10580   2.986   2.466   5.725
  194SOL    HW110581   2.926   2.535   5.765
  194SOL    HW210582   3.049   2.431   5.794
  195SOL     OW10583   2.884   7.016   1.201
  195SOL    HW110584   2.917   6.998   1.294
  195SOL    HW210585   2.878   7.115   1.186
  196SOL     OW10586   1.972   2.203   3.806
  196SOL    HW110587   2.064   2.174   3.776
  196SOL    HW210588   1.927   2.128   3.854
  197SOL     OW10589   3.594   4.631   1.744
  197SOL    HW110590   3.611   4.643   1.646
  197SOL    HW210591   3.582   4.720   1.787
  198SOL     OW10592   3.441   0.238   7.657
  198SOL    HW110593   3.425   0.159   7.598
  198SOL    HW210594   3.539   0.249   7.674
  199SOL     OW10595   7.314   5.075   5.372
  199SOL    HW110596   7.273   4.987   5.349
  199SOL    HW210597   7.378   5.103   5.301
  200SOL     OW10598   7.763   7.462   1.556
  200SOL    HW110599   7.791   7.551   1.520
  200SOL    HW210600   7.825   7.391   1.522
  201SOL     OW10601   6.231   3.454   4.830
  201SOL    HW110602   6.311   3.405   4.866
  201SOL    HW210603   6.201   3.523   4.895
  202SOL     OW10604   3.148   5.173   2.837
  202SOL    HW110605   3.132   5.123   2.923
  202SOL    HW210606   3.240   5.152   2.803
  203SOL     OW10607   5.122   0.592   0.943
  203SOL    HW110608   5.219   0.617   0.953
  203SOL    HW210609   5.067   0.644   1.007
  204SOL     OW10610   2.687   4.509   5.815
  204SOL    HW110611   2.703   4.432   5.753
  204SOL    HW210612   2.595   4.505   5.852
  205SOL     OW10613   3.495   2.076   4.342
  205SOL    HW110614   3.548   2.019   4.280
  205SOL    HW210615   3.422   2.023   4.384
  206SOL     OW10616   1.926   2.368   0.042
  206SOL    HW110617   1.859   2.404   0.107
  206SOL    HW210618   1.934   2.269   0.051
  207SOL     OW10619   5.436   2.210   0.868
  207SOL    HW110620   5.389   2.144   0.808
  207SOL    HW210621   5.378   2.232   0.947
  208SOL     OW10622   0.242   0.644   4.056
  208SOL    HW110623   0.179   0.632   3.978
  208SOL    HW210624   0.241   0.739   4.087
  209SOL     OW10625   2.072   1.941   0.791
  209SOL    HW110626   2.025   2.029   0.779
  209SOL    HW210627   2.005   1.870   0.812
  210SOL     OW10628   3.395   4.190   6.168
  210SOL    HW110629   3.450   4.110   6.145
  210SOL    HW210630   3.437   4.272   6.129
  211SOL     OW10631   0.430   5.118   6.346
  211SOL    HW110632   0.513   5.172   6.335
  211SOL    HW210633   0.407   5.072   6.260
  212SOL     OW10634   7.165   3.987   3.345
  212SOL    HW110635   7.199   3.904   3.389
  212SOL    HW210636   7.090   4.025   3.399
  213SOL     OW10637   0.082   7.225   7.542
  213SOL    HW110638   0.021   7.302   7.559
  213SOL    HW210639   0.163   7.233   7.601
  214SOL     OW10640   3.816   3.556   5.720
  214SOL    HW110641   3.718   3.578   5.729
  214SOL    HW210642   3.846   3.572   5.626
  215SOL     OW10643   1.113   1.837   3.374
  215SOL    HW110644   1.083   1.747   3.407
  215SOL    HW210645   1.151   1.829   3.282
  216SOL     OW10646   5.872   1.519   4.484
  216SOL    HW110647   5.959   1.568   4.472
  216SOL    HW210648   5.826   1.510   4.396
  217SOL     OW10649   2.325   0.177   4.862
  217SOL    HW110650   2.373   0.154   4.947
  217SOL    HW210651   2.365   0.126   4.786
  218SOL     OW10652   6.291   2.681   4.935
  218SOL    HW110653   6.374   2.716   4.891
  218SOL    HW210654   6.298   2.583   4.951
  219SOL     OW10655   7.343   1.181   3.862
  219SOL    HW110656   7.258   1.171   3.812
  219SOL    HW210657   7.403   1.246   3.816
  220SOL     OW10658   1.826   0.100   0.872
  220SOL    HW110659   1.753   0.165   0.853
  220SOL    HW210660   1.879   0.131   0.951
  221SOL     OW10661   4.849   3.789   6.829
  221SOL    HW110662   4.857   3.881   6.868
  221SOL    HW210663   4.812   3.794   6.736
  222SOL     OW10664   4.167   6.176   3.971
  222SOL    HW110665   4.068   6.167   3.959
  222SOL    HW210666   4.192   6.156   4.065
  223SOL     OW10667   1.032   4.849   0.462
  223SOL    HW110668   1.129   4.875   0.464
  223SOL    HW210669   1.017   4.772   0.524
  224SOL     OW10670   0.425   6.278   7.190
  224SOL    HW110671   0.469   6.348   7.247
  224SOL    HW210672   0.332   6.261   7.224
  225SOL     OW10673   2.999   4.249   0.064
  225SOL    HW110674   3.018   4.153   0.044
  225SOL    HW210675   3.048   4.308  -0.000
  226SOL     OW10676   1.736   7.915   1.321
  226SOL    HW110677   1.802   7.874   1.384
  226SOL    HW210678   1.756   7.885   1.227
  227SOL     OW10679   1.146   1.604   5.559
  227SOL    HW110680   1.215   1.561   5.618
  227SOL    HW210681   1.168   1.586   5.463
  228SOL     OW10682   5.767   3.800   7.283
  228SOL    HW110683   5.680   3.846   7.265
  228SOL    HW210684   5.774   3.717   7.229
  229SOL     OW10685   7.182   4.800   1.745
  229SOL    HW110686   7.239   4.828   1.822
  229SOL    HW210687   7.111   4.736   1.776
  230SOL     OW10688   4.182   2.338   3.310
  230SOL    HW110689   4.267   2.374   3.270
  230SOL    HW210690   4.112   2.330   3.240
  231SOL     OW10691   5.187   4.173   7.906
  231SOL    HW110692   5.148   4.264   7.919
  231SOL    HW210693   5.161   4.138   7.816
  232SOL     OW10694   3.684   0.350   0.848
  232SOL    HW110695   3.641   0.309   0.929
  232SOL    HW210696   3.628   0.426   0.815
  233SOL     OW10697   3.474   5.537   4.653
  233SOL    HW110698   3.533   5.601   4.702
  233SOL    HW210699   3.472   5.561   4.556
  234SOL     OW10700   0.988   3.382   7.243
  234SOL    HW110701   0.918   3.423   7.184
  234SOL    HW210702   0.961   3.391   7.339
  235SOL     OW10703   2.521   7.686   7.903
  235SOL    HW110704   2.513   7.636   7.816
  235SOL    HW210705   2.599   7.747   7.899
  236SOL     OW10706   7.670   4.412   7.538
  236SOL    HW110707   7.754   4.379   7.493
  236SOL    HW210708   7.682   4.410   7.637
  237SOL     OW10709   5.405   4.939   2.526
  237SOL    HW110710   5.473   4.872   2.500
  237SOL    HW210711   5.369   4.919   2.618
  238SOL     OW10712   3.858   5.637   3.684
  238SOL    HW110713   3.958   5.630   3.683
  238SOL    HW210714   3.817   5.556   3.642
  239SOL     OW10715   3.552   7.152   3.643
  239SOL    HW110716   3.631   7.165   3.704
  239SOL    HW210717   3.572   7.081   3.576
  240SOL     OW10718   6.757   1.409   0.836
  240SOL    HW110719   6.816   1.332   0.862
  240SOL    HW210720   6.661   1.380   0.836
  241SOL     OW10721   2.155   7.309   7.218
  241SOL    HW110722   2.067   7.340   7.257
  241SOL    HW210723   2.218   7.386   7.212
  242SOL     OW10724   5.250   2.034   6.653
  242SOL    HW110725   5.165   1.987   6.677
  242SOL    HW210726   5.253   2.124   6.696
  243SOL     OW10727   4.024   3.793   7.278
  243SOL    HW110728   3.964   3.720   7.312
  243SOL    HW210729   4.048   3.776   7.183
  244SOL     OW10730   6.062   1.063   6.185
  244SOL    HW110731   6.072   1.159   6.157
  244SOL    HW210732   6.000   1.056   6.263
  245SOL     OW10733   4.037   4.725   3.592
  245SOL    HW110734   4.121   4.775   3.571
  245SOL    HW210735   4.038   4.695   3.687
  246SOL     OW10736   6.795   5.957   0.223
  246SOL    HW110737   6.766   5.896   0.149
  246SOL    HW210738   6.764   5.921   0.310
  247SOL     OW10739   1.699   2.902   6.890
  247SOL    HW110740   1.708   2.804   6.876
  247SOL    HW210741   1.770   2.951   6.839
  248SOL     OW10742   2.508   3.928   0.351
  248SOL    HW110743   2.588   3.903   0.295
  248SOL    HW210744   2.539   3.968   0.438
  249SOL     OW10745   6.431   5.284   2.877
  249SOL    HW110746   6.353   5.345   2.861
  249SOL    HW210747   6.443   5.271   2.975
  250SOL     OW10748   5.352   3.112   4.830
  250SOL    HW110749   5.257   3.122   4.799
  250SOL    HW210750   5.363   3.150   4.922
  251SOL     OW10751   4.526   0.624   3.662
  251SOL    HW110752   4.504   0.681   3.583
  251SOL    HW210753   4.460   0.549   3.669
  252SOL     OW10754   7.249   4.289   5.576
  252SOL    HW110755   7.274   4.219   5.644
  252SOL    HW210756   7.325   4.305   5.513
  253SOL     OW10757   1.133   2.054   5.975
  253SOL    HW110758   1.063   2.121   5.952
  253SOL    HW210759   1.219   2.100   5.994
  254SOL     OW10760   2.815   2.605   5.503
  254SOL    HW110761   2.751   2.540   5.544
  254SOL    HW210762   2.865   2.655   5.575
  255SOL     OW10763   5.203   5.485   2.997
  255SOL    HW110764   5.263   5.412   2.966
  255SOL    HW210765   5.194   5.482   3.097
  256SOL     OW10766   3.069   2.659   2.480
  256SOL    HW110767   3.157   2.669   2.527
  256SOL    HW210768   3.049   2.741   2.428
  257SOL     OW10769   2.237   3.829   2.231
  257SOL    HW110770   2.184   3.755   2.272
  257SOL    HW210771   2.222   3.832   2.132
  258SOL     OW10772   2.801   2.172   3.241
  258SOL    HW110773   2.834   2.259   3.280
  258SOL    HW210774   2.767   2.188   3.148
  259SOL     OW10775   0.095   4.450   4.907
  259SOL    HW110776   0.064   4.544   4.894
  259SOL    HW210777   0.194   4.444   4.894
  260SOL     OW10778   1.957   3.892   0.516
  260SOL    HW110779   2.024   3.952   0.472
  260SOL    HW210780   1.927   3.931   0.602
  261SOL     OW10781   7.956   2.547   0.815
  261SOL    HW110782   7.905   2.632   0.806
  261SOL    HW210783   7.948   2.512   0.908
  262SOL     OW10784   2.247   3.405   6.636
  262SOL    HW110785   2.318   3.465   6.600
  262SOL    HW210786   2.170   3.401   6.573
  263SOL     OW10787   0.595   3.507   2.033
  263SOL    HW110788   0.640   3.456   2.107
  263SOL    HW210789   0.573   3.599   2.063
  264SOL     OW10790   0.721   6.819   5.807
  264SOL    HW110791   0.633   6.802   5.763
  264SOL    HW210792   0.756   6.909   5.780
  265SOL     OW10793   1.853   7.437   2.284
  265SOL    HW110794   1.796   7.509   2.243
  265SOL    HW210795   1.890   7.468   2.372
  266SOL     OW10796   5.616   0.987   1.138
  266SOL    HW110797   5.711   1.018   1.147
  266SOL    HW210798   5.614   0.887   1.127
  267SOL     OW10799   0.884   1.849   4.566
  267SOL    HW110800   0.894   1.770   4.505
  267SOL    HW210801   0.794   1.847   4.609
  268SOL     OW10802   5.194   0.362   3.342
  268SOL    HW110803   5.262   0.295   3.372
  268SOL    HW210804   5.140   0.325   3.267
  269SOL     OW10805   5.293   7.809   4.605
  269SOL    HW110806   5.237   7.795   4.523
  269SOL    HW210807   5.252   7.881   4.662
  270SOL     OW10808   6.319   7.281   6.525
  270SOL    HW110809   6.400   7.272   6.468
  270SOL    HW210810   6.277   7.191   6.538
  271SOL     OW10811   7.117   7.523   5.259
  271SOL    HW110812   7.209   7.549   5.291
  271SOL    HW210813   7.049   7.550   5.327
  272SOL     OW10814   7.912   7.478   7.822
  272SOL    HW110815   7.821   7.518   7.805
  272SOL    HW210816   7.975   7.548   7.855
  273SOL     OW10817   5.665   6.879   0.358
  273SOL    HW110818   5.610   6.957   0.389
  273SOL    HW210819   5.609   6.817   0.304
  274SOL     OW10820   3.827   7.231   6.979
  274SOL    HW110821   3.831   7.133   6.999
  274SOL    HW210822   3.867   7.249   6.889
  275SOL     OW10823   4.587   1.778   0.555
  275SOL    HW110824   4.543   1.720   0.486
  275SOL    HW210825   4.519   1.810   0.621
  276SOL     OW10826   5.775   0.615   5.064
  276SOL    HW110827   5.836   0.567   5.002
  276SOL    HW210828   5.745   0.701   5.023
  277SOL     OW10829   6.190   6.087   5.493
  277SOL    HW110830   6.265   6.132   5.543
  277SOL    HW210831   6.184   6.123   5.400
  278SOL     OW10832   6.099   4.488   7.298
  278SOL    HW110833   6.004   4.464   7.278
  278SOL    HW210834   6.113   4.586   7.283
  279SOL     OW10835   7.514   0.308   4.915
  279SOL    HW110836   7.599   0.256   4.905
  279SOL    HW210837   7.440   0.247   4.944
  280SOL     OW10838   1.314   4.974   0.347
  280SOL    HW110839   1.341   4.927   0.432
  280SOL    HW210840   1.260   4.913   0.290
  281SOL     OW10841   2.899   6.034   3.776
  281SOL    HW110842   2.861   6.126   3.783
  281SOL    HW210843   2.854   5.984   3.701
  282SOL     OW10844   0.189   4.616   0.996
  282SOL    HW110845   0.232   4.625   1.085
  282SOL    HW210846   0.111   4.679   0.989
  283SOL     OW10847   6.999   1.630   7.443
  283SOL    HW110848   6.925   1.694   7.461
  283SOL    HW210849   7.076   1.677   7.399
  284SOL     OW10850   6.348   1.274   0.183
  284SOL    HW110851   6.439   1.287   0.224
  284SOL    HW210852   6.278   1.289   0.252
  285SOL     OW10853   7.769   1.004   3.962
  285SOL    HW110854   7.677   1.002   3.923
  285SOL    HW210855   7.798   0.911   3.985
  286SOL     OW10856   3.488   4.427   1.524
  286SOL    HW110857   3.412   4.363   1.536
  286SOL    HW210858   3.463   4.498   1.457
  287SOL     OW10859   4.118   6.240   6.267
  287SOL    HW110860   4.043   6.181   6.299
  287SOL    HW210861   4.140   6.308   6.337
  288SOL     OW10862   4.146   6.715   4.091
  288SOL    HW110863   4.064   6.686   4.140
  288SOL    HW210864   4.157   6.661   4.007
  289SOL     OW10865   3.011   3.262   2.983
  289SOL    HW110866   3.080   3.265   3.055
  289SOL    HW210867   3.049   3.297   2.898
  290SOL     OW10868   0.925   7.273   7.368
  290SOL    HW110869   0.997   7.292   7.301
  290SOL    HW210870   0.836   7.284   7.326
  291SOL     OW10871   6.372   0.354   3.284
  291SOL    HW110872   6.323   0.361   3.370
  291SOL    HW210873   6.407   0.261   3.272
  292SOL     OW10874   6.309   1.604   6.138
  292SOL    HW110875   6.243   1.537   6.106
  292SOL    HW210876   6.282   1.639   6.228
  293SOL     OW10877   2.430   4.999   1.089
  293SOL    HW110878   2.416   4.945   1.172
  293SOL    HW210879   2.346   5.049   1.066
  294SOL     OW10880   3.538   0.976   2.027
  294SOL    HW110881   3.560   1.064   1.985
  294SOL    HW210882   3.483   0.990   2.109
  295SOL     OW10883   3.719   7.219   2.910
  295SOL    HW110884   3.680   7.311   2.903
  295SOL    HW210885   3.763   7.208   2.999
  296SOL     OW10886   5.793   5.866   4.694
  296SOL    HW110887   5.888   5.837   4.698
  296SOL    HW210888   5.757   5.855   4.602
  297SOL     OW10889   1.843   4.815   0.804
  297SOL    HW110890   1.808   4.722   0.795
  297SOL    HW210891   1.870   4.850   0.715
  298SOL     OW10892   4.478   0.754   0.586
  298SOL    HW110893   4.499   0.796   0.674
  298SOL    HW210894   4.384   0.775   0.559
  299SOL     OW10895   2.199   0.578   7.476
  299SOL    HW110896   2.280   0.621   7.517
  299SOL    HW210897   2.178   0.620   7.388
  300SOL     OW10898   2.836   1.875   1.837
  300SOL    HW110899   2.836   1.789   1.888
  300SOL    HW210900   2.920   1.926   1.856
  301SOL     OW10901   1.276   1.134   7.023
  301SOL    HW110902   1.245   1.045   7.055
  301SOL    HW210903   1.289   1.132   6.923
  302SOL     OW10904   0.325   7.040   2.663
  302SOL    HW110905   0.260   7.046   2.738
  302SOL    HW210906   0.281   7.001   2.582
  303SOL     OW10907   7.767   3.012   6.217
  303SOL    HW110908   7.851   3.026   6.271
  303SOL    HW210909   7.703   3.087   6.233
  304SOL     OW10910   2.417   0.029   5.469
  304SOL    HW110911   2.483   0.103   5.456
  304SOL    HW210912   2.400   0.016   5.566
  305SOL     OW10913   7.462   5.032   4.022
  305SOL    HW110914   7.531   5.103   4.009
  305SOL    HW210915   7.480   4.983   4.107
  306SOL     OW10916   0.792   5.053   2.267
  306SOL    HW110917   0.801   5.108   2.184
  306SOL    HW210918   0.874   5.062   2.323
  307SOL     OW10919   7.027   3.913   7.635
  307SOL    HW110920   7.105   3.855   7.612
  307SOL    HW210921   6.987   3.951   7.551
  308SOL     OW10922   3.318   4.932   0.635
  308SOL    HW110923   3.380   4.857   0.656
  308SOL    HW210924   3.358   4.990   0.563
  309SOL     OW10925   3.710   5.654   4.086
  309SOL    HW110926   3.654   5.611   4.015
  309SOL    HW210927   3.663   5.735   4.122
  310SOL     OW10928   0.277   7.471   1.020
  310SOL    HW110929   0.262   7.570   1.016
  310SOL    HW210930   0.207   7.428   1.076
  311SOL     OW10931   1.103   4.344   4.005
  311SOL    HW110932   1.190   4.304   3.975
  311SOL    HW210933   1.079   4.311   4.096
  312SOL     OW10934   5.598   0.263   0.789
  312SOL    HW110935   5.688   0.262   0.834
  312SOL    HW210936   5.604   0.308   0.700
  313SOL     OW10937   6.608   1.832   3.380
  313SOL    HW110938   6.680   1.883   3.428
  313SOL    HW210939   6.595   1.870   3.289
  314SOL     OW10940   5.285   6.111   3.154
  314SOL    HW110941   5.228   6.193   3.164
  314SOL    HW210942   5.367   6.120   3.210
  315SOL     OW10943   4.774   1.416   6.877
  315SOL    HW110944   4.692   1.373   6.915
  315SOL    HW210945   4.791   1.383   6.784
  316SOL     OW10946   7.679   0.271   2.788
  316SOL    HW110947   7.723   0.321   2.862
  316SOL    HW210948   7.593   0.315   2.763
  317SOL     OW10949   5.597   0.303   3.139
  317SOL    HW110950   5.664   0.241   3.096
  317SOL    HW210951   5.572   0.267   3.229
  318SOL     OW10952   6.212   4.759   6.735
  318SOL    HW110953   6.281   4.824   6.705
  318SOL    HW210954   6.220   4.743   6.834
  319SOL     OW10955   1.653   7.346   2.105
  319SOL    HW110956   1.729   7.290   2.139
  319SOL    HW210957   1.688   7.430   2.064
  320SOL     OW10958   2.036   1.804   6.396
  320SOL    HW110959   2.130   1.777   6.415
  320SOL    HW210960   1.984   1.811   6.481
  321SOL     OW10961   7.522   7.648   6.828
  321SOL    HW110962   7.516   7.550   6.848
  321SOL    HW210963   7.439   7.694   6.859
  322SOL     OW10964   4.637   7.487   2.134
  322SOL    HW110965   4.703   7.551   2.093
  322SOL    HW210966   4.561   7.538   2.174
  323SOL     OW10967   4.725   4.680   2.175
  323SOL    HW110968   4.742   4.609   2.244
  323SOL    HW210969   4.776   4.660   2.092
  324SOL     OW10970   4.724   6.939   4.607
  324SOL    HW110971   4.760   6.853   4.572
  324SOL    HW210972   4.682   6.925   4.697
  325SOL     OW10973   3.030   4.041   1.183
  325SOL    HW110974   3.080   4.008   1.263
  325SOL    HW210975   3.091   4.098   1.127
  326SOL     OW10976   4.747   1.450   6.407
  326SOL    HW110977   4.665   1.501   6.379
  326SOL    HW210978   4.807   1.509   6.460
  327SOL     OW10979   7.488   3.804   7.345
  327SOL    HW110980   7.424   3.864   7.392
  327SOL    HW210981   7.466   3.799   7.248
  328SOL     OW10982   0.815   6.655   4.913
  328SOL    HW110983   0.836   6.741   4.961
  328SOL    HW210984   0.761   6.674   4.831
  329SOL     OW10985   2.270   1.805   3.800
  329SOL    HW110986   2.312   1.720   3.831
  329SOL    HW210987   2.298   1.824   3.705
  330SOL     OW10988   1.912   1.130   1.081
  330SOL    HW110989   1.985   1.173   1.027
  330SOL    HW210990   1.951   1.058   1.138
  331SOL     OW10991   3.890   2.110   3.370
  331SOL    HW110992   3.913   2.046   3.443
  331SOL    HW210993   3.946   2.192   3.378
  332SOL     OW10994   2.509   7.092   2.689
  332SOL    HW110995   2.569   7.013   2.687
  332SOL    HW210996   2.456   7.098   2.604
  333SOL     OW10997   0.152   2.467   4.293
  333SOL    HW110998   0.243   2.453   4.254
  333SOL    HW210999   0.095   2.520   4.231
  334SOL     OW11000   4.215   4.701   0.826
  334SOL    HW111001   4.297   4.755   0.809
  334SOL    HW211002   4.220   4.659   0.917
  335SOL     OW11003   1.273   7.024   5.003
  335SOL    HW111004   1.352   6.982   4.958
  335SOL    HW211005   1.252   6.976   5.088
  336SOL     OW11006   1.588   1.099   5.516
  336SOL    HW111007   1.664   1.113   5.452
  336SOL    HW211008   1.526   1.177   5.512
  337SOL     OW11009   7.088   4.865   4.519
  337SOL    HW111010   7.005   4.901   4.561
  337SOL    HW211011   7.082   4.872   4.420
  338SOL     OW11012   5.781   1.381   0.132
  338SOL    HW111013   5.791   1.296   0.184
  338SOL    HW211014   5.813   1.368   0.038
  339SOL     OW11015   5.743   7.200   1.059
  339SOL    HW111016   5.690   7.283   1.076
  339SOL    HW211017   5.815   7.192   1.128
  340SOL     OW11018   3.816   6.636   0.108
  340SOL    HW111019   3.751   6.587   0.166
  340SOL    HW211020   3.902   6.651   0.156
  341SOL     OW11021   1.037   0.901   7.307
  341SOL    HW111022   0.939   0.883   7.318
  341SOL    HW211023   1.085   0.816   7.289
  342SOL     OW11024   3.933   0.624   7.578
  342SOL    HW111025   3.838   0.632   7.549
  342SOL    HW211026   3.937   0.602   7.676
  343SOL     OW11027   5.765   5.536   5.225
  343SOL    HW111028   5.809   5.622   5.249
  343SOL    HW211029   5.718   5.545   5.137
  344SOL     OW11030   5.318   0.624   7.953
  344SOL    HW111031   5.271   0.554   7.900
  344SOL    HW211032   5.308   0.713   7.909
  345SOL     OW11033   4.397   6.155   4.366
  345SOL    HW111034   4.310   6.199   4.344
  345SOL    HW211035   4.420   6.088   4.295
  346SOL     OW11036   5.682   4.339   4.743
  346SOL    HW111037   5.592   4.324   4.782
  346SOL    HW211038   5.675   4.356   4.645
  347SOL     OW11039   7.901   5.983   1.311
  347SOL    HW111040   7.821   6.022   1.357
  347SOL    HW211041   7.894   5.883   1.310
  348SOL     OW11042   0.446   6.716   4.046
  348SOL    HW111043   0.403   6.691   4.133
  348SOL    HW211044   0.457   6.635   3.989
  349SOL     OW11045   2.502   1.882   2.559
  349SOL    HW111046   2.469   1.848   2.470
  349SOL    HW211047   2.425   1.895   2.621
  350SOL     OW11048   7.773   4.425   1.112
  350SOL    HW111049   7.854   4.478   1.085
  350SOL    HW211050   7.797   4.327   1.117
  351SOL     OW11051   1.460   5.844   2.042
  351SOL    HW111052   1.379   5.816   1.990
  351SOL    HW211053   1.465   5.943   2.048
  352SOL     OW11054   2.197   2.190   6.277
  352SOL    HW111055   2.205   2.289   6.283
  352SOL    HW211056   2.230   2.147   6.361
  353SOL     OW11057   6.633   2.601   5.403
  353SOL    HW111058   6.699   2.533   5.435
  353SOL    HW211059   6.553   2.603   5.463
  354SOL     OW11060   4.232   5.146   6.747
  354SOL    HW111061   4.223   5.243   6.769
  354SOL    HW211062   4.328   5.123   6.731
  355SOL     OW11063   7.796   5.795   6.037
  355SOL    HW111064   7.892   5.795   6.008
  355SOL    HW211065   7.738   5.764   5.962
  356SOL     OW11066   2.738   5.729   4.835
  356SOL    HW111067   2.759   5.820   4.799
  356SOL    HW211068   2.728   5.734   4.935
  357SOL     OW11069   3.457   0.565   0.084
  357SOL    HW111070   3.394   0.602   0.016
  357SOL    HW211071   3.462   0.627   0.163
  358SOL     OW11072   4.837   4.155   2.753
  358SOL    HW111073   4.818   4.155   2.655
  358SOL    HW211074   4.930   4.122   2.770
  359SOL     OW11075   4.875   2.589   6.355
  359SOL    HW111076   4.869   2.518   6.426
  359SOL    HW211077   4.959   2.577   6.303
  360SOL     OW11078   1.857   3.277   0.689
  360SOL    HW111079   1.870   3.195   0.745
  360SOL    HW211080   1.910   3.269   0.605
  361SOL     OW11081   1.166   5.151   4.938
  361SOL    HW111082   1.153   5.058   4.903
  361SOL    HW211083   1.263   5.169   4.952
  362SOL     OW11084   7.782   0.866   4.694
  362SOL    HW111085   7.843   0.801   4.739
  362SOL    HW211086   7.811   0.882   4.600
  363SOL     OW11087   7.558   1.124   7.342
  363SOL    HW111088   7.572   1.034   7.384
  363SOL    HW211089   7.591   1.122   7.247
  364SOL     OW11090   4.683   4.533   3.811
  364SOL    HW111091   4.603   4.473   3.811
  364SOL    HW211092   4.765   4.480   3.788
  365SOL     OW11093   3.714   5.040   3.482
  365SOL    HW111094   3.720   4.976   3.559
  365SOL    HW211095   3.662   4.999   3.407
  366SOL     OW11096   4.632   0.561   4.025
  366SOL    HW111097   4.610   0.651   4.060
  366SOL    HW211098   4.600   0.491   4.089
  367SOL     OW11099   1.815   4.509   5.699
  367SOL    HW111100   1.852   4.601   5.701
  367SOL    HW211101   1.874   4.449   5.644
  368SOL     OW11102   3.506   6.852   0.415
  368SOL    HW111103   3.590   6.798   0.414
  368SOL    HW211104   3.509   6.921   0.343
  369SOL     OW11105   3.912   2.239   6.028
  369SOL    HW111106   3.898   2.143   6.003
  369SOL    HW211107   3.919   2.248   6.127
  370SOL     OW11108   3.749   7.029   0.523
  370SOL    HW111109   3.760   6.990   0.615
  370SOL    HW211110   3.693   7.112   0.527
  371SOL     OW11111   7.705   2.907   4.346
  371SOL    HW111112   7.628   2.947   4.295
  371SOL    HW211113   7.735   2.970   4.418
  372SOL     OW11114   2.958   4.122   1.623
  372SOL    HW111115   2.986   4.218   1.618
  372SOL    HW211116   3.022   4.071   1.680
  373SOL     OW11117   7.383   6.111   1.660
  373SOL    HW111118   7.349   6.169   1.586
  373SOL    HW211119   7.483   6.115   1.663
  374SOL     OW11120   0.849   6.215   6.078
  374SOL    HW111121   0.814   6.134   6.125
  374SOL    HW211122   0.943   6.233   6.104
  375SOL     OW11123   1.805   6.297   1.981
  375SOL    HW111124   1.843   6.232   1.915
  375SOL    HW211125   1.821   6.390   1.949
  376SOL     OW11126   4.593   3.456   2.098
  376SOL    HW111127   4.539   3.440   2.015
  376SOL    HW211128   4.676   3.507   2.075
  377SOL     OW11129   3.124   1.231   1.485
  377SOL    HW111130   3.194   1.256   1.418
  377SOL    HW211131   3.066   1.310   1.505
  378SOL     OW11132   3.127   4.381   6.402
  378SOL    HW111133   3.204   4.391   6.464
  378SOL    HW211134   3.147   4.312   6.332
  379SOL     OW11135   3.281   0.179   1.457
  379SOL    HW111136   3.375   0.146   1.462
  379SOL    HW211137   3.221   0.107   1.423
  380SOL     OW11138   0.383   0.323   2.962
  380SOL    HW111139   0.474   0.310   3.001
  380SOL    HW211140   0.380   0.282   2.871
  381SOL     OW11141   1.163   3.062   7.375
  381SOL    HW111142   1.197   2.980   7.421
  381SOL    HW211143   1.219   3.082   7.295
  382SOL     OW11144   7.267   0.134   3.911
  382SOL    HW111145   7.278   0.146   4.010
  382SOL    HW211146   7.333   0.192   3.863
  383SOL     OW11147   6.572   3.946   0.447
  383SOL    HW111148   6.531   3.916   0.361
  383SOL    HW211149   6.527   3.901   0.524
  384SOL     OW11150   1.048   2.446   4.244
  384SOL    HW111151   1.089   2.535   4.266
  384SOL    HW211152   0.972   2.459   4.181
  385SOL     OW11153   6.930   0.855   0.744
  385SOL    HW111154   6.896   0.862   0.650
  385SOL    HW211155   6.877   0.786   0.794
  386SOL     OW11156   5.228   0.489   3.521
  386SOL    HW111157   5.295   0.563   3.510
  386SOL    HW211158   5.145   0.525   3.563
  387SOL     OW11159   5.920   2.243   7.155
  387SOL    HW111160   5.970   2.167   7.195
  387SOL    HW211161   5.974   2.285   7.082
  388SOL     OW11162   7.090   6.823   7.831
  388SOL    HW111163   7.087   6.905   7.773
  388SOL    HW211164   7.103   6.849   7.926
  389SOL     OW11165   6.889   3.621   1.177
  389SOL    HW111166   6.833   3.703   1.163
  389SOL    HW211167   6.972   3.626   1.123
  390SOL     OW11168   2.411   4.241   6.919
  390SOL    HW111169   2.330   4.268   6.867
  390SOL    HW211170   2.401   4.148   6.952
  391SOL     OW11171   3.594   3.963   2.457
  391SOL    HW111172   3.578   4.060   2.436
  391SOL    HW211173   3.651   3.954   2.539
  392SOL     OW11174   5.323   4.378   0.287
  392SOL    HW111175   5.249   4.315   0.261
  392SOL    HW211176   5.400   4.368   0.224
  393SOL     OW11177   7.369   5.327   6.501
  393SOL    HW111178   7.369   5.330   6.400
  393SOL    HW211179   7.461   5.305   6.534
  394SOL     OW11180   3.132   2.506   5.401
  394SOL    HW111181   3.148   2.595   5.443
  394SOL    HW211182   3.050   2.509   5.344
  395SOL     OW11183   1.293   0.514   6.325
  395SOL    HW111184   1.323   0.609   6.331
  395SOL    HW211185   1.195   0.507   6.342
  396SOL     OW11186   0.798   4.113   2.444
  396SOL    HW111187   0.739   4.136   2.521
  396SOL    HW211188   0.887   4.083   2.478
  397SOL     OW11189   1.281   0.324   5.241
  397SOL    HW111190   1.283   0.295   5.145
  397SOL    HW211191   1.311   0.419   5.248
  398SOL     OW11192   0.418   6.630   5.917
  398SOL    HW111193   0.506   6.673   5.938
  398SOL    HW211194   0.412   6.610   5.820
  399SOL     OW11195   6.753   1.887   5.930
  399SOL    HW111196   6.658   1.918   5.937
  399SOL    HW211197   6.798   1.897   6.019
  400SOL     OW11198   4.012   5.305   1.100
  400SOL    HW111199   4.018   5.389   1.153
  400SOL    HW211200   3.949   5.241   1.143
  401SOL     OW11201   5.884   6.966   1.388
  401SOL    HW111202   5.835   7.030   1.329
  401SOL    HW211203   5.840   6.963   1.479
  402SOL     OW11204   5.059   6.929   4.918
  402SOL    HW111205   4.967   6.969   4.915
  402SOL    HW211206   5.117   6.982   4.980
  403SOL     OW11207   5.646   4.389   0.315
  403SOL    HW111208   5.618   4.391   0.219
  403SOL    HW211209   5.698   4.305   0.334
  404SOL     OW11210   6.758   3.280   3.766
  404SOL    HW111211   6.704   3.257   3.685
  404SOL    HW211212   6.814   3.361   3.748
  405SOL     OW11213   4.875   5.531   4.140
  405SOL    HW111214   4.833   5.621   4.127
  405SOL    HW211215   4.937   5.533   4.219
  406SOL     OW11216   3.955   6.806   0.373
  406SOL    HW111217   3.910   6.733   0.424
  406SOL    HW211218   4.041   6.773   0.333
  407SOL     OW11219   1.291   2.673   6.734
  407SOL    HW111220   1.206   2.690   6.785
  407SOL    HW211221   1.270   2.644   6.641
  408SOL     OW11222   0.624   2.066   2.253
  408SOL    HW111223   0.575   1.985   2.222
  408SOL    HW211224   0.682   2.043   2.332
  409SOL     OW11225   4.825   3.219   2.455
  409SOL    HW111226   4.844   3.269   2.540
  409SOL    HW211227   4.793   3.283   2.385
  410SOL     OW11228   2.432   7.325   1.656
  410SOL    HW111229   2.494   7.362   1.587
  410SOL    HW211230   2.369   7.396   1.686
  411SOL     OW11231   5.143   1.400   6.299
  411SOL    HW111232   5.112   1.447   6.217
  411SOL    HW211233   5.065   1.355   6.344
  412SOL     OW11234   0.729  -0.000   7.260
  412SOL    HW111235   0.663   0.004   7.184
  412SOL    HW211236   0.683   0.020   7.346
  413SOL     OW11237   7.630   1.560   6.190
  413SOL    HW111238   7.551   1.612   6.225
  413SOL    HW211239   7.617   1.542   6.092
  414SOL     OW11240   7.366   0.810   2.897
  414SOL    HW111241   7.295   0.763   2.844
  414SOL    HW211242   7.325   0.869   2.966
  415SOL     OW11243   6.507   0.330   4.860
  415SOL    HW111244   6.447   0.323   4.780
  415SOL    HW211245   6.495   0.250   4.919
  416SOL     OW11246   0.658   0.390   4.545
  416SOL    HW111247   0.713   0.472   4.529
  416SOL    HW211248   0.602   0.370   4.465
  417SOL     OW11249   0.388   3.548   1.712
  417SOL    HW111250   0.293   3.562   1.738
  417SOL    HW211251   0.430   3.635   1.688
  418SOL     OW11252   3.059   0.270   1.329
  418SOL    HW111253   2.988   0.265   1.258
  418SOL    HW211254   3.031   0.334   1.401
  419SOL     OW11255   4.697   3.585   7.232
  419SOL    HW111256   4.715   3.490   7.262
  419SOL    HW211257   4.601   3.608   7.248
  420SOL     OW11258   6.318   3.916   5.035
  420SOL    HW111259   6.413   3.947   5.042
  420SOL    HW211260   6.293   3.861   5.115
  421SOL     OW11261   1.976   5.336   2.507
  421SOL    HW111262   2.064   5.315   2.464
  421SOL    HW211263   1.936   5.417   2.466
  422SOL     OW11264   5.359   7.929   5.110
  422SOL    HW111265   5.411   7.857   5.063
  422SOL    HW211266   5.325   7.995   5.043
  423SOL     OW11267   3.029   5.231   6.550
  423SOL    HW111268   2.932   5.233   6.577
  423SOL    HW211269   3.086   5.252   6.630
  424SOL     OW11270   2.415   3.173   4.840
  424SOL    HW111271   2.322   3.170   4.805
  424SOL    HW211272   2.415   3.189   4.939
  425SOL     OW11273   6.745   6.059   4.643
  425SOL    HW111274   6.694   6.135   4.684
  425SOL    HW211275   6.709   6.038   4.552
  426SOL     OW11276   2.637   4.709   7.898
  426SOL    HW111277   2.718   4.708   7.840
  426SOL    HW211278   2.663   4.693   7.993
  427SOL     OW11279   6.700   2.271   1.283
  427SOL    HW111280   6.726   2.338   1.352
  427SOL    HW211281   6.670   2.317   1.200
  428SOL     OW11282   6.939   2.590   7.613
  428SOL    HW111283   6.966   2.516   7.676
  428SOL    HW211284   6.899   2.665   7.665
  429SOL     OW11285   1.786   6.697   0.911
  429SOL    HW111286   1.830   6.685   0.822
  429SOL    HW211287   1.742   6.611   0.939
  430SOL     OW11288   4.477   7.186   6.636
  430SOL    HW111289   4.414   7.154   6.565
  430SOL    HW211290   4.469   7.129   6.718
  431SOL     OW11291   0.052   4.970   1.604
  431SOL    HW111292   0.152   4.964   1.596
  431SOL    HW211293   0.013   5.007   1.519
  432SOL     OW11294   2.154   5.231   1.069
  432SOL    HW111295   2.181   5.300   1.002
  432SOL    HW211296   2.204   5.244   1.155
  433SOL     OW11297   5.353   6.481   1.835
  433SOL    HW111298   5.427   6.422   1.867
  433SOL    HW211299   5.329   6.459   1.740
  434SOL     OW11300   4.372   5.383   2.378
  434SOL    HW111301   4.283   5.363   2.420
  434SOL    HW211302   4.376   5.346   2.286
  435SOL     OW11303   0.392   1.837   5.101
  435SOL    HW111304   0.485   1.871   5.083
  435SOL    HW211305   0.332   1.861   5.025
  436SOL     OW11306   7.028   1.527   3.445
  436SOL    HW111307   6.968   1.585   3.390
  436SOL    HW211308   7.119   1.566   3.449
  437SOL     OW11309   4.793   2.355   5.818
  437SOL    HW111310   4.831   2.281   5.762
  437SOL    HW211311   4.746   2.318   5.897
  438SOL     OW11312   7.568   1.086   2.722
  438SOL    HW111313   7.517   1.057   2.641
  438SOL    HW211314   7.662   1.108   2.698
  439SOL     OW11315   3.918   2.522   4.164
  439SOL    HW111316   3.842   2.461   4.188
  439SOL    HW211317   3.999   2.468   4.140
  440SOL     OW11318   4.684   4.673   2.815
  440SOL    HW111319   4.776   4.711   2.809
  440SOL    HW211320   4.688   4.573   2.818
  441SOL     OW11321   4.095   3.011   1.667
  441SOL    HW111322   4.157   2.950   1.715
  441SOL    HW211323   4.139   3.045   1.583
  442SOL     OW11324   1.054   4.063   4.130
  442SOL    HW111325   0.959   4.092   4.119
  442SOL    HW211326   1.096   4.110   4.208
  443SOL     OW11327   6.970   2.089   5.680
  443SOL    HW111328   7.020   2.008   5.710
  443SOL    HW211329   6.877   2.087   5.719
  444SOL     OW11330   7.183   2.842   5.243
  444SOL    HW111331   7.234   2.927   5.253
  444SOL    HW211332   7.146   2.835   5.150
  445SOL     OW11333   1.670   4.292   5.794
  445SOL    HW111334   1.716   4.365   5.845
  445SOL    HW211335   1.577   4.320   5.770
  446SOL     OW11336   0.448   2.279   0.315
  446SOL    HW111337   0.476   2.259   0.409
  446SOL    HW211338   0.480   2.207   0.254
  447SOL     OW11339   2.270   3.063   5.296
  447SOL    HW111340   2.312   3.134   5.353
  447SOL    HW211341   2.299   3.075   5.201
  448SOL     OW11342   2.772   0.934   0.938
  448SOL    HW111343   2.865   0.934   0.975
  448SOL    HW211344   2.772   0.974   0.846
  449SOL     OW11345   1.694   5.080   1.519
  449SOL    HW111346   1.602   5.082   1.480
  449SOL    HW211347   1.693   5.121   1.610
  450SOL     OW11348   2.192   0.118   5.598
  450SOL    HW111349   2.100   0.112   5.637
  450SOL    HW211350   2.191   0.083   5.505
  451SOL     OW11351   6.329   3.069   5.917
  451SOL    HW111352   6.286   3.135   5.978
  451SOL    HW211353   6.261   3.033   5.853
  452SOL     OW11354   1.686   5.769   6.640
  452SOL    HW111355   1.776   5.747   6.602
  452SOL    HW211356   1.682   5.741   6.735
  453SOL     OW11357   1.538   1.599   5.397
  453SOL    HW111358   1.614   1.630   5.454
  453SOL    HW211359   1.534   1.499   5.399
  454SOL     OW11360   5.426   7.202   6.640
  454SOL    HW111361   5.450   7.241   6.551
  454SOL    HW211362   5.331   7.174   6.641
  455SOL     OW11363   0.583   3.600   7.946
  455SOL    HW111364   0.545   3.570   7.859
  455SOL    HW211365   0.512   3.646   8.000
  456SOL     OW11366   7.069   4.822   0.449
  456SOL    HW111367   6.987   4.856   0.401
  456SOL    HW211368   7.106   4.893   0.508
  457SOL     OW11369   0.305   7.343   6.852
  457SOL    HW111370   0.378   7.352   6.920
  457SOL    HW211371   0.322   7.263   6.795
  458SOL     OW11372   4.350   3.743   7.821
  458SOL    HW111373   4.256   3.738   7.858
  458SOL    HW211374   4.360   3.678   7.746
  459SOL     OW11375   3.915   4.528   4.887
  459SOL    HW111376   3.971   4.453   4.923
  459SOL    HW211377   3.823   4.495   4.866
  460SOL     OW11378   6.553   0.317   7.353
  460SOL    HW111379   6.607   0.391   7.311
  460SOL    HW211380   6.497   0.354   7.427
  461SOL     OW11381   2.146   6.805   6.441
  461SOL    HW111382   2.181   6.816   6.347
  461SOL    HW211383   2.218   6.826   6.507
  462SOL     OW11384   4.425   4.760   1.121
  462SOL    HW111385   4.346   4.771   1.060
  462SOL    HW211386   4.508   4.748   1.067
  463SOL     OW11387   0.603   6.844   4.983
  463SOL    HW111388   0.645   6.856   4.893
  463SOL    HW211389   0.534   6.914   4.999
  464SOL     OW11390   1.649   6.765   2.069
  464SOL    HW111391   1.734   6.722   2.099
  464SOL    HW211392   1.659   6.800   1.976
  465SOL     OW11393   3.441   0.493   6.011
  465SOL    HW111394   3.466   0.553   5.935
  465SOL    HW211395   3.492   0.519   6.093
  466SOL     OW11396   4.528   1.271   1.760
  466SOL    HW111397   4.534   1.175   1.731
  466SOL    HW211398   4.486   1.276   1.850
  467SOL     OW11399   3.410   5.705   3.425
  467SOL    HW111400   3.507   5.688   3.444
  467SOL    HW211401   3.387   5.673   3.333
  468SOL     OW11402   1.778   5.268   2.431
  468SOL    HW111403   1.741   5.324   2.505
  468SOL    HW211404   1.783   5.172   2.459
  469SOL     OW11405   1.416   3.466   0.394
  469SOL    HW111406   1.507   3.507   0.393
  469SOL    HW211407   1.414   3.389   0.458
  470SOL     OW11408   5.326   3.812   3.163
  470SOL    HW111409   5.341   3.713   3.173
  470SOL    HW211410   5.248   3.829   3.104
  471SOL     OW11411   2.999   4.801   7.780
  471SOL    HW111412   3.039   4.868   7.718
  471SOL    HW211413   2.910   4.772   7.746
  472SOL     OW11414   3.237   7.711   7.883
  472SOL    HW111415   3.221   7.749   7.792
  472SOL    HW211416   3.283   7.623   7.876
  473SOL     OW11417   5.616   2.092   1.428
  473SOL    HW111418   5.693   2.152   1.452
  473SOL    HW211419   5.576   2.052   1.510
  474SOL     OW11420   7.069   6.581   7.276
  474SOL    HW111421   7.054   6.575   7.178
  474SOL    HW211422   7.102   6.493   7.311
  475SOL     OW11423   2.098   1.375   0.480
  475SOL    HW111424   2.166   1.405   0.546
  475SOL    HW211425   2.018   1.435   0.482
  476SOL     OW11426   2.850   2.243   5.273
  476SOL    HW111427   2.848   2.326   5.330
  476SOL    HW211428   2.848   2.269   5.176
  477SOL     OW11429   0.220   7.803   5.470
  477SOL    HW111430   0.307   7.850   5.455
  477SOL    HW211431   0.237   7.711   5.506
  478SOL     OW11432   6.432   5.963   5.306
  478SOL    HW111433   6.343   5.958   5.351
  478SOL    HW211434   6.425   5.932   5.211
  479SOL     OW11435   5.189   4.983   2.080
  479SOL    HW111436   5.256   4.922   2.037
  479SOL    HW211437   5.175   4.957   2.175
  480SOL     OW11438   4.307   7.920   5.458
  480SOL    HW111439   4.364   8.000   5.439
  480SOL    HW211440   4.342   7.872   5.539
  481SOL     OW11441   5.061   6.965   6.085
  481SOL    HW111442   5.157   6.939   6.084
  481SOL    HW211443   5.036   7.009   5.999
  482SOL     OW11444   2.641   0.315   1.955
  482SOL    HW111445   2.642   0.403   1.907
  482SOL    HW211446   2.687   0.324   2.044
  483SOL     OW11447   2.827   3.853   5.735
  483SOL    HW111448   2.737   3.838   5.693
  483SOL    HW211449   2.816   3.894   5.825
  484SOL     OW11450   7.282   4.698   7.575
  484SOL    HW111451   7.193   4.736   7.600
  484SOL    HW211452   7.355   4.751   7.618
  485SOL     OW11453   3.458   0.149   4.437
  485SOL    HW111454   3.391   0.215   4.470
  485SOL    HW211455   3.414   0.082   4.377
  486SOL     OW11456   7.673   7.026   1.337
  486SOL    HW111457   7.699   6.936   1.370
  486SOL    HW211458   7.698   7.035   1.240
  487SOL     OW11459   3.574   3.555   0.810
  487SOL    HW111460   3.519   3.635   0.831
  487SOL    HW211461   3.516   3.480   0.781
  488SOL     OW11462   5.189   7.919   0.765
  488SOL    HW111463   5.154   7.866   0.688
  488SOL    HW211464   5.147   7.889   0.850
  489SOL     OW11465   6.100   7.398   5.863
  489SOL    HW111466   6.081   7.476   5.804
  489SOL    HW211467   6.147   7.429   5.946
  490SOL     OW11468   4.311   5.277   3.570
  490SOL    HW111469   4.375   5.351   3.550
  490SOL    HW211470   4.327   5.242   3.662
  491SOL     OW11471   2.308   1.982   0.051
  491SOL    HW111472   2.307   1.896  -0.000
  491SOL    HW211473   2.293   1.965   0.148
  492SOL     OW11474   6.393   6.108   6.868
  492SOL    HW111475   6.487   6.139   6.884
  492SOL    HW211476   6.395   6.013   6.836
  493SOL     OW11477   4.346   2.193   2.678
  493SOL    HW111478   4.357   2.293   2.679
  493SOL    HW211479   4.328   2.161   2.586
  494SOL     OW11480   7.753   3.971   2.798
  494SOL    HW111481   7.757   3.871   2.788
  494SOL    HW211482   7.837   4.004   2.840
  495SOL     OW11483   1.380   5.887   6.019
  495SOL    HW111484   1.428   5.972   6.044
  495SOL    HW211485   1.346   5.842   6.102
  496SOL     OW11486   0.925   5.243   5.918
  496SOL    HW111487   0.838   5.252   5.870
  496SOL    HW211488   1.001   5.271   5.859
  497SOL     OW11489   3.811   5.600   3.426
  497SOL    HW111490   3.722   5.646   3.428
  497SOL    HW211491   3.884   5.667   3.415
  498SOL     OW11492   1.054   4.278   2.783
  498SOL    HW111493   0.955   4.290   2.782
  498SOL    HW211494   1.099   4.366   2.796
  499SOL     OW11495   6.119   4.302   4.100
  499SOL    HW111496   6.192   4.368   4.117
  499SOL    HW211497   6.069   4.284   4.185
  500SOL     OW11498   0.275   0.724   5.959
  500SOL    HW111499   0.209   0.667   5.911
  500SOL    HW211500   0.261   0.717   6.058
  501SOL     OW11501   0.913   2.244   3.871
  501SOL    HW111502   0.961   2.324   3.906
  501SOL    HW211503   0.879   2.262   3.778
  502SOL     OW11504   3.027   1.372   1.984
  502SOL    HW111505   3.038   1.469   2.009
  502SOL    HW211506   3.069   1.314   2.054
  503SOL     OW11507   0.455   5.037   4.304
  503SOL    HW111508   0.546   5.014   4.340
  503SOL    HW211509   0.386   5.020   4.374
  504SOL     OW11510   6.378   2.127   0.863
  504SOL    HW111511   6.336   2.200   0.809
  504SOL    HW211512   6.474   2.147   0.879
  505SOL     OW11513   2.307   3.859   0.565
  505SOL    HW111514   2.241   3.890   0.497
  505SOL    HW211515   2.376   3.931   0.581
  506SOL     OW11516   0.391   1.156   6.316
  506SOL    HW111517   0.414   1.251   6.338
  506SOL    HW211518   0.339   1.152   6.231
  507SOL     OW11519   3.929   0.541   0.527
  507SOL    HW111520   3.882   0.520   0.613
  507SOL    HW211521   3.945   0.640   0.521
  508SOL     OW11522   3.431   0.408   7.332
  508SOL    HW111523   3.456   0.311   7.339
  508SOL    HW211524   3.400   0.428   7.240
  509SOL     OW11525   0.208   3.250   7.932
  509SOL    HW111526   0.237   3.320   7.866
  509SOL    HW211527   0.279   3.238   8.001
  510SOL     OW11528   2.813   6.098   2.316
  510SOL    HW111529   2.886   6.058   2.261
  510SOL    HW211530   2.768   6.171   2.265
  511SOL     OW11531   4.438   6.137   3.876
  511SOL    HW111532   4.532   6.116   3.901
  511SOL    HW211533   4.386   6.162   3.958
  512SOL     OW11534   1.586   6.998   1.496
  512SOL    HW111535   1.487   6.998   1.483
  512SOL    HW211536   1.623   6.907   1.482
  513SOL     OW11537   6.052   4.080   1.310
  513SOL    HW111538   6.071   4.178   1.311
  513SOL    HW211539   6.122   4.030   1.361
  514SOL     OW11540   1.288   5.461   2.071
  514SOL    HW111541   1.299   5.478   1.973
  514SOL    HW211542   1.198   5.491   2.101
  515SOL     OW11543   2.433   1.108   3.471
  515SOL    HW111544   2.348   1.150   3.501
  515SOL    HW211545   2.420   1.068   3.380
  516SOL     OW11546   3.900   2.924   0.797
  516SOL    HW111547   3.894   2.828   0.823
  516SOL    HW211548   3.961   2.973   0.859
  517SOL     OW11549   0.714   6.417   6.127
  517SOL    HW111550   0.632   6.384   6.080
  517SOL    HW211551   0.689   6.487   6.194
  518SOL     OW11552   5.910   7.345   7.922
  518SOL    HW111553   5.831   7.350   7.860
  518SOL    HW211554   5.896   7.406   8.000
  519SOL     OW11555   4.724   6.826   2.786
  519SOL    HW111556   4.817   6.826   2.822
  519SOL    HW211557   4.661   6.863   2.855
  520SOL     OW11558   7.197   0.386   7.234
  520SOL    HW111559   7.120   0.383   7.170
  520SOL    HW211560   7.218   0.294   7.267
  521SOL     OW11561   0.183   7.071   7.751
  521SOL    HW111562   0.270   7.103   7.788
  521SOL    HW211563   0.141   7.006   7.815
  522SOL     OW11564   2.208   7.372   6.488
  522SOL    HW111565   2.270   7.445   6.458
  522SOL    HW211566   2.115   7.391   6.457
  523SOL     OW11567   0.256   1.121   3.503
  523SOL    HW111568   0.293   1.179   3.431
  523SOL    HW211569   0.206   1.177   3.569
  524SOL     OW11570   3.700   4.434   1.222
  524SOL    HW111571   3.623   4.375   1.248
  524SOL    HW211572   3.765   4.440   1.297
  525SOL     OW11573   4.679   3.569   0.177
  525SOL    HW111574   4.604   3.550   0.241
  525SOL    HW211575   4.642   3.588   0.086
  526SOL     OW11576   6.096   1.940   3.761
  526SOL    HW111577   6.029   1.975   3.827
  526SOL    HW211578   6.095   1.840   3.761
  527SOL     OW11579   0.209   6.827   0.766
  527SOL    HW111580   0.201   6.925   0.783
  527SOL    HW211581   0.119   6.790   0.740
  528SOL     OW11582   3.249   3.883   7.947
  528SOL    HW111583   3.324   3.859   7.885
  528SOL    HW211584   3.256   3.979   7.973
  529SOL     OW11585   2.327   1.818   0.909
  529SOL    HW111586   2.271   1.876   0.968
  529SOL    HW211587   2.409   1.788   0.958
  530SOL     OW11588   4.852   7.818   0.752
  530SOL    HW111589   4.866   7.719   0.748
  530SOL    HW211590   4.874   7.852   0.843
  531SOL     OW11591   5.813   2.917   4.296
  531SOL    HW111592   5.724   2.877   4.319
  531SOL    HW211593   5.848   2.877   4.211
  532SOL     OW11594   3.756   2.734   4.327
  532SOL    HW111595   3.784   2.643   4.298
  532SOL    HW211596   3.719   2.731   4.420
  533SOL     OW11597   7.581   1.360   1.763
  533SOL    HW111598   7.650   1.365   1.836
  533SOL    HW211599   7.490   1.361   1.803
  534SOL     OW11600   3.427   5.050   3.489
  534SOL    HW111601   3.498   5.020   3.553
  534SOL    HW211602   3.413   4.980   3.418
  535SOL     OW11603   3.934   3.689   2.158
  535SOL    HW111604   3.850   3.668   2.209
  535SOL    HW211605   3.928   3.649   2.066
  536SOL     OW11606   3.881   5.602   3.952
  536SOL    HW111607   3.934   5.544   3.890
  536SOL    HW211608   3.831   5.671   3.900
  537SOL     OW11609   3.001   7.460   4.948
  537SOL    HW111610   2.952   7.540   4.911
  537SOL    HW211611   3.039   7.482   5.038
  538SOL     OW11612   6.230   0.755   1.101
  538SOL    HW111613   6.231   0.841   1.153
  538SOL    HW211614   6.285   0.686   1.148
  539SOL     OW11615   6.416   1.853   0.975
  539SOL    HW111616   6.428   1.901   0.888
  539SOL    HW211617   6.416   1.919   1.050
  540SOL     OW11618   3.644   6.935   6.105
  540SOL    HW111619   3.734   6.978   6.113
  540SOL    HW211620   3.573   7.004   6.098
  541SOL     OW11621   0.239   1.425   3.216
  541SOL    HW111622   0.172   1.374   3.163
  541SOL    HW211623   0.332   1.395   3.194
  542SOL     OW11624   1.503   3.763   6.439
  542SOL    HW111625   1.500   3.838   6.505
  542SOL    HW211626   1.434   3.777   6.368
  543SOL     OW11627   7.381   4.133   0.548
  543SOL    HW111628   7.306   4.106   0.488
  543SOL    HW211629   7.346   4.174   0.632
  544SOL     OW11630   7.585   7.770   5.997
  544SOL    HW111631   7.549   7.768   5.904
  544SOL    HW211632   7.665   7.830   6.002
  545SOL     OW11633   6.775   5.378   4.478
  545SOL    HW111634   6.811   5.295   4.521
  545SOL    HW211635   6.797   5.379   4.381
  546SOL     OW11636   0.362   4.542   3.924
  546SOL    HW111637   0.364   4.450   3.965
  546SOL    HW211638   0.311   4.604   3.984
  547SOL     OW11639   7.898   2.995   4.619
  547SOL    HW111640   7.927   2.988   4.524
  547SOL    HW211641   7.851   2.911   4.646
  548SOL     OW11642   7.226   3.497   6.280
  548SOL    HW111643   7.315   3.473   6.320
  548SOL    HW211644   7.238   3.520   6.183
  549SOL     OW11645   1.915   6.625   5.711
  549SOL    HW111646   1.855   6.693   5.669
  549SOL    HW211647   1.993   6.606   5.651
  550SOL     OW11648   4.204   6.063   5.803
  550SOL    HW111649   4.132   5.998   5.829
  550SOL    HW211650   4.174   6.156   5.820
  551SOL     OW11651   0.000   0.220   6.245
  551SOL    HW111652  -0.000   0.119   6.246
  551SOL    HW211653   0.019   0.255   6.337
  552SOL     OW11654   1.696   6.987   5.506
  552SOL    HW111655   1.664   6.949   5.419
  552SOL    HW211656   1.765   6.928   5.546
  553SOL     OW11657   3.293   7.016   3.721
  553SOL    HW111658   3.198   7.010   3.688
  553SOL    HW211659   3.347   7.073   3.659
  554SOL     OW11660   0.534   7.263   7.643
  554SOL    HW111661   0.489   7.347   7.613
  554SOL    HW211662   0.569   7.274   7.736
  555SOL     OW11663   0.268   1.465   1.158
  555SOL    HW111664   0.284   1.556   1.198
  555SOL    HW211665   0.351   1.432   1.113
  556SOL     OW11666   4.231   6.505   4.412
  556SOL    HW111667   4.253   6.550   4.498
  556SOL    HW211668   4.156   6.440   4.425
  557SOL     OW11669   7.734   0.958   7.106
  557SOL    HW111670   7.699   0.906   7.184
  557SOL    HW211671   7.709   0.913   7.020
  558SOL     OW11672   6.820   0.051   4.633
  558SOL    HW111673   6.758   0.128   4.618
  558SOL    HW211674   6.793  -0.000   4.714
  559SOL     OW11675   0.211   3.712   3.510
  559SOL    HW111676   0.167   3.639   3.458
  559SOL    HW211677   0.294   3.742   3.465
  560SOL     OW11678   7.801   4.805   3.489
  560SOL    HW111679   7.887   4.755   3.504
  560SOL    HW211680   7.729   4.765   3.545
  561SOL     OW11681   1.251   0.213   0.656
  561SOL    HW111682   1.281   0.298   0.613
  561SOL    HW211683   1.183   0.168   0.599
  562SOL     OW11684   6.677   2.235   0.026
  562SOL    HW111685   6.772   2.251  -0.000
  562SOL    HW211686   6.673   2.192   0.116
  563SOL     OW11687   3.567   6.818   3.412
  563SOL    HW111688   3.512   6.847   3.491
  563SOL    HW211689   3.605   6.727   3.430
  564SOL     OW11690   4.603   1.567   6.766
  564SOL    HW111691   4.565   1.651   6.726
  564SOL    HW211692   4.633   1.584   6.860
  565SOL     OW11693   7.070   5.794   3.824
  565SOL    HW111694   7.111   5.726   3.763
  565SOL    HW211695   7.030   5.748   3.904
  566SOL     OW11696   5.827   4.955   3.243
  566SOL    HW111697   5.887   5.035   3.240
  566SOL    HW211698   5.878   4.875   3.276
  567SOL     OW11699   7.363   4.339   4.565
  567SOL    HW111700   7.453   4.359   4.528
  567SOL    HW211701   7.370   4.312   4.661
  568SOL     OW11702   4.569   2.937   5.247
  568SOL    HW111703   4.644   2.871   5.242
  568SOL    HW211704   4.584   2.999   5.324
  569SOL     OW11705   6.102   2.918   7.024
  569SOL    HW111706   6.138   2.924   7.117
  569SOL    HW211707   6.027   2.852   7.021
  570SOL     OW11708   7.993   4.103   0.201
  570SOL    HW111709   7.999   4.196   0.238
  570SOL    HW211710   7.944   4.044   0.265
  571SOL     OW11711   2.641   6.884   6.101
  571SOL    HW111712   2.732   6.854   6.129
  571SOL    HW211713   2.644   6.920   6.008
  572SOL     OW11714   4.262   4.256   5.216
  572SOL    HW111715   4.180   4.219   5.259
  572SOL    HW211716   4.343   4.207   5.249
  573SOL     OW11717   1.150   5.009   6.911
  573SOL    HW111718   1.222   5.062   6.957
  573SOL    HW211719   1.073   4.994   6.973
  574SOL     OW11720   5.603   2.631   2.635
  574SOL    HW111721   5.591   2.632   2.734
  574SOL    HW211722   5.677   2.692   2.609
  575SOL     OW11723   3.080   7.753   0.692
  575SOL    HW111724   3.128   7.822   0.637
  575SOL    HW211725   3.144   7.708   0.754
  576SOL     OW11726   4.877   5.392   7.157
  576SOL    HW111727   4.898   5.315   7.217
  576SOL    HW211728   4.924   5.382   7.069
  577SOL     OW11729   0.606   7.596   7.745
  577SOL    HW111730   0.559   7.614   7.831
  577SOL    HW211731   0.671   7.520   7.755
  578SOL     OW11732   2.751   6.553   7.068
  578SOL    HW111733   2.801   6.471   7.093
  578SOL    HW211734   2.773   6.580   6.974
  579SOL     OW11735   3.222   0.219   6.168
  579SOL    HW111736   3.215   0.119   6.159
  579SOL    HW211737   3.237   0.243   6.264
  580SOL     OW11738   7.926   5.664   7.648
  580SOL    HW111739   7.959   5.741   7.703
  580SOL    HW211740   7.999   5.631   7.588
  581SOL     OW11741   4.395   0.949   7.105
  581SOL    HW111742   4.377   0.872   7.166
  581SOL    HW211743   4.321   1.015   7.112
  582SOL     OW11744   5.539   1.428   0.239
  582SOL    HW111745   5.604   1.499   0.213
  582SOL    HW211746   5.524   1.365   0.163
  583SOL     OW11747   7.606   5.103   6.676
  583SOL    HW111748   7.624   5.192   6.634
  583SOL    HW211749   7.591   5.114   6.774
  584SOL     OW11750   5.435   4.390   0.866
  584SOL    HW111751   5.528   4.354   0.872
  584SOL    HW211752   5.370   4.314   0.855
  585SOL     OW11753   7.862   1.342   1.624
  585SOL    HW111754   7.942   1.286   1.603
  585SOL    HW211755   7.830   1.324   1.717
  586SOL     OW11756   6.415   7.956   5.054
  586SOL    HW111757   6.504   7.919   5.026
  586SOL    HW211758   6.365   7.887   5.107
  587SOL     OW11759   6.951   2.213   6.377
  587SOL    HW111760   6.944   2.114   6.390
  587SOL    HW211761   6.906   2.239   6.291
  588SOL     OW11762   1.167   2.015   2.091
  588SOL    HW111763   1.128   1.923   2.088
  588SOL    HW211764   1.099   2.083   2.063
  589SOL     OW11765   0.754   5.902   7.953
  589SOL    HW111766   0.831   5.842   7.975
  589SOL    HW211767   0.713   5.874   7.866
  590SOL     OW11768   5.014   0.467   1.763
  590SOL    HW111769   4.938   0.518   1.722
  590SOL    HW211770   5.048   0.517   1.843
  591SOL     OW11771   1.773   6.934   6.690
  591SOL    HW111772   1.735   6.998   6.624
  591SOL    HW211773   1.722   6.938   6.776
  592SOL     OW11774   2.783   3.549   2.030
  592SOL    HW111775   2.853   3.612   1.998
  592SOL    HW211776   2.777   3.552   2.129
  593SOL     OW11777   6.555   0.206   0.356
  593SOL    HW111778   6.566   0.258   0.441
  593SOL    HW211779   6.614   0.243   0.285
  594SOL     OW11780   3.041   4.491   6.724
  594SOL    HW111781   3.039   4.407   6.670
  594SOL    HW211782   2.951   4.508   6.765
  595SOL     OW11783   0.352   7.643   5.846
  595SOL    HW111784   0.281   7.589   5.891
  595SOL    HW211785   0.398   7.587   5.777
  596SOL     OW11786   3.207   5.496   3.171
  596SOL    HW111787   3.158   5.495   3.259
  596SOL    HW211788   3.292   5.547   3.180
  597SOL     OW11789   1.054   4.284   1.423
  597SOL    HW111790   0.984   4.236   1.371
  597SOL    HW211791   1.084   4.228   1.500
  598SOL     OW11792   4.260   0.880   6.042
  598SOL    HW111793   4.187   0.948   6.047
  598SOL    HW211794   4.287   0.865   5.947
  599SOL     OW11795   4.768   6.801   6.168
  599SOL    HW111796   4.753   6.895   6.138
  599SOL    HW211797   4.763   6.795   6.267
  600SOL     OW11798   6.146   3.963   4.378
  600SOL    HW111799   6.238   3.944   4.413
  600SOL    HW211800   6.147   4.046   4.324
  601SOL     OW11801   5.949   1.968   0.427
  601SOL    HW111802   5.923   1.875   0.400
  601SOL    HW211803   6.038   1.967   0.471
  602SOL     OW11804   3.837   6.765   3.499
  602SOL    HW111805   3.804   6.671   3.506
  602SOL    HW211806   3.922   6.768   3.447
  603SOL     OW11807   2.272   7.757   7.659
  603SOL    HW111808   2.253   7.855   7.668
  603SOL    HW211809   2.285   7.734   7.562
  604SOL     OW11810   1.330   3.266   4.788
  604SOL    HW111811   1.375   3.304   4.708
  604SOL    HW211812   1.389   3.276   4.868
  605SOL     OW11813   3.618   5.971   0.744
  605SOL    HW111814   3.541   5.908   0.729
  605SOL    HW211815   3.639   5.975   0.842
  606SOL     OW11816   7.092   1.095   1.967
  606SOL    HW111817   7.071   1.188   1.997
  606SOL    HW211818   7.043   1.074   1.883
  607SOL     OW11819   1.522   3.452   5.023
  607SOL    HW111820   1.517   3.352   5.030
  607SOL    HW211821   1.512   3.493   5.114
  608SOL     OW11822   3.762   1.143   6.657
  608SOL    HW111823   3.704   1.063   6.644
  608SOL    HW211824   3.843   1.135   6.599
  609SOL     OW11825   7.615   5.424   6.820
  609SOL    HW111826   7.540   5.359   6.804
  609SOL    HW211827   7.694   5.399   6.765
  610SOL     OW11828   6.485   5.700   4.634
  610SOL    HW111829   6.574   5.727   4.597
  610SOL    HW211830   6.497   5.666   4.727
  611SOL     OW11831   6.034   3.233   5.406
  611SOL    HW111832   6.069   3.293   5.478
  611SOL    HW211833   6.026   3.284   5.320
  612SOL     OW11834   6.608   0.515   1.779
  612SOL    HW111835   6.595   0.587   1.711
  612SOL    HW211836   6.704   0.509   1.806
  613SOL     OW11837   0.116   6.182   5.719
  613SOL    HW111838   0.099   6.280   5.734
  613SOL    HW211839   0.101   6.159   5.623
  614SOL     OW11840   5.418   3.466   1.324
  614SOL    HW111841   5.387   3.553   1.284
  614SOL    HW211842   5.456   3.482   1.415
  615SOL     OW11843   4.782   3.881   7.332
  615SOL    HW111844   4.726   3.932   7.397
  615SOL    HW211845   4.760   3.910   7.239
  616SOL     OW11846   6.381   6.472   3.209
  616SOL    HW111847   6.311   6.415   3.253
  616SOL    HW211848   6.448   6.502   3.277
  617SOL     OW11849   5.453   6.426   7.644
  617SOL    HW111850   5.485   6.519   7.628
  617SOL    HW211851   5.494   6.364   7.577
  618SOL     OW11852   5.900   4.642   2.726
  618SOL    HW111853   5.830   4.598   2.670
  618SOL    HW211854   5.914   4.591   2.811
  619SOL     OW11855   0.585   5.101   2.114
  619SOL    HW111856   0.565   5.013   2.070
  619SOL    HW211857   0.604   5.170   2.044
  620SOL     OW11858   0.621   3.965   1.616
  620SOL    HW111859   0.699   3.993   1.560
  620SOL    HW211860   0.652   3.909   1.693
  621SOL     OW11861   0.973   6.734   4.531
  621SOL    HW111862   0.915   6.686   4.597
  621SOL    HW211863   0.927   6.816   4.497
  622SOL     OW11864   1.561   7.186   0.359
  622SOL    HW111865   1.594   7.248   0.430
  622SOL    HW211866   1.559   7.234   0.271
  623SOL     OW11867   0.632   0.124   5.481
  623SOL    HW111868   0.690   0.154   5.557
  623SOL    HW211869   0.660   0.170   5.397
  624SOL     OW11870   4.736   6.801   6.597
  624SOL    HW111871   4.835   6.808   6.594
  624SOL    HW211872   4.708   6.747   6.677
  625SOL     OW11873   1.915   6.940   2.384
  625SOL    HW111874   1.839   6.885   2.419
  625SOL    HW211875   1.912   7.032   2.423
  626SOL     OW11876   4.594   2.440   6.856
  626SOL    HW111877   4.691   2.417   6.851
  626SOL    HW211878   4.546   2.376   6.916
  627SOL     OW11879   6.718   3.930   5.069
  627SOL    HW111880   6.665   4.001   5.114
  627SOL    HW211881   6.656   3.863   5.026
  628SOL     OW11882   0.387   7.992   4.471
  628SOL    HW111883   0.289   7.975   4.487
  628SOL    HW211884   0.423   7.928   4.404
  629SOL     OW11885   2.007   7.002   1.497
  629SOL    HW111886   2.032   6.912   1.533
  629SOL    HW211887   2.042   7.014   1.405
  630SOL     OW11888   7.338   5.353   4.332
  630SOL    HW111889   7.278   5.418   4.379
  630SOL    HW211890   7.313   5.260   4.357
  631SOL     OW11891   1.078   0.660   1.655
  631SOL    HW111892   1.047   0.746   1.696
  631SOL    HW211893   1.016   0.633   1.582
  632SOL     OW11894   5.299   3.925   1.723
  632SOL    HW111895   5.217   3.935   1.780
  632SOL    HW211896   5.356   4.007   1.730
  633SOL     OW11897   6.712   4.624   1.854
  633SOL    HW111898   6.750   4.600   1.943
  633SOL    HW211899   6.633   4.685   1.865
  634SOL     OW11900   1.737   0.322   0.049
  634SOL    HW111901   1.766   0.406   0.003
  634SOL    HW211902   1.772   0.242  -0.000
  635SOL     OW11903   7.111   2.971   7.823
  635SOL    HW111904   7.126   2.872   7.820
  635SOL    HW211905   7.184   3.015   7.876
  636SOL     OW11906   2.778   0.549   2.053
  636SOL    HW111907   2.806   0.542   2.149
  636SOL    HW211908   2.830   0.484   1.997
  637SOL     OW11909   3.619   0.985   6.338
  637SOL    HW111910   3.602   0.925   6.416
  637SOL    HW211911   3.572   0.950   6.257
  638SOL     OW11912   0.079   1.225   0.449
  638SOL    HW111913   0.053   1.235   0.353
  638SOL    HW211914   0.168   1.180   0.456
  639SOL     OW11915   6.339   3.394   6.495
  639SOL    HW111916   6.399   3.352   6.563
  639SOL    HW211917   6.371   3.372   6.403
  640SOL     OW11918   7.010   4.516   2.728
  640SOL    HW111919   6.922   4.470   2.738
  640SOL    HW211920   7.070   4.493   2.805
  641SOL     OW11921   6.934   5.329   2.562
  641SOL    HW111922   7.013   5.348   2.620
  641SOL    HW211923   6.921   5.403   2.496
  642SOL     OW11924   2.774   6.188   0.793
  642SOL    HW111925   2.776   6.090   0.812
  642SOL    HW211926   2.816   6.239   0.868
  643SOL     OW11927   5.948   5.719   1.657
  643SOL    HW111928   5.975   5.645   1.595
  643SOL    HW211929   5.969   5.807   1.616
  644SOL     OW11930   7.486   0.277   7.276
  644SOL    HW111931   7.514   0.324   7.192
  644SOL    HW211932   7.473   0.343   7.349
  645SOL     OW11933   0.745   2.697   7.322
  645SOL    HW111934   0.677   2.765   7.350
  645SOL    HW211935   0.740   2.682   7.223
  646SOL     OW11936   3.788   6.222   5.824
  646SOL    HW111937   3.883   6.239   5.850
  646SOL    HW211938   3.746   6.306   5.791
  647SOL     OW11939   6.630   7.884   0.089
  647SOL    HW111940   6.562   7.813   0.110
  647SOL    HW211941   6.718   7.842   0.068
  648SOL     OW11942   6.597   3.208   1.445
  648SOL    HW111943   6.503   3.190   1.416
  648SOL    HW211944   6.648   3.252   1.370
  649SOL     OW11945   2.081   3.577   4.838
  649SOL    HW111946   2.102   3.668   4.803
  649SOL    HW211947   2.116   3.567   4.931
  650SOL     OW11948   0.582   2.067   5.164
  650SOL    HW111949   0.517   2.111   5.227
  650SOL    HW211950   0.581   2.115   5.076
  651SOL     OW11951   7.520   3.586   5.268
  651SOL    HW111952   7.603   3.627   5.307
  651SOL    HW211953   7.443   3.649   5.280
  652SOL     OW11954   6.802   2.365   1.893
  652SOL    HW111955   6.731   2.436   1.891
  652SOL    HW211956   6.877   2.395   1.951
  653SOL     OW11957   5.025   7.992   3.500
  653SOL    HW111958   5.090   8.000   3.424
  653SOL    HW211959   5.074   8.000   3.586
  654SOL     OW11960   2.044   1.726   3.047
  654SOL    HW111961   1.951   1.732   3.084
  654SOL    HW211962   2.042   1.686   2.955
  655SOL     OW11963   0.560   5.239   7.220
  655SOL    HW111964   0.628   5.293   7.170
  655SOL    HW211965   0.602   5.155   7.254
  656SOL     OW11966   5.278   6.234   3.488
  656SOL    HW111967   5.240   6.147   3.520
  656SOL    HW211968   5.308   6.226   3.394
  657SOL     OW11969   3.664   0.323   7.867
  657SOL    HW111970   3.754   0.366   7.880
  657SOL    HW211971   3.675   0.226   7.845
  658SOL     OW11972   1.320   2.431   2.040
  658SOL    HW111973   1.271   2.414   2.126
  658SOL    HW211974   1.261   2.409   1.962
  659SOL     OW11975   2.606   0.136   5.039
  659SOL    HW111976   2.528   0.116   5.098
  659SOL    HW211977   2.691   0.135   5.093
  660SOL     OW11978   7.318   3.472   5.663
  660SOL    HW111979   7.319   3.402   5.735
  660SOL    HW211980   7.229   3.517   5.660
  661SOL     OW11981   2.375   2.573   5.751
  661SOL    HW111982   2.312   2.583   5.828
  661SOL    HW211983   2.363   2.648   5.686
  662SOL     OW11984   1.378   0.498   2.432
  662SOL    HW111985   1.344   0.539   2.517
  662SOL    HW211986   1.340   0.547   2.353
  663SOL     OW11987   4.011   1.416   1.293
  663SOL    HW111988   3.998   1.330   1.244
  663SOL    HW211989   4.073   1.402   1.370
  664SOL     OW11990   1.564   1.650   1.801
  664SOL    HW111991   1.635   1.716   1.825
  664SOL    HW211992   1.599   1.585   1.734
  665SOL     OW11993   8.006   0.653   2.918
  665SOL    HW111994   7.946   0.723   2.957
  665SOL    HW211995   7.963   0.563   2.924
  666SOL     OW11996   5.987   6.535   6.753
  666SOL    HW111997   6.070   6.588   6.735
  666SOL    HW211998   6.003   6.471   6.828
  667SOL     OW11999   0.437   6.176   3.287
  667SOL    HW112000   0.487   6.116   3.225
  667SOL    HW212001   0.500   6.220   3.351
  668SOL     OW12002   6.111   0.261   5.189
  668SOL    HW112003   6.180   0.238   5.258
  668SOL    HW212004   6.071   0.178   5.151
  669SOL     OW12005   3.151   7.840   3.462
  669SOL    HW112006   3.091   7.919   3.473
  669SOL    HW212007   3.141   7.779   3.541
  670SOL     OW12008   5.289   3.080   1.436
  670SOL    HW112009   5.232   3.000   1.455
  670SOL    HW212010   5.363   3.086   1.503
  671SOL     OW12011   1.518   2.174   0.331
  671SOL    HW112012   1.482   2.265   0.348
  671SOL    HW212013   1.448   2.117   0.288
  672SOL     OW12014   5.959   7.228   7.668
  672SOL    HW112015   5.872   7.229   7.620
  672SOL    HW212016   5.947   7.192   7.761
  673SOL     OW12017   0.656   7.133   7.510
  673SOL    HW112018   0.750   7.113   7.537
  673SOL    HW212019   0.650   7.140   7.410
  674SOL     OW12020   3.842   5.306   3.843
  674SOL    HW112021   3.762   5.361   3.816
  674SOL    HW212022   3.876   5.336   3.931
  675SOL     OW12023   3.598   1.864   4.108
  675SOL    HW112024   3.682   1.918   4.107
  675SOL    HW212025   3.609   1.785   4.169
  676SOL     OW12026   0.236   1.416   4.146
  676SOL    HW112027   0.206   1.459   4.231
  676SOL    HW212028   0.251   1.486   4.076
  677SOL     OW12029   0.349   1.006   5.523
  677SOL    HW112030   0.427   1.065   5.505
  677SOL    HW212031   0.278   1.020   5.453
  678SOL     OW12032   3.147   1.889   2.283
  678SOL    HW112033   3.052   1.860   2.281
  678SOL    HW212034   3.165   1.954   2.209
  679SOL     OW12035   3.328   0.681   2.447
  679SOL    HW112036   3.277   0.735   2.513
  679SOL    HW212037   3.265   0.638   2.382
  680SOL     OW12038   7.470   1.913   4.753
  680SOL    HW112039   7.478   2.000   4.802
  680SOL    HW212040   7.552   1.897   4.697
  681SOL     OW12041   2.397   4.259   2.225
  681SOL    HW112042   2.382   4.181   2.166
  681SOL    HW212043   2.358   4.242   2.316
  682SOL     OW12044   7.181   4.772   2.323
  682SOL    HW112045   7.153   4.681   2.291
  682SOL    HW212046   7.131   4.796   2.406
  683SOL     OW12047   2.819   0.555   7.677
  683SOL    HW112048   2.880   0.476   7.670
  683SOL    HW212049   2.784   0.564   7.771
  684SOL     OW12050   8.000   6.375   6.241
  684SOL    HW112051   7.970   6.358   6.335
  684SOL    HW212052   7.995   6.473   6.221
  685SOL     OW12053   4.928   5.218   4.344
  685SOL    HW112054   4.983   5.284   4.395
  685SOL    HW212055   4.846   5.262   4.307
  686SOL     OW12056   0.058   0.357   2.938
  686SOL    HW112057   0.141   0.408   2.962
  686SOL    HW212058   0.077   0.259   2.935
  687SOL     OW12059   0.171   7.601   7.278
  687SOL    HW112060   0.110   7.555   7.342
  687SOL    HW212061   0.234   7.535   7.237
  688SOL     OW12062   6.302   1.879   3.918
  688SOL    HW112063   6.306   1.865   3.819
  688SOL    HW212064   6.269   1.796   3.962
  689SOL     OW12065   0.101   7.393   1.288
  689SOL    HW112066   0.132   7.299   1.275
  689SOL    HW212067   0.065   7.405   1.380
  690SOL     OW12068   3.071   2.714   4.512
  690SOL    HW112069   3.138   2.640   4.523
  690SOL    HW212070   3.013   2.719   4.594
  691SOL     OW12071   0.189   3.478   7.693
  691SOL    HW112072   0.189   3.444   7.599
  691SOL    HW212073   0.095   3.485   7.727
  692SOL     OW12074   6.767   2.064   7.770
  692SOL    HW112075   6.755   2.160   7.795
  692SOL    HW212076   6.746   2.051   7.673
  693SOL     OW12077   4.390   4.562   7.920
  693SOL    HW112078   4.421   4.656   7.934
  693SOL    HW212079   4.377   4.544   7.823
  694SOL     OW12080   6.279   3.558   7.353
  694SOL    HW112081   6.319   3.471   7.385
  694SOL    HW212082   6.189   3.541   7.313
  695SOL     OW12083   3.638   0.367   4.371
  695SOL    HW112084   3.560   0.426   4.352
  695SOL    HW212085   3.625   0.318   4.457
  696SOL     OW12086   0.645   7.326   2.008
  696SOL    HW112087   0.683   7.271   1.933
  696SOL    HW212088   0.549   7.346   1.989
  697SOL     OW12089   3.571   1.139   0.228
  697SOL    HW112090   3.536   1.202   0.298
  697SOL    HW212091   3.526   1.157   0.141
  698SOL     OW12092   2.672   2.990   0.707
  698SOL    HW112093   2.652   3.088   0.703
  698SOL    HW212094   2.588   2.937   0.692
  699SOL     OW12095   2.202   0.528   6.173
  699SOL    HW112096   2.163   0.618   6.189
  699SOL    HW212097   2.164   0.489   6.089
  700SOL     OW12098   4.212   1.161   1.476
  700SOL    HW112099   4.285   1.104   1.515
  700SOL    HW212100   4.250   1.224   1.408
  701SOL     OW12101   6.891   4.487   0.285
  701SOL    HW112102   6.857   4.579   0.307
  701SOL    HW212103   6.837   4.448   0.210
  702SOL     OW12104   2.093   6.452   0.175
  702SOL    HW112105   2.131   6.518   0.111
  702SOL    HW212106   2.018   6.493   0.226
  703SOL     OW12107   0.407   7.107   5.314
  703SOL    HW112108   0.329   7.101   5.252
  703SOL    HW212109   0.376   7.133   5.406
  704SOL     OW12110   1.618   3.100   0.381
  704SOL    HW112111   1.565   3.176   0.418
  704SOL    HW212112   1.584   3.076   0.290
  705SOL     OW12113   2.569   4.619   5.322
  705SOL    HW112114   2.628   4.538   5.328
  705SOL    HW212115   2.475   4.592   5.304
  706SOL     OW12116   6.524   5.507   3.672
  706SOL    HW112117   6.611   5.461   3.693
  706SOL    HW212118   6.452   5.439   3.660
  707SOL     OW12119   5.507   5.782   4.532
  707SOL    HW112120   5.566   5.848   4.485
  707SOL    HW212121   5.563   5.719   4.586
  708SOL     OW12122   4.826   4.198   4.317
  708SOL    HW112123   4.756   4.137   4.280
  708SOL    HW212124   4.802   4.223   4.411
  709SOL     OW12125   5.769   2.024   3.732
  709SOL    HW112126   5.785   1.931   3.766
  709SOL    HW212127   5.724   2.079   3.803
  710SOL     OW12128   2.380   2.655   7.195
  710SOL    HW112129   2.455   2.588   7.190
  710SOL    HW212130   2.416   2.744   7.221
  711SOL     OW12131   1.835   6.216   7.508
  711SOL    HW112132   1.922   6.246   7.468
  711SOL    HW212133   1.843   6.213   7.608
  712SOL     OW12134   5.938   5.605   6.432
  712SOL    HW112135   5.885   5.527   6.400
  712SOL    HW212136   5.878   5.674   6.471
  713SOL     OW12137   5.392   2.526   1.076
  713SOL    HW112138   5.335   2.451   1.043
  713SOL    HW212139   5.375   2.542   1.173
  714SOL     OW12140   4.760   4.419   4.316
  714SOL    HW112141   4.684   4.419   4.382
  714SOL    HW212142   4.844   4.448   4.361
  715SOL     OW12143   5.445   7.643   6.820
  715SOL    HW112144   5.391   7.614   6.741
  715SOL    HW212145   5.422   7.738   6.844
  716SOL     OW12146   0.461   3.792   3.174
  716SOL    HW112147   0.445   3.693   3.166
  716SOL    HW212148   0.465   3.833   3.083
  717SOL     OW12149   3.093   4.034   5.190
  717SOL    HW112150   3.045   4.102   5.246
  717SOL    HW212151   3.102   4.068   5.097
  718SOL     OW12152   4.875   4.141   5.997
  718SOL    HW112153   4.946   4.140   5.927
  718SOL    HW212154   4.872   4.052   6.043
  719SOL     OW12155   1.430   2.404   6.769
  719SOL    HW112156   1.446   2.497   6.737
  719SOL    HW212157   1.469   2.392   6.860
  720SOL     OW12158   7.419   7.305   5.192
  720SOL    HW112159   7.405   7.395   5.233
  720SOL    HW212160   7.387   7.306   5.097
  721SOL     OW12161   4.063   3.000   4.129
  721SOL    HW112162   4.139   2.940   4.154
  721SOL    HW212163   4.061   3.079   4.191
  722SOL     OW12164   4.004   4.546   6.143
  722SOL    HW112165   3.947   4.527   6.063
  722SOL    HW212166   3.988   4.639   6.175
  723SOL     OW12167   2.240   4.373   2.838
  723SOL    HW112168   2.198   4.427   2.764
  723SOL    HW212169   2.172   4.355   2.909
  724SOL     OW12170   7.758   0.669   3.731
  724SOL    HW112171   7.744   0.760   3.769
  724SOL    HW212172   7.719   0.664   3.639
  725SOL     OW12173   3.296   5.273   5.624
  725SOL    HW112174   3.373   5.278   5.688
  725SOL    HW212175   3.324   5.307   5.534
  726SOL     OW12176   4.665   1.741   7.474
  726SOL    HW112177   4.740   1.796   7.511
  726SOL    HW212178   4.643   1.773   7.382
  727SOL     OW12179   0.531   2.254   7.532
  727SOL    HW112180   0.442   2.299   7.525
  727SOL    HW212181   0.570   2.269   7.623
  728SOL     OW12182   6.032   6.712   2.455
  728SOL    HW112183   5.968   6.664   2.516
  728SOL    HW212184   6.126   6.685   2.475
  729SOL     OW12185   1.349   0.856   1.015
  729SOL    HW112186   1.352   0.913   0.932
  729SOL    HW212187   1.259   0.816   1.026
  730SOL     OW12188   2.048   0.320   6.926
  730SOL    HW112189   1.956   0.333   6.889
  730SOL    HW212190   2.063   0.383   7.002
  731SOL     OW12191   4.349   1.131   3.955
  731SOL    HW112192   4.444   1.160   3.949
  731SOL    HW212193   4.343   1.045   4.005
  732SOL     OW12194   7.919   3.630   5.221
  732SOL    HW112195   8.000   3.617   5.278
  732SOL    HW212196   7.911   3.555   5.154
  733SOL     OW12197   7.189   6.157   3.243
  733SOL    HW112198   7.266   6.094   3.228
  733SOL    HW212199   7.186   6.185   3.339
  734SOL     OW12200   5.851   3.949   4.668
  734SOL    HW112201   5.915   4.025   4.680
  734SOL    HW212202   5.844   3.898   4.754
  735SOL     OW12203   0.731   6.616   0.363
  735SOL    HW112204   0.642   6.572   0.380
  735SOL    HW212205   0.778   6.631   0.450
  736SOL     OW12206   6.293   3.850   5.934
  736SOL    HW112207   6.252   3.930   5.889
  736SOL    HW212208   6.330   3.876   6.023
  737SOL     OW12209   3.915   4.556   7.355
  737SOL    HW112210   3.899   4.616   7.433
  737SOL    HW212211   3.934   4.611   7.273
  738SOL     OW12212   0.902   2.097   4.492
  738SOL    HW112213   0.823   2.080   4.551
  738SOL    HW212214   0.892   2.047   4.406
  739SOL     OW12215   0.992   2.526   3.403
  739SOL    HW112216   1.016   2.610   3.452
  739SOL    HW212217   0.964   2.549   3.309
  740SOL     OW12218   7.984   0.031   7.428
  740SOL    HW112219   8.000   0.122   7.390
  740SOL    HW212220   7.901   0.032   7.484
  741SOL     OW12221   5.149   7.049   1.161
  741SOL    HW112222   5.156   6.994   1.077
  741SOL    HW212223   5.092   7.002   1.228
  742SOL     OW12224   3.454   0.859   7.086
  742SOL    HW112225   3.510   0.776   7.091
  742SOL    HW212226   3.451   0.892   6.992
  743SOL     OW12227   7.363   5.490   2.158
  743SOL    HW112228   7.348   5.392   2.143
  743SOL    HW212229   7.361   5.538   2.070
  744SOL     OW12230   4.742   3.458   7.010
  744SOL    HW112231   4.739   3.555   6.984
  744SOL    HW212232   4.658   3.432   7.057
  745SOL     OW12233   3.482   1.694   2.538
  745SOL    HW112234   3.443   1.748   2.612
  745SOL    HW212235   3.481   1.597   2.563
  746SOL     OW12236   5.945   7.674   7.482
  746SOL    HW112237   5.903   7.755   7.522
  746SOL    HW212238   5.910   7.658   7.390
  747SOL     OW12239   0.175   4.109   6.750
  747SOL    HW112240   0.152   4.018   6.786
  747SOL    HW212241   0.197   4.102   6.653
  748SOL     OW12242   4.318   0.301   0.257
  748SOL    HW112243   4.255   0.298   0.180
  748SOL    HW212244   4.267   0.309   0.343
  749SOL     OW12245   3.052   7.139   0.401
  749SOL    HW112246   3.054   7.040   0.389
  749SOL    HW212247   3.007   7.182   0.323
  750SOL     OW12248   1.149   1.273   7.635
  750SOL    HW112249   1.222   1.277   7.704
  750SOL    HW212250   1.067   1.318   7.671
  751SOL     OW12251   6.915   5.206   6.384
  751SOL    HW112252   6.903   5.262   6.301
  751SOL    HW212253   7.010   5.208   6.413
  752SOL     OW12254   1.698   4.103   5.169
  752SOL    HW112255   1.655   4.013   5.161
  752SOL    HW212256   1.704   4.145   5.079
  753SOL     OW12257   4.521   2.870   6.309
  753SOL    HW112258   4.468   2.950   6.283
  753SOL    HW212259   4.542   2.873   6.407
  754SOL     OW12260   4.886   5.694   0.178
  754SOL    HW112261   4.893   5.745   0.092
  754SOL    HW212262   4.933   5.606   0.169
  755SOL     OW12263   6.827   0.519   7.658
  755SOL    HW112264   6.819   0.601   7.714
  755SOL    HW212265   6.751   0.513   7.594
  756SOL     OW12266   0.055   3.201   7.025
  756SOL    HW112267   0.127   3.236   7.085
  756SOL    HW212268  -0.000   3.134   7.073
  757SOL     OW12269   3.807   2.082   5.163
  757SOL    HW112270   3.774   2.164   5.211
  757SOL    HW212271   3.903   2.096   5.136
  758SOL     OW12272   5.666   6.183   7.102
  758SOL    HW112273   5.756   6.201   7.063
  758SOL    HW212274   5.594   6.211   7.038
  759SOL     OW12275   4.988   5.885   3.191
  759SOL    HW112276   4.951   5.798   3.160
  759SOL    HW212277   4.935   5.919   3.268
  760SOL     OW12278   1.513   0.577   5.582
  760SOL    HW112279   1.530   0.501   5.644
  760SOL    HW212280   1.453   0.548   5.507
  761SOL     OW12281   0.153   7.746   0.256
  761SOL    HW112282   0.242   7.703   0.268
  761SOL    HW212283   0.137   7.767   0.159
  762SOL     OW12284   3.014   6.210   6.106
  762SOL    HW112285   2.997   6.246   6.013
  762SOL    HW212286   3.101   6.245   6.140
  763SOL     OW12287   2.901   1.205   4.816
  763SOL    HW112288   2.863   1.206   4.724
  763SOL    HW212289   2.831   1.178   4.882
  764SOL     OW12290   0.088   5.369   3.648
  764SOL    HW112291   0.161   5.418   3.697
  764SOL    HW212292  -0.000   5.386   3.692
  765SOL     OW12293   3.626   6.383   6.384
  765SOL    HW112294   3.694   6.333   6.330
  765SOL    HW212295   3.663   6.403   6.475
  766SOL     OW12296   3.864   1.842   7.358
  766SOL    HW112297   3.941   1.797   7.403
  766SOL    HW212298   3.885   1.939   7.344
  767SOL     OW12299   2.854   1.622   7.700
  767SOL    HW112300   2.770   1.594   7.653
  767SOL    HW212301   2.872   1.561   7.777
  768SOL     OW12302   6.859   5.461   1.432
  768SOL    HW112303   6.827   5.519   1.357
  768SOL    HW212304   6.847   5.365   1.408
  769SOL     OW12305   2.789   3.133   2.867
  769SOL    HW112306   2.845   3.074   2.924
  769SOL    HW212307   2.735   3.195   2.924
  770SOL     OW12308   5.534   5.004   4.840
  770SOL    HW112309   5.471   4.927   4.847
  770SOL    HW212310   5.535   5.038   4.746
  771SOL     OW12311   2.912   0.372   7.082
  771SOL    HW112312   2.875   0.286   7.116
  771SOL    HW212313   2.945   0.361   6.989
  772SOL     OW12314   7.753   1.688   5.233
  772SOL    HW112315   7.833   1.649   5.187
  772SOL    HW212316   7.670   1.643   5.202
  773SOL     OW12317   2.475   3.710   4.932
  773SOL    HW112318   2.378   3.690   4.942
  773SOL    HW212319   2.529   3.640   4.981
  774SOL     OW12320   6.975   0.122   0.175
  774SOL    HW112321   6.969   0.165   0.266
  774SOL    HW212322   6.981   0.023   0.185
  775SOL     OW12323   7.940   3.408   5.486
  775SOL    HW112324   8.000   3.479   5.449
  775SOL    HW212325   7.994   3.336   5.530
  776SOL     OW12326   0.079   4.386   6.209
  776SOL    HW112327   0.162   4.436   6.233
  776SOL    HW212328   0.022   4.441   6.148
  777SOL     OW12329   5.740   1.315   3.564
  777SOL    HW112330   5.823   1.274   3.527
  777SOL    HW212331   5.764   1.393   3.622
  778SOL     OW12332   7.946   3.819   4.817
  778SOL    HW112333   7.857   3.864   4.827
  778SOL    HW212334   8.000   3.829   4.900
  779SOL     OW12335   2.648   5.718   1.114
  779SOL    HW112336   2.569   5.688   1.169
  779SOL    HW212337   2.677   5.643   1.054
  780SOL     OW12338   2.494   3.313   1.542
  780SOL    HW112339   2.451   3.346   1.458
  780SOL    HW212340   2.585   3.355   1.551
  781SOL     OW12341   5.158   5.856   3.558
  781SOL    HW112342   5.180   5.936   3.501
  781SOL    HW212343   5.198   5.867   3.649
  782SOL     OW12344   2.118   5.794   0.637
  782SOL    HW112345   2.142   5.883   0.598
  782SOL    HW212346   2.195   5.757   0.690
  783SOL     OW12347   1.776   2.154   3.540
  783SOL    HW112348   1.811   2.165   3.632
  783SOL    HW212349   1.797   2.063   3.505
  784SOL     OW12350   7.225   1.351   0.777
  784SOL    HW112351   7.168   1.305   0.845
  784SOL    HW212352   7.310   1.300   0.763
  785SOL     OW12353   1.029   6.172   2.695
  785SOL    HW112354   1.129   6.160   2.697
  785SOL    HW212355   0.992   6.129   2.613
  786SOL     OW12356   3.823   6.188   0.817
  786SOL    HW112357   3.798   6.111   0.756
  786SOL    HW212358   3.902   6.162   0.873
  787SOL     OW12359   5.803   4.673   0.167
  787SOL    HW112360   5.720   4.649   0.117
  787SOL    HW212361   5.864   4.593   0.169
  788SOL     OW12362   6.566   4.085   0.925
  788SOL    HW112363   6.609   4.043   1.005
  788SOL    HW212364   6.501   4.155   0.955
  789SOL     OW12365   3.685   6.892   5.818
  789SOL    HW112366   3.605   6.936   5.859
  789SOL    HW212367   3.742   6.851   5.890
  790SOL     OW12368   6.247   0.009   6.651
  790SOL    HW112369   6.237   0.104   6.683
  790SOL    HW212370   6.208   0.000   6.559
  791SOL     OW12371   0.457   6.149   4.873
  791SOL    HW112372   0.518   6.097   4.812
  791SOL    HW212373   0.445   6.100   4.959
  792SOL     OW12374   0.289   0.474   2.358
  792SOL    HW112375   0.305   0.395   2.418
  792SOL    HW212376   0.248   0.549   2.411
  793SOL     OW12377   7.018   3.721   5.576
  793SOL    HW112378   6.988   3.635   5.533
  793SOL    HW212379   7.111   3.710   5.611
  794SOL     OW12380   5.922   4.977   1.286
  794SOL    HW112381   5.870   5.032   1.221
  794SOL    HW212382   5.939   5.029   1.369
  795SOL     OW12383   3.873   1.328   1.012
  795SOL    HW112384   3.810   1.349   1.086
  795SOL    HW212385   3.844   1.245   0.964
  796SOL     OW12386   7.519   2.664   0.687
  796SOL    HW112387   7.508   2.564   0.692
  796SOL    HW212388   7.516   2.693   0.591
  797SOL     OW12389   5.937   7.628   2.601
  797SOL    HW112390   5.955   7.541   2.556
  797SOL    HW212391   6.017   7.687   2.594
  798SOL     OW12392   2.416   5.976   2.139
  798SOL    HW112393   2.363   6.057   2.112
  798SOL    HW212394   2.356   5.896   2.140
  799SOL     OW12395   3.210   0.953   6.700
  799SOL    HW112396   3.177   1.044   6.728
  799SOL    HW212397   3.203   0.943   6.601
  800SOL     OW12398   1.411   5.332   6.625
  800SOL    HW112399   1.365   5.419   6.646
  800SOL    HW212400   1.452   5.294   6.708
  801SOL     OW12401   4.438   3.144   1.564
  801SOL    HW112402   4.426   3.077   1.491
  801SOL    HW212403   4.493   3.104   1.638
  802SOL     OW12404   1.715   7.522   4.662
  802SOL    HW112405   1.801   7.475   4.684
  802SOL    HW212406   1.645   7.499   4.729
  803SOL     OW12407   4.975   5.477   1.008
  803SOL    HW112408   4.919   5.396   0.991
  803SOL    HW212409   4.957   5.513   1.099
  804SOL     OW12410   2.756   6.606   4.427
  804SOL    HW112411   2.796   6.679   4.372
  804SOL    HW212412   2.787   6.614   4.522
  805SOL     OW12413   2.616   2.987   1.410
  805SOL    HW112414   2.681   2.941   1.471
  805SOL    HW212415   2.635   2.962   1.315
  806SOL     OW12416   2.856   4.952   2.097
  806SOL    HW112417   2.910   5.009   2.035
  806SOL    HW212418   2.762   4.986   2.101
  807SOL     OW12419   3.689   5.278   4.674
  807SOL    HW112420   3.648   5.189   4.650
  807SOL    HW212421   3.659   5.305   4.765
  808SOL     OW12422   3.550   0.646   7.286
  808SOL    HW112423   3.506   0.657   7.376
  808SOL    HW212424   3.619   0.717   7.273
  809SOL     OW12425   5.021   0.054   7.353
  809SOL    HW112426   5.002   0.152   7.353
  809SOL    HW212427   5.118   0.038   7.338
  810SOL     OW12428   2.849   0.524   4.567
  810SOL    HW112429   2.915   0.493   4.635
  810SOL    HW212430   2.789   0.593   4.607
  811SOL     OW12431   6.124   1.134   5.840
  811SOL    HW112432   6.077   1.058   5.886
  811SOL    HW212433   6.060   1.210   5.826
  812SOL     OW12434   6.055   1.537   2.763
  812SOL    HW112435   6.035   1.462   2.826
  812SOL    HW212436   6.004   1.618   2.789
  813SOL     OW12437   4.379   6.621   5.454
  813SOL    HW112438   4.314   6.683   5.412
  813SOL    HW212439   4.409   6.656   5.542
  814SOL     OW12440   4.328   6.008   1.869
  814SOL    HW112441   4.347   6.100   1.902
  814SOL    HW212442   4.267   5.961   1.933
  815SOL     OW12443   4.234   5.484   1.852
  815SOL    HW112444   4.288   5.416   1.803
  815SOL    HW212445   4.276   5.504   1.941
  816SOL     OW12446   0.060   4.854   5.802
  816SOL    HW112447  -0.000   4.917   5.853
  816SOL    HW212448   0.006   4.802   5.737
  817SOL     OW12449   7.942   4.751   7.387
  817SOL    HW112450   7.954   4.661   7.429
  817SOL    HW212451   7.883   4.744   7.307
  818SOL     OW12452   4.493   0.506   4.861
  818SOL    HW112453   4.398   0.498   4.831
  818SOL    HW212454   4.554   0.511   4.782
  819SOL     OW12455   7.319   6.702   6.315
  819SOL    HW112456   7.228   6.667   6.336
  819SOL    HW212457   7.352   6.665   6.228
  820SOL     OW12458   2.355   7.869   0.591
  820SOL    HW112459   2.418   7.937   0.552
  820SOL    HW212460   2.379   7.853   0.687
  821SOL     OW12461   6.913   0.652   5.196
  821SOL    HW112462   6.922   0.578   5.129
  821SOL    HW212463   6.985   0.643   5.266
  822SOL     OW12464   6.030   5.322   2.874
  822SOL    HW112465   6.001   5.278   2.959
  822SOL    HW212466   5.952   5.333   2.813
  823SOL     OW12467   0.235   6.787   5.785
  823SOL    HW112468   0.320   6.823   5.823
  823SOL    HW212469   0.239   6.788   5.685
  824SOL     OW12470   4.064   7.311   1.328
  824SOL    HW112471   4.024   7.403   1.328
  824SOL    HW212472   4.023   7.255   1.256
  825SOL     OW12473   0.310   0.571   5.551
  825SOL    HW112474   0.296   0.619   5.637
  825SOL    HW212475   0.394   0.604   5.507
  826SOL     OW12476   2.476   3.224   3.977
  826SOL    HW112477   2.537   3.182   3.910
  826SOL    HW212478   2.498   3.321   3.988
  827SOL     OW12479   2.419   0.776   0.795
  827SOL    HW112480   2.411   0.681   0.827
  827SOL    HW212481   2.481   0.781   0.717
  828SOL     OW12482   0.701   5.265   3.011
  828SOL    HW112483   0.771   5.293   3.077
  828SOL    HW212484   0.744   5.239   2.924
  829SOL     OW12485   2.390   4.304   4.334
  829SOL    HW112486   2.424   4.321   4.242
  829SOL    HW212487   2.457   4.335   4.401
  830SOL     OW12488   0.085   7.591   6.995
  830SOL    HW112489   0.183   7.570   6.996
  830SOL    HW212490   0.034   7.522   7.046
  831SOL     OW12491   1.443   3.282   2.438
  831SOL    HW112492   1.443   3.380   2.457
  831SOL    HW212493   1.418   3.266   2.343
  832SOL     OW12494   0.802   3.094   0.794
  832SOL    HW112495   0.793   3.031   0.716
  832SOL    HW212496   0.847   3.048   0.870
  833SOL     OW12497   6.052   7.074   6.945
  833SOL    HW112498   6.115   7.006   6.981
  833SOL    HW212499   5.976   7.029   6.898
  834SOL     OW12500   3.465   3.447   5.904
  834SOL    HW112501   3.517   3.528   5.879
  834SOL    HW212502   3.456   3.440   6.003
  835SOL     OW12503   3.936   5.414   0.548
  835SOL    HW112504   3.930   5.400   0.647
  835SOL    HW212505   3.966   5.508   0.529
  836SOL     OW12506   5.224   3.515   7.224
  836SOL    HW112507   5.138   3.556   7.255
  836SOL    HW212508   5.210   3.470   7.136
  837SOL     OW12509   7.817   5.197   6.490
  837SOL    HW112510   7.863   5.192   6.578
  837SOL    HW212511   7.821   5.291   6.454
  838SOL     OW12512   3.530   3.214   6.372
  838SOL    HW112513   3.497   3.305   6.395
  838SOL    HW212514   3.595   3.182   6.440
  839SOL     OW12515   7.394   4.168   4.945
  839SOL    HW112516   7.304   4.127   4.935
  839SOL    HW212517   7.387   4.268   4.947
  840SOL     OW12518   2.878   6.309   4.966
  840SOL    HW112519   2.846   6.368   5.041
  840SOL    HW212520   2.970   6.276   4.984
  841SOL     OW12521   2.200   4.644   7.392
  841SOL    HW112522   2.109   4.664   7.355
  841SOL    HW212523   2.209   4.682   7.484
  842SOL     OW12524   7.901   1.946   0.208
  842SOL    HW112525   7.965   2.014   0.244
  842SOL    HW212526   7.875   1.970   0.115
  843SOL     OW12527   3.406   6.678   3.604
  843SOL    HW112528   3.375   6.648   3.513
  843SOL    HW212529   3.387   6.606   3.671
  844SOL     OW12530   2.739   2.608   5.178
  844SOL    HW112531   2.654   2.561   5.152
  844SOL    HW212532   2.810   2.588   5.112
  845SOL     OW12533   3.701   3.224   0.353
  845SOL    HW112534   3.738   3.139   0.392
  845SOL    HW212535   3.716   3.225   0.254
  846SOL     OW12536   6.435   4.111   0.179
  846SOL    HW112537   6.382   4.088   0.260
  846SOL    HW212538   6.393   4.187   0.130
  847SOL     OW12539   6.545   5.842   1.935
  847SOL    HW112540   6.573   5.755   1.975
  847SOL    HW212541   6.576   5.848   1.840
  848SOL     OW12542   0.081   7.842   3.991
  848SOL    HW112543  -0.000   7.801   3.950
  848SOL    HW212544   0.112   7.787   4.069
  849SOL     OW12545   6.031   0.486   4.606
  849SOL    HW112546   5.947   0.493   4.552
  849SOL    HW212547   6.036   0.560   4.672
  850SOL     OW12548   6.172   1.191   2.647
  850SOL    HW112549   6.183   1.263   2.717
  850SOL    HW212550   6.077   1.159   2.647
  851SOL     OW12551   0.469   1.600   2.569
  851SOL    HW112552   0.389   1.639   2.523
  851SOL    HW212553   0.476   1.635   2.662
  852SOL     OW12554   6.437   3.869   1.804
  852SOL    HW112555   6.377   3.859   1.724
  852SOL    HW212556   6.406   3.809   1.877
  853SOL     OW12557   2.972   5.173   1.405
  853SOL    HW112558   2.978   5.098   1.339
  853SOL    HW212559   2.882   5.174   1.449
  854SOL     OW12560   6.535   3.494   1.522
  854SOL    HW112561   6.597   3.563   1.486
  854SOL    HW212562   6.557   3.474   1.618
  855SOL     OW12563   7.904   7.182   7.114
  855SOL    HW112564   7.864   7.139   7.033
  855SOL    HW212565   7.928   7.277   7.093
  856SOL     OW12566   3.877   7.547   6.619
  856SOL    HW112567   3.817   7.491   6.562
  856SOL    HW212568   3.823   7.597   6.687
  857SOL     OW12569   4.406   5.330   6.042
  857SOL    HW112570   4.451   5.413   6.075
  857SOL    HW212571   4.376   5.274   6.119
  858SOL     OW12572   5.025   3.628   2.248
  858SOL    HW112573   4.977   3.540   2.240
  858SOL    HW212574   4.975   3.689   2.309
  859SOL     OW12575   6.294   6.472   5.403
  859SOL    HW112576   6.252   6.549   5.356
  859SOL    HW212577   6.292   6.486   5.502
  860SOL     OW12578   1.390   2.266   0.613
  860SOL    HW112579   1.421   2.201   0.682
  860SOL    HW212580   1.469   2.305   0.564
  861SOL     OW12581   6.746   0.910   6.081
  861SOL    HW112582   6.781   0.879   5.992
  861SOL    HW212583   6.653   0.875   6.095
  862SOL     OW12584   2.629   2.513   2.390
  862SOL    HW112585   2.718   2.480   2.358
  862SOL    HW212586   2.580   2.440   2.437
  863SOL     OW12587   5.463   6.564   5.568
  863SOL    HW112588   5.387   6.520   5.519
  863SOL    HW212589   5.492   6.507   5.644
  864SOL     OW12590   6.068   6.708   0.640
  864SOL    HW112591   6.042   6.639   0.708
  864SOL    HW212592   6.039   6.798   0.670
  865SOL     OW12593   3.180   2.469   7.900
  865SOL    HW112594   3.253   2.402   7.889
  865SOL    HW212595   3.190   2.516   7.988
  866SOL     OW12596   4.397   2.860   6.704
  866SOL    HW112597   4.465   2.845   6.632
  866SOL    HW212598   4.441   2.899   6.785
  867SOL     OW12599   3.544   5.058   7.048
  867SOL    HW112600   3.616   5.109   7.001
  867SOL    HW212601   3.472   5.034   6.984
  868SOL     OW12602   3.463   7.812   6.912
  868SOL    HW112603   3.371   7.799   6.875
  868SOL    HW212604   3.458   7.859   7.000
  869SOL     OW12605   6.712   5.324   2.385
  869SOL    HW112606   6.674   5.405   2.430
  869SOL    HW212607   6.662   5.306   2.301
  870SOL     OW12608   6.312   4.740   7.201
  870SOL    HW112609   6.384   4.779   7.144
  870SOL    HW212610   6.278   4.809   7.266
  871SOL     OW12611   7.075   6.178   3.534
  871SOL    HW112612   7.080   6.082   3.509
  871SOL    HW212613   6.994   6.194   3.590
  872SOL     OW12614   1.515   7.011   5.676
  872SOL    HW112615   1.450   6.988   5.749
  872SOL    HW212616   1.467   7.056   5.601
  873SOL     OW12617   4.143   1.880   6.006
  873SOL    HW112618   4.238   1.873   5.975
  873SOL    HW212619   4.110   1.790   6.035
  874SOL     OW12620   5.639   7.202   3.015
  874SOL    HW112621   5.647   7.160   3.105
  874SOL    HW212622   5.729   7.231   2.982
  875SOL     OW12623   0.629   5.329   5.469
  875SOL    HW112624   0.645   5.230   5.471
  875SOL    HW212625   0.613   5.359   5.375
  876SOL     OW12626   1.608   1.551   4.757
  876SOL    HW112627   1.539   1.505   4.702
  876SOL    HW212628   1.698   1.512   4.738
  877SOL     OW12629   4.556   0.270   6.301
  877SOL    HW112630   4.610   0.270   6.216
  877SOL    HW212631   4.615   0.284   6.380
  878SOL     OW12632   7.113   4.610   7.298
  878SOL    HW112633   7.183   4.578   7.363
  878SOL    HW212634   7.157   4.646   7.216
  879SOL     OW12635   5.229   2.742   2.717
  879SOL    HW112636   5.140   2.778   2.744
  879SOL    HW212637   5.218   2.679   2.640
  880SOL     OW12638   6.287   0.073   7.645
  880SOL    HW112639   6.371   0.029   7.613
  880SOL    HW212640   6.263   0.039   7.736
  881SOL     OW12641   6.517   5.817   1.219
  881SOL    HW112642   6.496   5.805   1.122
  881SOL    HW212643   6.433   5.835   1.271
  882SOL     OW12644   5.341   2.372   0.643
  882SOL    HW112645   5.428   2.360   0.691
  882SOL    HW212646   5.334   2.307   0.567
  883SOL     OW12647   4.703   7.894   1.683
  883SOL    HW112648   4.773   7.900   1.612
  883SOL    HW212649   4.643   7.974   1.679
  884SOL     OW12650   1.278   5.968   2.668
  884SOL    HW112651   1.295   6.019   2.753
  884SOL    HW212652   1.181   5.950   2.658
  885SOL     OW12653   5.070   7.014   3.082
  885SOL    HW112654   5.030   6.923   3.068
  885SOL    HW212655   5.045   7.049   3.173
  886SOL     OW12656   1.546   3.509   4.732
  886SOL    HW112657   1.556   3.428   4.674
  886SOL    HW212658   1.484   3.491   4.807
  887SOL     OW12659   4.040   3.230   1.926
  887SOL    HW112660   4.114   3.164   1.918
  887SOL    HW212661   4.033   3.285   1.843
  888SOL     OW12662   6.842   5.469   5.108
  888SOL    HW112663   6.935   5.508   5.103
  888SOL    HW212664   6.783   5.530   5.161
  889SOL     OW12665   6.670   2.658   0.965
  889SOL    HW112666   6.589   2.675   1.022
  889SOL    HW212667   6.752   2.653   1.023
  890SOL     OW12668   1.802   1.053   6.667
  890SOL    HW112669   1.899   1.070   6.687
  890SOL    HW212670   1.759   1.138   6.636
  891SOL     OW12671   8.003   0.834   6.999
  891SOL    HW112672   7.985   0.844   6.901
  891SOL    HW212673   7.930   0.877   7.052
  892SOL     OW12674   2.145   6.274   3.832
  892SOL    HW112675   2.221   6.237   3.779
  892SOL    HW212676   2.111   6.357   3.788
  893SOL     OW12677   7.647   2.932   2.998
  893SOL    HW112678   7.591   2.854   3.027
  893SOL    HW212679   7.734   2.899   2.961
  894SOL     OW12680   1.469   7.376   3.880
  894SOL    HW112681   1.469   7.293   3.936
  894SOL    HW212682   1.395   7.436   3.908
  895SOL     OW12683   4.476   4.812   7.088
  895SOL    HW112684   4.575   4.804   7.083
  895SOL    HW212685   4.437   4.734   7.137
  896SOL     OW12686   7.160   0.398   1.650
  896SOL    HW112687   7.253   0.374   1.679
  896SOL    HW212688   7.163   0.444   1.561
  897SOL     OW12689   7.366   3.112   1.071
  897SOL    HW112690   7.322   3.026   1.045
  897SOL    HW212691   7.356   3.128   1.169
  898SOL     OW12692   7.436   1.811   1.203
  898SOL    HW112693   7.435   1.835   1.106
  898SOL    HW212694   7.425   1.712   1.214
  899SOL     OW12695   4.821   4.673   4.352
  899SOL    HW112696   4.728   4.636   4.361
  899SOL    HW212697   4.859   4.647   4.263
  900SOL     OW12698   4.553   0.145   0.131
  900SOL    HW112699   4.492   0.223   0.147
  900SOL    HW212700   4.551   0.120   0.034
  901SOL     OW12701   7.765   7.768   0.380
  901SOL    HW112702   7.787   7.707   0.456
  901SOL    HW212703   7.671   7.800   0.388
  902SOL     OW12704   1.882   2.185   2.932
  902SOL    HW112705   1.859   2.156   3.025
  902SOL    HW212706   1.803   2.227   2.889
  903SOL     OW12707   6.592   7.076   0.919
  903SOL    HW112708   6.629   6.991   0.956
  903SOL    HW212709   6.627   7.092   0.827
  904SOL     OW12710   5.845   2.674   0.625
  904SOL    HW112711   5.820   2.745   0.692
  904SOL    HW212712   5.769   2.659   0.562
  905SOL     OW12713   7.204   4.655   2.076
  905SOL    HW112714   7.126   4.718   2.075
  905SOL    HW212715   7.192   4.584   2.006
  906SOL     OW12716   6.547   2.456   6.197
  906SOL    HW112717   6.582   2.464   6.290
  906SOL    HW212718   6.609   2.399   6.142
  907SOL     OW12719   4.321   5.565   1.184
  907SOL    HW112720   4.273   5.584   1.099
  907SOL    HW212721   4.257   5.567   1.261
  908SOL     OW12722   6.693   6.244   1.949
  908SOL    HW112723   6.641   6.319   1.909
  908SOL    HW212724   6.745   6.275   2.028
  909SOL     OW12725   3.845   5.589   0.353
  909SOL    HW112726   3.917   5.541   0.302
  909SOL    HW212727   3.816   5.671   0.302
  910SOL     OW12728   3.274   2.932   2.452
  910SOL    HW112729   3.262   2.986   2.368
  910SOL    HW212730   3.353   2.965   2.502
  911SOL     OW12731   7.994   0.965   4.450
  911SOL    HW112732   7.904   1.007   4.437
  911SOL    HW212733   8.000   0.879   4.399
  912SOL     OW12734   4.563   2.565   5.111
  912SOL    HW112735   4.472   2.582   5.072
  912SOL    HW212736   4.570   2.609   5.201
  913SOL     OW12737   5.696   3.790   7.015
  913SOL    HW112738   5.697   3.889   6.997
  913SOL    HW212739   5.602   3.759   7.023
  914SOL     OW12740   4.192   4.683   4.388
  914SOL    HW112741   4.168   4.778   4.369
  914SOL    HW212742   4.118   4.622   4.357
  915SOL     OW12743   1.000   0.129   2.029
  915SOL    HW112744   1.095   0.098   2.033
  915SOL    HW212745   0.949   0.093   2.107
  916SOL     OW12746   5.687   5.978   0.891
  916SOL    HW112747   5.682   5.878   0.894
  916SOL    HW212748   5.738   6.007   0.811
  917SOL     OW12749   4.844   4.495   1.471
  917SOL    HW112750   4.780   4.531   1.403
  917SOL    HW212751   4.936   4.530   1.453
  918SOL     OW12752   2.264   5.629   2.205
  918SOL    HW112753   2.338   5.572   2.240
  918SOL    HW212754   2.289   5.664   2.114
  919SOL     OW12755   7.293   3.547   3.035
  919SOL    HW112756   7.245   3.462   3.055
  919SOL    HW212757   7.370   3.530   2.973
  920SOL     OW12758   6.204   0.155   0.089
  920SOL    HW112759   6.194   0.201  -0.000
  920SOL    HW212760   6.300   0.149   0.114
  921SOL     OW12761   3.114   0.330   5.132
  921SOL    HW112762   3.024   0.309   5.169
  921SOL    HW212763   3.130   0.278   5.048
  922SOL     OW12764   3.185   2.542   6.950
  922SOL    HW112765   3.115   2.536   7.021
  922SOL    HW212766   3.199   2.452   6.909
  923SOL     OW12767   5.911   3.073   7.320
  923SOL    HW112768   5.918   3.136   7.242
  923SOL    HW212769   5.939   3.119   7.404
  924SOL     OW12770   0.152   7.046   5.402
  924SOL    HW112771   0.059   7.018   5.377
  924SOL    HW212772   0.149   7.134   5.449
  925SOL     OW12773   7.922   5.811   0.788
  925SOL    HW112774   7.999   5.847   0.735
  925SOL    HW212775   7.946   5.806   0.885
  926SOL     OW12776   3.840   3.433   1.000
  926SOL    HW112777   3.891   3.516   1.023
  926SOL    HW212778   3.826   3.428   0.901
  927SOL     OW12779   5.632   1.552   7.268
  927SOL    HW112780   5.651   1.641   7.309
  927SOL    HW212781   5.608   1.564   7.171
  928SOL     OW12782   6.279   7.839   0.841
  928SOL    HW112783   6.257   7.895   0.761
  928SOL    HW212784   6.199   7.787   0.869
  929SOL     OW12785   2.979   2.496   1.666
  929SOL    HW112786   2.963   2.436   1.745
  929SOL    HW212787   2.892   2.522   1.624
  930SOL     OW12788   7.925   2.398   5.215
  930SOL    HW112789   8.000   2.447   5.171
  930SOL    HW212790   7.950   2.371   5.308
  931SOL     OW12791   6.663   3.759   2.173
  931SOL    HW112792   6.575   3.740   2.127
  931SOL    HW212793   6.648   3.771   2.271
  932SOL     OW12794   1.937   7.172   0.945
  932SOL    HW112795   2.007   7.102   0.966
  932SOL    HW212796   1.860   7.163   1.008
  933SOL     OW12797   5.477   0.265   3.522
  933SOL    HW112798   5.475   0.290   3.425
  933SOL    HW212799   5.570   0.246   3.551
  934SOL     OW12800   1.432   4.896   0.097
  934SOL    HW112801   1.427   4.990   0.129
  934SOL    HW212802   1.395   4.889   0.005
  935SOL     OW12803   6.083   6.220   6.489
  935SOL    HW112804   6.126   6.297   6.537
  935SOL    HW212805   6.120   6.134   6.524
  936SOL     OW12806   3.274   3.635   5.742
  936SOL    HW112807   3.363   3.663   5.777
  936SOL    HW212808   3.261   3.672   5.649
  937SOL     OW12809   4.348   2.691   3.136
  937SOL    HW112810   4.260   2.645   3.124
  937SOL    HW212811   4.345   2.751   3.215
  938SOL     OW12812   0.631   3.173   2.042
  938SOL    HW112813   0.562   3.119   2.092
  938SOL    HW212814   0.710   3.190   2.101
  939SOL     OW12815   2.544   5.828   1.655
  939SOL    HW112816   2.513   5.898   1.591
  939SOL    HW212817   2.523   5.856   1.749
  940SOL     OW12818   4.139   4.856   5.965
  940SOL    HW112819   4.101   4.787   6.028
  940SOL    HW212820   4.148   4.816   5.874
  941SOL     OW12821   5.306   1.682   2.330
  941SOL    HW112822   5.245   1.656   2.405
  941SOL    HW212823   5.288   1.626   2.250
  942SOL     OW12824   5.471   6.249   2.971
  942SOL    HW112825   5.380   6.207   2.980
  942SOL    HW212826   5.541   6.182   2.998
  943SOL     OW12827   7.297   0.718   0.198
  943SOL    HW112828   7.368   0.762   0.143
  943SOL    HW212829   7.333   0.698   0.289
  944SOL     OW12830   0.401   6.597   0.980
  944SOL    HW112831   0.476   6.539   1.014
  944SOL    HW212832   0.401   6.598   0.880
  945SOL     OW12833   6.517   0.923   4.917
  945SOL    HW112834   6.519   1.007   4.972
  945SOL    HW212835   6.559   0.939   4.828
  946SOL     OW12836   5.309   2.388   6.221
  946SOL    HW112837   5.252   2.463   6.254
  946SOL    HW212838   5.363   2.418   6.143
  947SOL     OW12839   1.739   2.737   1.015
  947SOL    HW112840   1.814   2.676   1.040
  947SOL    HW212841   1.746   2.763   0.919
  948SOL     OW12842   0.507   0.187   1.504
  948SOL    HW112843   0.483   0.232   1.590
  948SOL    HW212844   0.605   0.198   1.486
  949SOL     OW12845   0.745   7.033   5.599
  949SOL    HW112846   0.679   7.102   5.629
  949SOL    HW212847   0.838   7.067   5.614
  950SOL     OW12848   3.973   7.290   6.452
  950SOL    HW112849   3.918   7.338   6.383
  950SOL    HW212850   3.939   7.196   6.464
  951SOL     OW12851   6.648   3.462   0.502
  951SOL    HW112852   6.589   3.437   0.579
  951SOL    HW212853   6.707   3.538   0.529
  952SOL     OW12854   2.644   5.293   5.857
  952SOL    HW112855   2.717   5.260   5.918
  952SOL    HW212856   2.555   5.263   5.892
  953SOL     OW12857   1.833   0.088   5.647
  953SOL    HW112858   1.774   0.008   5.659
  953SOL    HW212859   1.886   0.105   5.730
  954SOL     OW12860   2.750   2.555   3.906
  954SOL    HW112861   2.703   2.505   3.978
  954SOL    HW212862   2.685   2.577   3.832
  955SOL     OW12863   7.082   2.717   6.814
  955SOL    HW112864   6.989   2.751   6.828
  955SOL    HW212865   7.146   2.768   6.872
  956SOL     OW12866   4.445   7.111   1.456
  956SOL    HW112867   4.386   7.095   1.535
  956SOL    HW212868   4.412   7.059   1.377
  957SOL     OW12869   4.695   1.130   5.571
  957SOL    HW112870   4.708   1.177   5.484
  957SOL    HW212871   4.744   1.179   5.643
  958SOL     OW12872   2.967   2.822   7.705
  958SOL    HW112873   2.957   2.842   7.608
  958SOL    HW212874   2.882   2.843   7.753
  959SOL     OW12875   2.632   2.773   2.460
  959SOL    HW112876   2.661   2.826   2.540
  959SOL    HW212877   2.672   2.812   2.377
  960SOL     OW12878   7.111   6.160   6.703
  960SOL    HW112879   7.070   6.082   6.656
  960SOL    HW212880   7.146   6.132   6.793
  961SOL     OW12881   6.862   4.047   0.393
  961SOL    HW112882   6.783   3.986   0.398
  961SOL    HW212883   6.871   4.083   0.300
  962SOL     OW12884   3.487   5.677   1.488
  962SOL    HW112885   3.533   5.766   1.498
  962SOL    HW212886   3.391   5.691   1.462
  963SOL     OW12887   4.630   2.029   2.566
  963SOL    HW112888   4.706   1.974   2.600
  963SOL    HW212889   4.543   1.982   2.582
  964SOL     OW12890   5.808   3.776   0.881
  964SOL    HW112891   5.844   3.695   0.834
  964SOL    HW212892   5.769   3.750   0.969
  965SOL     OW12893   0.160   8.000   6.970
  965SOL    HW112894   0.103   7.959   6.899
  965SOL    HW212895   0.112   7.998   7.058
  966SOL     OW12896   5.936   7.022   4.528
  966SOL    HW112897   5.923   6.931   4.488
  966SOL    HW212898   5.969   7.013   4.622
  967SOL     OW12899   1.797   2.140   0.738
  967SOL    HW112900   1.741   2.058   0.754
  967SOL    HW212901   1.847   2.130   0.653
  968SOL     OW12902   4.413   0.886   6.258
  968SOL    HW112903   4.441   0.975   6.222
  968SOL    HW212904   4.437   0.878   6.354
  969SOL     OW12905   3.666   7.240   3.337
  969SOL    HW112906   3.648   7.149   3.298
  969SOL    HW212907   3.644   7.241   3.434
  970SOL     OW12908   3.531   4.365   4.991
  970SOL    HW112909   3.613   4.308   5.004
  970SOL    HW212910   3.460   4.311   4.945
  971SOL     OW12911   6.237   4.306   5.865
  971SOL    HW112912   6.239   4.382   5.930
  971SOL    HW212913   6.292   4.230   5.899
  972SOL     OW12914   1.278   6.889   6.771
  972SOL    HW112915   1.369   6.878   6.811
  972SOL    HW212916   1.285   6.928   6.680
  973SOL     OW12917   1.623   2.450   6.043
  973SOL    HW112918   1.716   2.422   6.020
  973SOL    HW212919   1.564   2.439   5.963
  974SOL     OW12920   4.238   1.887   1.750
  974SOL    HW112921   4.337   1.898   1.738
  974SOL    HW212922   4.206   1.948   1.822
  975SOL     OW12923   0.859   7.848   0.521
  975SOL    HW112924   0.920   7.848   0.601
  975SOL    HW212925   0.883   7.773   0.460
  976SOL     OW12926   6.117   2.832   2.537
  976SOL    HW112927   6.178   2.911   2.527
  976SOL    HW212928   6.095   2.794   2.447
  977SOL     OW12929   7.031   7.904   1.796
  977SOL    HW112930   7.006   8.001   1.798
  977SOL    HW212931   7.048   7.875   1.702
  978SOL     OW12932   5.489   3.820   4.676
  978SOL    HW112933   5.506   3.906   4.725
  978SOL    HW212934   5.451   3.839   4.586
  979SOL     OW12935   4.546   2.693   2.818
  979SOL    HW112936   4.477   2.758   2.787
  979SOL    HW212937   4.569   2.630   2.744
  980SOL     OW12938   5.919   3.367   1.599
  980SOL    HW112939   5.828   3.353   1.558
  980SOL    HW212940   5.911   3.418   1.684
  981SOL     OW12941   5.800   4.689   1.230
  981SOL    HW112942   5.717   4.647   1.266
  981SOL    HW212943   5.776   4.757   1.160
  982SOL     OW12944   4.467   2.500   0.017
  982SOL    HW112945   4.499   2.589   0.049
  982SOL    HW212946   4.368   2.504  -0.001
  983SOL     OW12947   3.313   1.867   1.504
  983SOL    HW112948   3.394   1.854   1.447
  983SOL    HW212949   3.231   1.860   1.448
  984SOL     OW12950   3.040   5.657   1.283
  984SOL    HW112951   3.089   5.639   1.198
  984SOL    HW212952   3.096   5.629   1.361
  985SOL     OW12953   3.241   1.543   0.672
  985SOL    HW112954   3.213   1.504   0.759
  985SOL    HW212955   3.264   1.470   0.607
  986SOL     OW12956   7.223   3.469   5.432
  986SOL    HW112957   7.133   3.511   5.421
  986SOL    HW212958   7.294   3.540   5.432
  987SOL     OW12959   0.490   7.942   2.270
  987SOL    HW112960   0.415   7.876   2.269
  987SOL    HW212961   0.537   7.941   2.181
  988SOL     OW12962   5.452   6.125   3.796
  988SOL    HW112963   5.488   6.031   3.791
  988SOL    HW212964   5.364   6.130   3.751
  989SOL     OW12965   1.435   5.878   1.086
  989SOL    HW112966   1.518   5.832   1.117
  989SOL    HW212967   1.355   5.833   1.126
  990SOL     OW12968   4.957   7.104   2.867
  990SOL    HW112969   4.925   7.165   2.795
  990SOL    HW212970   4.943   7.145   2.956
  991SOL     OW12971   1.125   2.227   1.018
  991SOL    HW112972   1.092   2.309   1.065
  991SOL    HW212973   1.064   2.205   0.942
  992SOL     OW12974   3.978   7.961   7.785
  992SOL    HW112975   3.988   7.996   7.878
  992SOL    HW212976   3.945   7.867   7.787
  993SOL     OW12977   2.084   3.762   2.684
  993SOL    HW112978   2.083   3.790   2.588
  993SOL    HW212979   1.994   3.777   2.724
  994SOL     OW12980   2.276   6.278   2.361
  994SOL    HW112981   2.374   6.269   2.377
  994SOL    HW212982   2.259   6.309   2.268
  995SOL     OW12983   7.688   1.783   3.404
  995SOL    HW112984   7.743   1.786   3.487
  995SOL    HW212985   7.719   1.708   3.345
  996SOL     OW12986   3.546   1.984   0.796
  996SOL    HW112987   3.505   2.072   0.819
  996SOL    HW212988   3.492   1.910   0.835
  997SOL     OW12989   1.236   1.296   4.602
  997SOL    HW112990   1.191   1.248   4.677
  997SOL    HW212991   1.335   1.295   4.615
  998SOL     OW12992   2.588   3.462   3.351
  998SOL    HW112993   2.633   3.374   3.334
  998SOL    HW212994   2.508   3.471   3.292
  999SOL     OW12995   0.603   5.020   6.099
  999SOL    HW112996   0.672   5.090   6.082
  999SOL    HW212997   0.608   4.990   6.194
 1000SOL     OW12998   2.681   7.589   4.906
 1000SOL    HW112999   2.683   7.605   5.004
 1000SOL    HW213000   2.731   7.506   4.883
 1001SOL     OW13001   2.065   4.709   3.535
 1001SOL    HW113002   2.165   4.716   3.533
 1001SOL    HW213003   2.025   4.797   3.560
 1002SOL     OW13004   0.482   1.558   1.464
 1002SOL    HW113005   0.499   1.505   1.547
 1002SOL    HW213006   0.528   1.646   1.469
 1003SOL     OW13007   7.638   3.561   0.600
 1003SOL    HW113008   7.699   3.638   0.620
 1003SOL    HW213009   7.568   3.553   0.671
 1004SOL     OW13010   7.893   6.308   3.047
 1004SOL    HW113011   7.810   6.264   3.011
 1004SOL    HW213012   7.878   6.338   3.141
 1005SOL     OW13013   5.918   5.706   4.041
 1005SOL    HW113014   5.841   5.720   3.978
 1005SOL    HW213015   5.997   5.758   4.010
 1006SOL     OW13016   1.763   3.230   7.078
 1006SOL    HW113017   1.711   3.256   7.160
 1006SOL    HW213018   1.705   3.177   7.017
 1007SOL     OW13019   6.799   0.710   1.796
 1007SOL    HW113020   6.892   0.702   1.832
 1007SOL    HW213021   6.798   0.687   1.699
 1008SOL     OW13022   7.642   1.564   0.192
 1008SOL    HW113023   7.735   1.582   0.161
 1008SOL    HW213024   7.641   1.554   0.292
 1009SOL     OW13025   2.276   1.176   1.972
 1009SOL    HW113026   2.286   1.153   2.069
 1009SOL    HW213027   2.181   1.167   1.945
 1010SOL     OW13028   3.615   0.071   4.570
 1010SOL    HW113029   3.647  -0.000   4.506
 1010SOL    HW213030   3.598   0.031   4.660
 1011SOL     OW13031   0.957   0.873   4.212
 1011SOL    HW113032   0.863   0.853   4.240
 1011SOL    HW213033   0.957   0.949   4.146
 1012SOL     OW13034   7.002   0.813   2.624
 1012SOL    HW113035   6.953   0.840   2.541
 1012SOL    HW213036   6.944   0.753   2.679
 1013SOL     OW13037   1.581   0.484   1.921
 1013SOL    HW113038   1.569   0.411   1.854
 1013SOL    HW213039   1.570   0.447   2.014
 1014SOL     OW13040   0.385   2.039   2.647
 1014SOL    HW113041   0.480   2.024   2.622
 1014SOL    HW213042   0.351   1.961   2.700
 1015SOL     OW13043   4.977   7.435   3.085
 1015SOL    HW113044   4.925   7.506   3.133
 1015SOL    HW213045   5.062   7.473   3.048
 1016SOL     OW13046   0.521   0.209   3.624
 1016SOL    HW113047   0.619   0.214   3.604
 1016SOL    HW213048   0.480   0.300   3.615
 1017SOL     OW13049   4.222   5.248   0.124
 1017SOL    HW113050   4.243   5.341   0.094
 1017SOL    HW213051   4.305   5.192   0.123
 1018SOL     OW13052   4.822   4.179   7.472
 1018SOL    HW113053   4.772   4.253   7.517
 1018SOL    HW213054   4.813   4.095   7.525
 1019SOL     OW13055   0.354   4.132   6.903
 1019SOL    HW113056   0.381   4.220   6.942
 1019SOL    HW213057   0.337   4.066   6.976
 1020SOL     OW13058   1.235   0.518   6.929
 1020SOL    HW113059   1.334   0.509   6.913
 1020SOL    HW213060   1.212   0.479   7.017
 1021SOL     OW13061   1.303   4.219   2.111
 1021SOL    HW113062   1.230   4.281   2.081
 1021SOL    HW213063   1.271   4.166   2.190
 1022SOL     OW13064   2.931   2.659   3.411
 1022SOL    HW113065   2.836   2.639   3.386
 1022SOL    HW213066   2.968   2.586   3.469
 1023SOL     OW13067   4.678   6.215   7.756
 1023SOL    HW113068   4.701   6.227   7.853
 1023SOL    HW213069   4.690   6.301   7.707
 1024SOL     OW13070   1.340   3.594   1.489
 1024SOL    HW113071   1.286   3.512   1.505
 1024SOL    HW213072   1.393   3.584   1.404
 1025SOL     OW13073   0.900   1.793   1.493
 1025SOL    HW113074   0.996   1.819   1.488
 1025SOL    HW213075   0.859   1.797   1.402
 1026SOL     OW13076   0.987   7.179   6.133
 1026SOL    HW113077   0.960   7.087   6.104
 1026SOL    HW213078   0.906   7.232   6.158
 1027SOL     OW13079   3.882   1.380   4.718
 1027SOL    HW113080   3.916   1.290   4.746
 1027SOL    HW213081   3.829   1.371   4.633
 1028SOL     OW13082   6.821   1.018   2.064
 1028SOL    HW113083   6.870   1.097   2.027
 1028SOL    HW213084   6.853   0.997   2.156
 1029SOL     OW13085   2.552   7.791   4.500
 1029SOL    HW113086   2.517   7.866   4.556
 1029SOL    HW213087   2.485   7.718   4.495
 1030SOL     OW13088   3.438   5.954   0.371
 1030SOL    HW113089   3.359   6.004   0.338
 1030SOL    HW213090   3.464   5.987   0.462
 1031SOL     OW13091   7.770   2.707   3.517
 1031SOL    HW113092   7.767   2.806   3.534
 1031SOL    HW213093   7.693   2.662   3.561
 1032SOL     OW13094   4.322   2.434   4.892
 1032SOL    HW113095   4.258   2.358   4.906
 1032SOL    HW213096   4.306   2.476   4.803
 1033SOL     OW13097   1.715   7.552   3.158
 1033SOL    HW113098   1.640   7.496   3.192
 1033SOL    HW213099   1.780   7.570   3.232
 1034SOL     OW13100   6.476   1.689   3.977
 1034SOL    HW113101   6.421   1.630   3.917
 1034SOL    HW213102   6.524   1.633   4.044
 1035SOL     OW13103   2.672   0.220   1.725
 1035SOL    HW113104   2.579   0.240   1.755
 1035SOL    HW213105   2.670   0.168   1.640
 1036SOL     OW13106   5.612   1.244   7.877
 1036SOL    HW113107   5.540   1.245   7.947
 1036SOL    HW213108   5.647   1.337   7.863
 1037SOL     OW13109   3.024   2.539   6.523
 1037SOL    HW113110   2.988   2.631   6.507
 1037SOL    HW213111   3.104   2.543   6.583
 1038SOL     OW13112   0.110   5.467   4.638
 1038SOL    HW113113   0.129   5.558   4.601
 1038SOL    HW213114   0.139   5.462   4.734
 1039SOL     OW13115   0.380   6.342   6.913
 1039SOL    HW113116   0.472   6.303   6.921
 1039SOL    HW213117   0.341   6.359   7.003
 1040SOL     OW13118   7.718   4.579   7.880
 1040SOL    HW113119   7.624   4.611   7.862
 1040SOL    HW213120   7.731   4.566   7.978
 1041SOL     OW13121   7.029   0.579   0.769
 1041SOL    HW113122   7.085   0.661   0.759
 1041SOL    HW213123   7.069   0.519   0.839
 1042SOL     OW13124   0.306   2.168   1.868
 1042SOL    HW113125   0.322   2.095   1.801
 1042SOL    HW213126   0.318   2.257   1.824
 1043SOL     OW13127   2.497   1.098   0.043
 1043SOL    HW113128   2.397   1.102   0.038
 1043SOL    HW213129   2.529   1.146   0.124
 1044SOL     OW13130   0.672   5.622   0.286
 1044SOL    HW113131   0.655   5.523   0.293
 1044SOL    HW213132   0.587   5.670   0.265
 1045SOL     OW13133   4.516   6.459   5.514
 1045SOL    HW113134   4.593   6.518   5.536
 1045SOL    HW213135   4.535   6.407   5.431
 1046SOL     OW13136   4.596   1.733   1.946
 1046SOL    HW113137   4.657   1.679   1.888
 1046SOL    HW213138   4.511   1.683   1.962
 1047SOL     OW13139   6.139   0.409   3.730
 1047SOL    HW113140   6.225   0.368   3.702
 1047SOL    HW213141   6.062   0.363   3.685
 1048SOL     OW13142   6.894   2.452   6.240
 1048SOL    HW113143   6.858   2.540   6.210
 1048SOL    HW213144   6.949   2.464   6.323
 1049SOL     OW13145   7.011   2.770   1.304
 1049SOL    HW113146   7.111   2.766   1.300
 1049SOL    HW213147   6.976   2.822   1.227
 1050SOL     OW13148   2.253   4.299   1.218
 1050SOL    HW113149   2.331   4.242   1.245
 1050SOL    HW213150   2.267   4.393   1.248
 1051SOL     OW13151   7.846   2.754   4.459
 1051SOL    HW113152   7.927   2.738   4.516
 1051SOL    HW213153   7.764   2.726   4.508
 1052SOL     OW13154   3.603   3.378   5.594
 1052SOL    HW113155   3.654   3.309   5.645
 1052SOL    HW213156   3.529   3.415   5.650
 1053SOL     OW13157   3.647   3.777   3.947
 1053SOL    HW113158   3.566   3.752   4.001
 1053SOL    HW213159   3.728   3.778   4.005
 1054SOL     OW13160   1.053   3.148   3.886
 1054SOL    HW113161   1.093   3.188   3.803
 1054SOL    HW213162   0.984   3.081   3.861
 1055SOL     OW13163   1.172   0.786   4.091
 1055SOL    HW113164   1.129   0.727   4.159
 1055SOL    HW213165   1.161   0.747   4.000
 1056SOL     OW13166   5.264   4.140   1.880
 1056SOL    HW113167   5.347   4.154   1.934
 1056SOL    HW213168   5.241   4.223   1.830
 1057SOL     OW13169   5.967   4.315   2.674
 1057SOL    HW113170   5.950   4.413   2.686
 1057SOL    HW213171   5.924   4.283   2.590
 1058SOL     OW13172   0.810   5.947   5.514
 1058SOL    HW113173   0.761   5.870   5.555
 1058SOL    HW213174   0.843   5.921   5.423
 1059SOL     OW13175   3.510   4.797   7.990
 1059SOL    HW113176   3.426   4.752   7.959
 1059SOL    HW213177   3.530   4.876   7.932
 1060SOL     OW13178   4.585   4.345   7.678
 1060SOL    HW113179   4.663   4.353   7.739
 1060SOL    HW213180   4.554   4.436   7.650
 1061SOL     OW13181   2.059   0.936   4.694
 1061SOL    HW113182   2.045   0.910   4.790
 1061SOL    HW213183   2.123   1.012   4.689
 1062SOL     OW13184   4.747   2.931   6.079
 1062SOL    HW113185   4.653   2.897   6.064
 1062SOL    HW213186   4.744   3.028   6.102
 1063SOL     OW13187   0.402   3.588   5.314
 1063SOL    HW113188   0.456   3.504   5.307
 1063SOL    HW213189   0.309   3.573   5.281
 1064SOL     OW13190   5.800   5.834   6.205
 1064SOL    HW113191   5.819   5.783   6.289
 1064SOL    HW213192   5.713   5.804   6.166
 1065SOL     OW13193   7.198   3.523   0.383
 1065SOL    HW113194   7.232   3.614   0.360
 1065SOL    HW213195   7.154   3.481   0.303
 1066SOL     OW13196   1.836   0.633   1.934
 1066SOL    HW113197   1.918   0.691   1.928
 1066SOL    HW213198   1.787   0.653   2.019
 1067SOL     OW13199   4.018   4.301   3.601
 1067SOL    HW113200   4.040   4.259   3.689
 1067SOL    HW213201   4.042   4.239   3.526
 1068SOL     OW13202   3.829   1.488   7.053
 1068SOL    HW113203   3.881   1.436   6.984
 1068SOL    HW213204   3.743   1.518   7.015
 1069SOL     OW13205   1.083   4.490   0.548
 1069SOL    HW113206   1.170   4.462   0.590
 1069SOL    HW213207   1.092   4.492   0.449
 1070SOL     OW13208   3.395   3.109   1.285
 1070SOL    HW113209   3.324   3.122   1.355
 1070SOL    HW213210   3.431   3.198   1.256
 1071SOL     OW13211   5.187   4.180   7.036
 1071SOL    HW113212   5.168   4.245   6.963
 1071SOL    HW213213   5.281   4.192   7.069
 1072SOL     OW13214   2.064   2.160   7.175
 1072SOL    HW113215   2.116   2.234   7.133
 1072SOL    HW213216   2.102   2.139   7.265
 1073SOL     OW13217   7.587   5.769   3.587
 1073SOL    HW113218   7.649   5.720   3.648
 1073SOL    HW213219   7.557   5.709   3.512
 1074SOL     OW13220   3.005   1.398   6.574
 1074SOL    HW113221   2.997   1.412   6.673
 1074SOL    HW213222   3.092   1.434   6.542
 1075SOL     OW13223   1.936   4.150   0.025
 1075SOL    HW113224   2.028   4.183   0.004
 1075SOL    HW213225   1.917   4.163   0.123
 1076SOL     OW13226   2.688   4.354   2.445
 1076SOL    HW113227   2.708   4.322   2.352
 1076SOL    HW213228   2.597   4.325   2.473
 1077SOL     OW13229   0.068   5.862   7.695
 1077SOL    HW113230   0.066   5.786   7.760
 1077SOL    HW213231   0.139   5.847   7.627
 1078SOL     OW13232   6.741   2.076   2.783
 1078SOL    HW113233   6.675   2.141   2.822
 1078SOL    HW213234   6.715   2.053   2.689
 1079SOL     OW13235   0.991   0.880   3.444
 1079SOL    HW113236   0.983   0.859   3.346
 1079SOL    HW213237   1.085   0.906   3.466
 1080SOL     OW13238   0.629   1.809   2.769
 1080SOL    HW113239   0.542   1.835   2.727
 1080SOL    HW213240   0.666   1.728   2.724
 1081SOL     OW13241   1.910   0.920   6.442
 1081SOL    HW113242   1.868   0.831   6.456
 1081SOL    HW213243   2.005   0.909   6.411
 1082SOL     OW13244   4.497   4.539   4.332
 1082SOL    HW113245   4.423   4.598   4.301
 1082SOL    HW213246   4.512   4.551   4.430
 1083SOL     OW13247   5.956   0.750   2.123
 1083SOL    HW113248   6.016   0.807   2.066
 1083SOL    HW213249   5.937   0.663   2.078
 1084SOL     OW13250   5.122   0.905   0.755
 1084SOL    HW113251   5.199   0.852   0.792
 1084SOL    HW213252   5.144   0.937   0.663
 1085SOL     OW13253   6.170   6.404   5.926
 1085SOL    HW113254   6.081   6.449   5.921
 1085SOL    HW213255   6.236   6.463   5.972
 1086SOL     OW13256   0.462   2.603   2.356
 1086SOL    HW113257   0.386   2.538   2.348
 1086SOL    HW213258   0.427   2.692   2.385
 1087SOL     OW13259   2.188   3.009   7.369
 1087SOL    HW113260   2.145   2.953   7.439
 1087SOL    HW213261   2.250   2.954   7.314
 1088SOL     OW13262   4.786   3.087   2.648
 1088SOL    HW113263   4.714   3.041   2.596
 1088SOL    HW213264   4.750   3.116   2.737
 1089SOL     OW13265   1.671   5.182   1.110
 1089SOL    HW113266   1.662   5.277   1.079
 1089SOL    HW213267   1.767   5.160   1.124
 1090SOL     OW13268   0.099   1.599   7.024
 1090SOL    HW113269   0.102   1.681   6.968
 1090SOL    HW213270   0.005   1.575   7.045
 1091SOL     OW13271   1.501   2.904   6.174
 1091SOL    HW113272   1.502   3.002   6.157
 1091SOL    HW213273   1.594   2.868   6.175
 1092SOL     OW13274   7.517   0.666   3.088
 1092SOL    HW113275   7.460   0.644   3.009
 1092SOL    HW213276   7.525   0.587   3.148
 1093SOL     OW13277   4.507   3.096   6.017
 1093SOL    HW113278   4.502   3.016   5.957
 1093SOL    HW213279   4.434   3.092   6.085
 1094SOL     OW13280   3.572   2.547   3.143
 1094SOL    HW113281   3.581   2.499   3.230
 1094SOL    HW213282   3.645   2.520   3.081
 1095SOL     OW13283   5.436   1.536   7.592
 1095SOL    HW113284   5.425   1.436   7.602
 1095SOL    HW213285   5.444   1.560   7.496
 1096SOL     OW13286   3.257   0.741   3.301
 1096SOL    HW113287   3.272   0.829   3.347
 1096SOL    HW213288   3.227   0.756   3.207
 1097SOL     OW13289   6.646   5.982   1.085
 1097SOL    HW113290   6.612   6.067   1.126
 1097SOL    HW213291   6.593   5.962   1.002
 1098SOL     OW13292   1.020   5.383   1.325
 1098SOL    HW113293   0.926   5.393   1.292
 1098SOL    HW213294   1.067   5.312   1.274
 1099SOL     OW13295   0.994   6.432   2.470
 1099SOL    HW113296   1.038   6.520   2.490
 1099SOL    HW213297   0.961   6.432   2.376
 1100SOL     OW13298   4.969   6.286   1.465
 1100SOL    HW113299   4.944   6.208   1.408
 1100SOL    HW213300   4.921   6.282   1.552
 1101SOL     OW13301   5.087   4.345   5.278
 1101SOL    HW113302   5.112   4.426   5.225
 1101SOL    HW213303   5.086   4.265   5.219
 1102SOL     OW13304   3.023   5.387   5.904
 1102SOL    HW113305   2.953   5.316   5.910
 1102SOL    HW213306   3.104   5.351   5.858
 1103SOL     OW13307   3.785   6.155   6.782
 1103SOL    HW113308   3.806   6.185   6.689
 1103SOL    HW213309   3.795   6.232   6.846
 1104SOL     OW13310   4.189   6.107   7.847
 1104SOL    HW113311   4.278   6.062   7.847
 1104SOL    HW213312   4.197   6.201   7.814
 1105SOL     OW13313   0.423   2.776   7.578
 1105SOL    HW113314   0.426   2.867   7.538
 1105SOL    HW213315   0.418   2.707   7.505
 1106SOL     OW13316   0.912   1.898   7.766
 1106SOL    HW113317   0.837   1.916   7.702
 1106SOL    HW213318   0.887   1.928   7.858
 1107SOL     OW13319   4.020   2.994   3.842
 1107SOL    HW113320   3.938   2.981   3.787
 1107SOL    HW213321   4.049   3.090   3.838
 1108SOL     OW13322   0.223   3.550   4.797
 1108SOL    HW113323   0.311   3.593   4.818
 1108SOL    HW213324   0.157   3.618   4.765
 1109SOL     OW13325   4.882   4.143   0.127
 1109SOL    HW113326   4.788   4.136   0.093
 1109SOL    HW213327   4.882   4.177   0.221
 1110SOL     OW13328   3.452   2.297   5.153
 1110SOL    HW113329   3.513   2.347   5.092
 1110SOL    HW213330   3.388   2.241   5.100
 1111SOL     OW13331   2.881   5.643   0.962
 1111SOL    HW113332   2.923   5.721   1.009
 1111SOL    HW213333   2.845   5.671   0.873
 1112SOL     OW13334   5.703   7.536   5.936
 1112SOL    HW113335   5.682   7.455   5.991
 1112SOL    HW213336   5.619   7.571   5.893
 1113SOL     OW13337   0.072   3.092   5.557
 1113SOL    HW113338  -0.000   3.126   5.497
 1113SOL    HW213339   0.073   3.146   5.642
 1114SOL     OW13340   6.403   0.289   5.208
 1114SOL    HW113341   6.401   0.234   5.291
 1114SOL    HW213342   6.361   0.238   5.133
 1115SOL     OW13343   0.903   0.857   0.144
 1115SOL    HW113344   0.870   0.894   0.231
 1115SOL    HW213345   0.907   0.929   0.075
 1116SOL     OW13346   1.647   5.294   6.307
 1116SOL    HW113347   1.641   5.215   6.246
 1116SOL    HW213348   1.613   5.270   6.398
 1117SOL     OW13349   7.774   4.995   7.292
 1117SOL    HW113350   7.872   4.993   7.271
 1117SOL    HW213351   7.756   4.939   7.373
 1118SOL     OW13352   6.950   2.121   6.001
 1118SOL    HW113353   6.961   2.032   5.957
 1118SOL    HW213354   7.039   2.157   6.028
 1119SOL     OW13355   5.715   4.949   0.666
 1119SOL    HW113356   5.782   4.955   0.741
 1119SOL    HW213357   5.737   5.017   0.595
 1120SOL     OW13358   2.822   6.729   5.506
 1120SOL    HW113359   2.822   6.634   5.473
 1120SOL    HW213360   2.806   6.731   5.605
 1121SOL     OW13361   0.585   4.039   7.671
 1121SOL    HW113362   0.525   4.058   7.748
 1121SOL    HW213363   0.674   4.083   7.684
 1122SOL     OW13364   2.230   3.556   3.474
 1122SOL    HW113365   2.136   3.574   3.501
 1122SOL    HW213366   2.232   3.512   3.384
 1123SOL     OW13367   2.730   5.264   7.216
 1123SOL    HW113368   2.787   5.254   7.298
 1123SOL    HW213369   2.634   5.274   7.244
 1124SOL     OW13370   5.906   5.411   5.656
 1124SOL    HW113371   5.825   5.470   5.652
 1124SOL    HW213372   5.893   5.332   5.596
 1125SOL     OW13373   6.738   3.490   1.751
 1125SOL    HW113374   6.813   3.556   1.749
 1125SOL    HW213375   6.701   3.484   1.844
 1126SOL     OW13376   5.350   0.093   3.018
 1126SOL    HW113377   5.360   0.163   2.947
 1126SOL    HW213378   5.435   0.084   3.070
 1127SOL     OW13379   0.737   1.676   5.161
 1127SOL    HW113380   0.671   1.601   5.161
 1127SOL    HW213381   0.688   1.763   5.166
 1128SOL     OW13382   7.628   5.606   1.720
 1128SOL    HW113383   7.621   5.510   1.749
 1128SOL    HW213384   7.582   5.618   1.632
 1129SOL     OW13385   7.591   1.888   5.219
 1129SOL    HW113386   7.690   1.898   5.214
 1129SOL    HW213387   7.554   1.872   5.127
 1130SOL     OW13388   2.882   4.237   6.741
 1130SOL    HW113389   2.904   4.229   6.838
 1130SOL    HW213390   2.919   4.159   6.691
 1131SOL     OW13391   0.229   7.778   7.111
 1131SOL    HW113392   0.320   7.818   7.101
 1131SOL    HW213393   0.177   7.788   7.027
 1132SOL     OW13394   0.692   6.543   5.705
 1132SOL    HW113395   0.629   6.559   5.781
 1132SOL    HW213396   0.765   6.610   5.705
 1133SOL     OW13397   5.131   3.667   0.440
 1133SOL    HW113398   5.035   3.697   0.436
 1133SOL    HW213399   5.153   3.614   0.358
 1134SOL     OW13400   7.125   1.883   7.549
 1134SOL    HW113401   7.032   1.880   7.511
 1134SOL    HW213402   7.122   1.876   7.648
 1135SOL     OW13403   0.822   2.799   3.027
 1135SOL    HW113404   0.908   2.816   3.075
 1135SOL    HW213405   0.756   2.757   3.090
 1136SOL     OW13406   6.199   4.596   0.553
 1136SOL    HW113407   6.237   4.573   0.642
 1136SOL    HW213408   6.167   4.514   0.507
 1137SOL     OW13409   4.448   0.355   4.355
 1137SOL    HW113410   4.465   0.333   4.451
 1137SOL    HW213411   4.446   0.454   4.342
 1138SOL     OW13412   7.647   6.809   7.932
 1138SOL    HW113413   7.620   6.894   7.977
 1138SOL    HW213414   7.666   6.738   8.000
 1139SOL     OW13415   0.519   2.489   0.603
 1139SOL    HW113416   0.556   2.418   0.543
 1139SOL    HW213417   0.472   2.558   0.549
 1140SOL     OW13418   6.130   2.147   5.702
 1140SOL    HW113419   6.038   2.158   5.742
 1140SOL    HW213420   6.124   2.091   5.619
 1141SOL     OW13421   4.887   1.270   7.103
 1141SOL    HW113422   4.837   1.350   7.136
 1141SOL    HW213423   4.856   1.246   7.011
 1142SOL     OW13424   7.415   7.322   2.635
 1142SOL    HW113425   7.403   7.420   2.619
 1142SOL    HW213426   7.416   7.303   2.733
 1143SOL     OW13427   3.727   6.983   5.491
 1143SOL    HW113428   3.664   7.051   5.453
 1143SOL    HW213429   3.739   6.999   5.589
 1144SOL     OW13430   5.509   5.922   6.153
 1144SOL    HW113431   5.524   6.021   6.155
 1144SOL    HW213432   5.536   5.885   6.063
 1145SOL     OW13433   6.232   5.992   7.201
 1145SOL    HW113434   6.261   5.901   7.231
 1145SOL    HW213435   6.133   5.995   7.191
 1146SOL     OW13436   0.421   4.309   7.443
 1146SOL    HW113437   0.454   4.269   7.358
 1146SOL    HW213438   0.448   4.252   7.521
 1147SOL     OW13439   7.413   2.675   7.369
 1147SOL    HW113440   7.510   2.650   7.377
 1147SOL    HW213441   7.379   2.707   7.457
 1148SOL     OW13442   2.325   7.596   4.387
 1148SOL    HW113443   2.381   7.525   4.345
 1148SOL    HW213444   2.284   7.561   4.471
 1149SOL     OW13445   2.819   6.405   1.413
 1149SOL    HW113446   2.884   6.435   1.343
 1149SOL    HW213447   2.739   6.465   1.413
 1150SOL     OW13448   2.095   2.309   4.012
 1150SOL    HW113449   2.049   2.221   4.024
 1150SOL    HW213450   2.189   2.294   3.981
 1151SOL     OW13451   6.465   5.868   7.306
 1151SOL    HW113452   6.508   5.933   7.244
 1151SOL    HW213453   6.532   5.801   7.337
 1152SOL     OW13454   5.430   0.041   2.213
 1152SOL    HW113455   5.461   0.132   2.185
 1152SOL    HW213456   5.453   0.025   2.309
 1153SOL     OW13457   7.652   0.092   7.864
 1153SOL    HW113458   7.641   0.000   7.826
 1153SOL    HW213459   7.612   0.097   7.955
 1154SOL     OW13460   1.756   6.727   6.318
 1154SOL    HW113461   1.722   6.818   6.343
 1154SOL    HW213462   1.685   6.659   6.335
 1155SOL     OW13463   0.219   6.291   3.013
 1155SOL    HW113464   0.119   6.296   3.022
 1155SOL    HW213465   0.261   6.369   3.057
 1156SOL     OW13466   7.309   5.102   0.280
 1156SOL    HW113467   7.299   5.192   0.323
 1156SOL    HW213468   7.295   5.109   0.181
 1157SOL     OW13469   3.485   1.511   4.583
 1157SOL    HW113470   3.496   1.589   4.522
 1157SOL    HW213471   3.447   1.434   4.534
 1158SOL     OW13472   2.439   3.593   0.662
 1158SOL    HW113473   2.523   3.553   0.700
 1158SOL    HW213474   2.460   3.642   0.577
 1159SOL     OW13475   5.010   6.965   1.996
 1159SOL    HW113476   4.980   6.876   1.961
 1159SOL    HW213477   5.028   7.027   1.919
 1160SOL     OW13478   0.238   7.922   1.162
 1160SOL    HW113479   0.317   7.908   1.221
 1160SOL    HW213480   0.158   7.948   1.217
 1161SOL     OW13481   0.069   6.979   0.449
 1161SOL    HW113482   0.006   6.954   0.523
 1161SOL    HW213483   0.119   6.898   0.417
 1162SOL     OW13484   2.359   5.344   6.831
 1162SOL    HW113485   2.444   5.386   6.864
 1162SOL    HW213486   2.334   5.381   6.742
 1163SOL     OW13487   5.663   7.499   1.044
 1163SOL    HW113488   5.641   7.462   0.954
 1163SOL    HW213489   5.717   7.583   1.033
 1164SOL     OW13490   5.743   3.525   1.132
 1164SOL    HW113491   5.797   3.548   1.051
 1164SOL    HW213492   5.761   3.431   1.160
 1165SOL     OW13493   1.860   7.372   5.067
 1165SOL    HW113494   1.891   7.464   5.046
 1165SOL    HW213495   1.818   7.331   4.986
 1166SOL     OW13496   2.014   3.696   4.034
 1166SOL    HW113497   1.987   3.787   4.002
 1166SOL    HW213498   1.933   3.644   4.061
 1167SOL     OW13499   5.781   6.551   2.696
 1167SOL    HW113500   5.754   6.642   2.667
 1167SOL    HW213501   5.870   6.527   2.657
 1168SOL     OW13502   4.433   1.806   1.380
 1168SOL    HW113503   4.424   1.900   1.346
 1168SOL    HW213504   4.473   1.807   1.472
 1169SOL     OW13505   1.849   1.150   4.690
 1169SOL    HW113506   1.875   1.064   4.734
 1169SOL    HW213507   1.920   1.178   4.625
 1170SOL     OW13508   1.233   2.672   4.365
 1170SOL    HW113509   1.232   2.607   4.441
 1170SOL    HW213510   1.302   2.646   4.298
 1171SOL     OW13511   0.044   2.165   1.055
 1171SOL    HW113512   0.042   2.065   1.059
 1171SOL    HW213513   0.091   2.195   0.972
 1172SOL     OW13514   7.121   3.219   1.129
 1172SOL    HW113515   7.142   3.163   1.209
 1172SOL    HW213516   7.173   3.305   1.133
 1173SOL     OW13517   2.983   7.270   1.843
 1173SOL    HW113518   2.982   7.171   1.853
 1173SOL    HW213519   2.904   7.300   1.789
 1174SOL     OW13520   1.620   0.084   0.055
 1174SOL    HW113521   1.528   0.083   0.095
 1174SOL    HW213522   1.634   0.001   0.001
 1175SOL     OW13523   1.454   6.759   0.121
 1175SOL    HW113524   1.396   6.711   0.055
 1175SOL    HW213525   1.534   6.702   0.143
 1176SOL     OW13526   1.655   6.782   5.219
 1176SOL    HW113527   1.637   6.880   5.209
 1176SOL    HW213528   1.647   6.756   5.315
 1177SOL     OW13529   0.336   4.000   6.201
 1177SOL    HW113530   0.320   4.059   6.280
 1177SOL    HW213531   0.417   4.031   6.150
 1178SOL     OW13532   5.539   2.875   3.172
 1178SOL    HW113533   5.589   2.951   3.213
 1178SOL    HW213534   5.507   2.899   3.081
 1179SOL     OW13535   1.258   5.143   7.158
 1179SOL    HW113536   1.283   5.240   7.157
 1179SOL    HW213537   1.310   5.095   7.229
 1180SOL     OW13538   2.254   4.593   2.349
 1180SOL    HW113539   2.289   4.508   2.311
 1180SOL    HW213540   2.181   4.629   2.292
 1181SOL     OW13541   1.241   1.394   2.679
 1181SOL    HW113542   1.153   1.370   2.638
 1181SOL    HW213543   1.226   1.443   2.765
 1182SOL     OW13544   6.883   2.718   3.471
 1182SOL    HW113545   6.890   2.624   3.437
 1182SOL    HW213546   6.818   2.722   3.547
 1183SOL     OW13547   2.787   5.107   5.134
 1183SOL    HW113548   2.776   5.023   5.188
 1183SOL    HW213549   2.828   5.085   5.046
 1184SOL     OW13550   5.488   5.258   2.602
 1184SOL    HW113551   5.511   5.352   2.631
 1184SOL    HW213552   5.458   5.258   2.507
 1185SOL     OW13553   4.172   1.998   2.139
 1185SOL    HW113554   4.148   1.952   2.225
 1185SOL    HW213555   4.169   2.097   2.152
 1186SOL     OW13556   2.671   1.069   6.234
 1186SOL    HW113557   2.687   0.973   6.255
 1186SOL    HW213558   2.759   1.118   6.228
 1187SOL     OW13559   2.693   5.205   6.815
 1187SOL    HW113560   2.638   5.283   6.843
 1187SOL    HW213561   2.660   5.168   6.728
 1188SOL     OW13562   7.956   1.781   5.990
 1188SOL    HW113563   7.969   1.688   6.023
 1188SOL    HW213564   8.000   1.793   5.902
 1189SOL     OW13565   6.650   7.530   6.307
 1189SOL    HW113566   6.705   7.589   6.248
 1189SOL    HW213567   6.576   7.489   6.254
 1190SOL     OW13568   4.067   4.741   7.086
 1190SOL    HW113569   4.139   4.672   7.080
 1190SOL    HW213570   4.107   4.833   7.083
 1191SOL     OW13571   7.304   7.041   7.243
 1191SOL    HW113572   7.352   6.963   7.283
 1191SOL    HW213573   7.361   7.123   7.247
 1192SOL     OW13574   4.794   0.286   7.403
 1192SOL    HW113575   4.731   0.303   7.479
 1192SOL    HW213576   4.753   0.223   7.338
 1193SOL     OW13577   7.128   7.217   7.091
 1193SOL    HW113578   7.212   7.162   7.084
 1193SOL    HW213579   7.073   7.185   7.168
 1194SOL     OW13580   5.915   5.025   4.440
 1194SOL    HW113581   5.918   5.124   4.425
 1194SOL    HW213582   5.924   5.005   4.537
 1195SOL     OW13583   0.423   5.211   6.596
 1195SOL    HW113584   0.473   5.298   6.595
 1195SOL    HW213585   0.331   5.224   6.558
 1196SOL     OW13586   7.939   4.766   5.241
 1196SOL    HW113587   7.877   4.688   5.249
 1196SOL    HW213588   7.985   4.782   5.328
 1197SOL     OW13589   3.104   3.495   2.250
 1197SOL    HW113590   3.103   3.573   2.187
 1197SOL    HW213591   3.195   3.484   2.289
 1198SOL     OW13592   1.469   3.099   3.081
 1198SOL    HW113593   1.488   3.012   3.126
 1198SOL    HW213594   1.494   3.093   2.984
 1199SOL     OW13595   0.923   5.065   5.323
 1199SOL    HW113596   0.829   5.088   5.348
 1199SOL    HW213597   0.933   5.067   5.224
 1200SOL     OW13598   5.346   2.677   2.385
 1200SOL    HW113599   5.253   2.675   2.423
 1200SOL    HW213600   5.345   2.717   2.293
 1201SOL     OW13601   1.883   2.549   4.041
 1201SOL    HW113602   1.955   2.615   4.057
 1201SOL    HW213603   1.847   2.559   3.948
 1202SOL     OW13604   5.817   5.046   4.092
 1202SOL    HW113605   5.718   5.036   4.088
 1202SOL    HW213606   5.847   5.050   4.187
 1203SOL     OW13607   0.237   2.951   5.088
 1203SOL    HW113608   0.183   2.899   5.022
 1203SOL    HW213609   0.190   2.957   5.175
 1204SOL     OW13610   2.151   3.218   5.940
 1204SOL    HW113611   2.121   3.131   5.901
 1204SOL    HW213612   2.172   3.282   5.866
 1205SOL     OW13613   5.782   0.074   7.387
 1205SOL    HW113614   5.841   0.102   7.463
 1205SOL    HW213615   5.833   0.017   7.323
 1206SOL     OW13616   2.409   1.676   4.150
 1206SOL    HW113617   2.376   1.765   4.182
 1206SOL    HW213618   2.375   1.658   4.058
 1207SOL     OW13619   4.818   1.865   3.779
 1207SOL    HW113620   4.718   1.869   3.783
 1207SOL    HW213621   4.857   1.923   3.851
 1208SOL     OW13622   5.521   6.723   1.825
 1208SOL    HW113623   5.526   6.623   1.824
 1208SOL    HW213624   5.595   6.762   1.770
 1209SOL     OW13625   2.111   0.076   6.833
 1209SOL    HW113626   2.195   0.128   6.814
 1209SOL    HW213627   2.112   0.043   6.928
 1210SOL     OW13628   1.975   3.836   4.336
 1210SOL    HW113629   2.011   3.758   4.284
 1210SOL    HW213630   1.908   3.805   4.403
 1211SOL     OW13631   5.408   2.876   1.849
 1211SOL    HW113632   5.476   2.815   1.809
 1211SOL    HW213633   5.350   2.826   1.913
 1212SOL     OW13634   2.856   4.201   4.783
 1212SOL    HW113635   2.903   4.277   4.737
 1212SOL    HW213636   2.895   4.114   4.753
 1213SOL     OW13637   6.272   7.641   1.686
 1213SOL    HW113638   6.178   7.658   1.657
 1213SOL    HW213639   6.334   7.704   1.639
 1214SOL     OW13640   4.109   7.344   0.974
 1214SOL    HW113641   4.085   7.249   0.953
 1214SOL    HW213642   4.071   7.370   1.062
 1215SOL     OW13643   2.864   0.154   4.221
 1215SOL    HW113644   2.898   0.147   4.315
 1215SOL    HW213645   2.771   0.116   4.216
 1216SOL     OW13646   1.464   3.171   4.483
 1216SOL    HW113647   1.518   3.211   4.557
 1216SOL    HW213648   1.438   3.241   4.417
 1217SOL     OW13649   2.786   4.148   1.883
 1217SOL    HW113650   2.783   4.190   1.792
 1217SOL    HW213651   2.695   4.146   1.923
 1218SOL     OW13652   7.026   2.179   3.986
 1218SOL    HW113653   6.948   2.239   4.004
 1218SOL    HW213654   7.084   2.172   4.068
 1219SOL     OW13655   3.595   4.798   4.599
 1219SOL    HW113656   3.575   4.797   4.501
 1219SOL    HW213657   3.650   4.879   4.622
 1220SOL     OW13658   2.240   1.592   0.755
 1220SOL    HW113659   2.324   1.556   0.716
 1220SOL    HW213660   2.161   1.557   0.706
 1221SOL     OW13661   1.545   0.537   3.263
 1221SOL    HW113662   1.522   0.609   3.328
 1221SOL    HW213663   1.564   0.451   3.311
 1222SOL     OW13664   2.393   4.628   1.378
 1222SOL    HW113665   2.381   4.529   1.379
 1222SOL    HW213666   2.490   4.651   1.389
 1223SOL     OW13667   2.790   3.269   1.577
 1223SOL    HW113668   2.790   3.185   1.521
 1223SOL    HW213669   2.873   3.274   1.631
 1224SOL     OW13670   5.801   4.305   1.248
 1224SOL    HW113671   5.749   4.223   1.223
 1224SOL    HW213672   5.899   4.289   1.233
 1225SOL     OW13673   0.672   1.662   1.230
 1225SOL    HW113674   0.752   1.695   1.179
 1225SOL    HW213675   0.588   1.689   1.184
 1226SOL     OW13676   7.254   3.813   2.094
 1226SOL    HW113677   7.293   3.744   2.033
 1226SOL    HW213678   7.216   3.888   2.040
 1227SOL     OW13679   6.005   1.078   2.912
 1227SOL    HW113680   6.097   1.115   2.898
 1227SOL    HW213681   5.951   1.089   2.830
 1228SOL     OW13682   3.846   2.228   7.794
 1228SOL    HW113683   3.752   2.235   7.828
 1228SOL    HW213684   3.847   2.232   7.694
 1229SOL     OW13685   3.763   3.163   3.379
 1229SOL    HW113686   3.811   3.099   3.320
 1229SOL    HW213687   3.827   3.205   3.444
 1230SOL     OW13688   1.629   4.111   3.449
 1230SOL    HW113689   1.639   4.124   3.548
 1230SOL    HW213690   1.577   4.187   3.409
 1231SOL     OW13691   5.715   7.612   4.895
 1231SOL    HW113692   5.705   7.703   4.854
 1231SOL    HW213693   5.672   7.611   4.985
 1232SOL     OW13694   7.144   0.535   1.106
 1232SOL    HW113695   7.186   0.457   1.152
 1232SOL    HW213696   7.044   0.527   1.107
 1233SOL     OW13697   5.678   6.862   5.532
 1233SOL    HW113698   5.768   6.899   5.508
 1233SOL    HW213699   5.682   6.818   5.621
 1234SOL     OW13700   1.271   5.682   5.051
 1234SOL    HW113701   1.252   5.690   4.953
 1234SOL    HW213702   1.362   5.717   5.071
 1235SOL     OW13703   5.089   7.785   0.054
 1235SOL    HW113704   4.996   7.748   0.064
 1235SOL    HW213705   5.149   7.718   0.011
 1236SOL     OW13706   3.745   5.073   4.248
 1236SOL    HW113707   3.693   5.145   4.294
 1236SOL    HW213708   3.757   5.096   4.151
 1237SOL     OW13709   6.061   3.565   0.033
 1237SOL    HW113710   5.995   3.508   0.083
 1237SOL    HW213711   6.028   3.659   0.028
 1238SOL     OW13712   5.984   0.791   0.798
 1238SOL    HW113713   6.001   0.887   0.775
 1238SOL    HW213714   5.978   0.779   0.897
 1239SOL     OW13715   5.763   3.865   3.294
 1239SOL    HW113716   5.851   3.904   3.320
 1239SOL    HW213717   5.717   3.925   3.228
 1240SOL     OW13718   0.508   2.086   5.567
 1240SOL    HW113719   0.434   2.142   5.531
 1240SOL    HW213720   0.557   2.135   5.638
 1241SOL     OW13721   2.748   3.611   1.215
 1241SOL    HW113722   2.839   3.594   1.178
 1241SOL    HW213723   2.699   3.524   1.226
 1242SOL     OW13724   7.277   1.522   1.787
 1242SOL    HW113725   7.224   1.560   1.863
 1242SOL    HW213726   7.250   1.428   1.770
 1243SOL     OW13727   5.707   1.535   3.398
 1243SOL    HW113728   5.652   1.454   3.418
 1243SOL    HW213729   5.752   1.525   3.309
 1244SOL     OW13730   2.283   4.042   5.251
 1244SOL    HW113731   2.194   3.997   5.244
 1244SOL    HW213732   2.292   4.087   5.340
 1245SOL     OW13733   4.534   2.236   7.862
 1245SOL    HW113734   4.435   2.249   7.852
 1245SOL    HW213735   4.577   2.322   7.889
 1246SOL     OW13736   2.242   7.019   5.795
 1246SOL    HW113737   2.304   6.974   5.730
 1246SOL    HW213738   2.235   6.964   5.878
 1247SOL     OW13739   1.128   6.048   6.766
 1247SOL    HW113740   1.085   6.001   6.843
 1247SOL    HW213741   1.111   5.998   6.681
 1248SOL     OW13742   2.599   7.903   2.200
 1248SOL    HW113743   2.668   7.884   2.131
 1248SOL    HW213744   2.640   7.948   2.278
 1249SOL     OW13745   5.345   2.393   6.735
 1249SOL    HW113746   5.290   2.388   6.651
 1249SOL    HW213747   5.285   2.409   6.814
 1250SOL     OW13748   4.868   5.869   6.307
 1250SOL    HW113749   4.920   5.811   6.371
 1250SOL    HW213750   4.896   5.849   6.213
 1251SOL     OW13751   7.454   7.996   2.067
 1251SOL    HW113752   7.360   7.988   2.101
 1251SOL    HW213753   7.466   7.939   1.986
 1252SOL     OW13754   6.909   3.412   1.245
 1252SOL    HW113755   6.989   3.414   1.185
 1252SOL    HW213756   6.915   3.334   1.306
 1253SOL     OW13757   4.991   1.658   6.120
 1253SOL    HW113758   4.963   1.734   6.060
 1253SOL    HW213759   4.920   1.640   6.187
 1254SOL     OW13760   0.226   4.367   6.877
 1254SOL    HW113761   0.159   4.422   6.928
 1254SOL    HW213762   0.183   4.328   6.796
 1255SOL     OW13763   6.976   6.309   0.044
 1255SOL    HW113764   6.977   6.367   0.126
 1255SOL    HW213765   7.017   6.221   0.064
 1256SOL     OW13766   4.394   2.645   7.862
 1256SOL    HW113767   4.443   2.634   7.776
 1256SOL    HW213768   4.306   2.690   7.846
 1257SOL     OW13769   6.032   4.103   0.778
 1257SOL    HW113770   5.956   4.164   0.802
 1257SOL    HW213771   6.012   4.054   0.693
 1258SOL     OW13772   3.964   3.724   0.481
 1258SOL    HW113773   4.003   3.815   0.496
 1258SOL    HW213774   4.030   3.665   0.434
 1259SOL     OW13775   6.132   3.562   3.054
 1259SOL    HW113776   6.073   3.609   3.120
 1259SOL    HW213777   6.199   3.627   3.016
 1260SOL     OW13778   5.233   4.282   4.011
 1260SOL    HW113779   5.155   4.230   4.047
 1260SOL    HW213780   5.257   4.249   3.920
 1261SOL     OW13781   6.523   0.556   6.238
 1261SOL    HW113782   6.580   0.477   6.258
 1261SOL    HW213783   6.576   0.627   6.191
 1262SOL     OW13784   5.948   0.406   7.431
 1262SOL    HW113785   5.925   0.318   7.472
 1262SOL    HW213786   5.978   0.393   7.337
 1263SOL     OW13787   7.968   6.053   7.482
 1263SOL    HW113788   7.914   6.127   7.521
 1263SOL    HW213789   7.938   6.034   7.389
 1264SOL     OW13790   1.995   3.147   1.777
 1264SOL    HW113791   1.985   3.214   1.704
 1264SOL    HW213792   1.969   3.186   1.865
 1265SOL     OW13793   5.551   5.446   0.557
 1265SOL    HW113794   5.650   5.438   0.555
 1265SOL    HW213795   5.517   5.437   0.650
 1266SOL     OW13796   6.442   4.309   3.860
 1266SOL    HW113797   6.518   4.365   3.825
 1266SOL    HW213798   6.456   4.292   3.957
 1267SOL     OW13799   1.331   2.614   2.278
 1267SOL    HW113800   1.419   2.586   2.239
 1267SOL    HW213801   1.289   2.537   2.325
 1268SOL     OW13802   1.638   0.358   1.278
 1268SOL    HW113803   1.613   0.278   1.332
 1268SOL    HW213804   1.614   0.343   1.182
 1269SOL     OW13805   0.081   7.846   1.690
 1269SOL    HW113806  -0.000   7.795   1.659
 1269SOL    HW213807   0.135   7.875   1.611
 1270SOL     OW13808   0.341   3.538   1.247
 1270SOL    HW113809   0.245   3.509   1.243
 1270SOL    HW213810   0.358   3.587   1.332
 1271SOL     OW13811   2.728   1.346   6.347
 1271SOL    HW113812   2.659   1.409   6.312
 1271SOL    HW213813   2.800   1.333   6.279
 1272SOL     OW13814   5.419   7.341   1.263
 1272SOL    HW113815   5.327   7.326   1.300
 1272SOL    HW213816   5.429   7.436   1.232
 1273SOL     OW13817   5.727   1.731   0.785
 1273SOL    HW113818   5.743   1.822   0.824
 1273SOL    HW213819   5.638   1.729   0.739
 1274SOL     OW13820   5.915   0.112   2.484
 1274SOL    HW113821   5.908   0.138   2.580
 1274SOL    HW213822   5.982   0.038   2.473
 1275SOL     OW13823   2.704   4.830   4.141
 1275SOL    HW113824   2.619   4.882   4.153
 1275SOL    HW213825   2.706   4.789   4.050
 1276SOL     OW13826   5.197   0.424   7.404
 1276SOL    HW113827   5.254   0.365   7.346
 1276SOL    HW213828   5.206   0.397   7.500
 1277SOL     OW13829   1.307   7.939   5.451
 1277SOL    HW113830   1.342   7.884   5.527
 1277SOL    HW213831   1.296   7.882   5.370
 1278SOL     OW13832   5.537   3.314   6.987
 1278SOL    HW113833   5.447   3.311   7.032
 1278SOL    HW213834   5.531   3.369   6.904
 1279SOL     OW13835   6.169   6.424   4.078
 1279SOL    HW113836   6.197   6.508   4.030
 1279SOL    HW213837   6.213   6.420   4.168
 1280SOL     OW13838   0.686   1.165   3.240
 1280SOL    HW113839   0.752   1.236   3.219
 1280SOL    HW213840   0.605   1.175   3.182
 1281SOL     OW13841   4.176   5.759   5.277
 1281SOL    HW113842   4.270   5.764   5.310
 1281SOL    HW213843   4.124   5.692   5.331
 1282SOL     OW13844   2.737   6.362   6.806
 1282SOL    HW113845   2.822   6.378   6.755
 1282SOL    HW213846   2.755   6.368   6.904
 1283SOL     OW13847   6.554   1.263   6.080
 1283SOL    HW113848   6.543   1.350   6.128
 1283SOL    HW213849   6.531   1.187   6.141
 1284SOL     OW13850   5.835   4.532   6.838
 1284SOL    HW113851   5.908   4.600   6.849
 1284SOL    HW213852   5.770   4.564   6.769
 1285SOL     OW13853   1.119   2.992   1.246
 1285SOL    HW113854   1.068   2.949   1.171
 1285SOL    HW213855   1.176   2.924   1.292
 1286SOL     OW13856   1.227   6.357   1.332
 1286SOL    HW113857   1.135   6.361   1.370
 1286SOL    HW213858   1.292   6.326   1.402
 1287SOL     OW13859   5.901   3.974   3.023
 1287SOL    HW113860   5.891   3.908   2.949
 1287SOL    HW213861   5.812   4.011   3.049
 1288SOL     OW13862   3.051   6.934   1.707
 1288SOL    HW113863   3.096   7.010   1.755
 1288SOL    HW213864   3.021   6.865   1.773
 1289SOL     OW13865   0.518   2.611   4.299
 1289SOL    HW113866   0.598   2.558   4.329
 1289SOL    HW213867   0.529   2.637   4.203
 1290SOL     OW13868   4.339   4.017   0.489
 1290SOL    HW113869   4.404   3.942   0.471
 1290SOL    HW213870   4.344   4.084   0.415
 1291SOL     OW13871   4.287   2.953   2.541
 1291SOL    HW113872   4.359   3.020   2.523
 1291SOL    HW213873   4.245   2.924   2.455
 1292SOL     OW13874   1.502   0.310   6.392
 1292SOL    HW113875   1.577   0.375   6.374
 1292SOL    HW213876   1.518   0.262   6.479
 1293SOL     OW13877   6.805   6.182   6.123
 1293SOL    HW113878   6.835   6.238   6.200
 1293SOL    HW213879   6.847   6.214   6.038
 1294SOL     OW13880   0.556   1.225   7.623
 1294SOL    HW113881   0.547   1.143   7.568
 1294SOL    HW213882   0.469   1.247   7.667
 1295SOL     OW13883   1.681   5.589   6.225
 1295SOL    HW113884   1.608   5.651   6.257
 1295SOL    HW213885   1.754   5.586   6.293
 1296SOL     OW13886   4.451   2.810   3.449
 1296SOL    HW113887   4.371   2.752   3.434
 1296SOL    HW213888   4.427   2.906   3.434
 1297SOL     OW13889   4.692   1.051   2.447
 1297SOL    HW113890   4.718   0.975   2.507
 1297SOL    HW213891   4.747   1.132   2.468
 1298SOL     OW13892   3.977   2.416   3.825
 1298SOL    HW113893   3.891   2.372   3.797
 1298SOL    HW213894   3.976   2.432   3.924
 1299SOL     OW13895   0.692   3.524   0.965
 1299SOL    HW113896   0.757   3.597   0.987
 1299SOL    HW213897   0.610   3.563   0.922
 1300SOL     OW13898   1.235   6.729   1.244
 1300SOL    HW113899   1.217   6.827   1.250
 1300SOL    HW213900   1.236   6.700   1.148
 1301SOL     OW13901   1.331   5.272   0.301
 1301SOL    HW113902   1.407   5.257   0.364
 1301SOL    HW213903   1.252   5.308   0.350
 1302SOL     OW13904   6.457   3.736   5.278
 1302SOL    HW113905   6.454   3.835   5.266
 1302SOL    HW213906   6.515   3.695   5.207
 1303SOL     OW13907   3.826   6.713   0.633
 1303SOL    HW113908   3.836   6.745   0.727
 1303SOL    HW213909   3.763   6.773   0.583
 1304SOL     OW13910   5.081   3.842   4.588
 1304SOL    HW113911   5.106   3.745   4.582
 1304SOL    HW213912   5.111   3.890   4.505
 1305SOL     OW13913   2.912   7.882   3.910
 1305SOL    HW113914   2.924   7.852   4.004
 1305SOL    HW213915   3.001   7.901   3.868
 1306SOL     OW13916   5.858   2.663   7.160
 1306SOL    HW113917   5.852   2.692   7.064
 1306SOL    HW213918   5.786   2.707   7.214
 1307SOL     OW13919   3.397   5.862   5.652
 1307SOL    HW113920   3.408   5.955   5.617
 1307SOL    HW213921   3.406   5.861   5.751
 1308SOL     OW13922   1.204   3.881   2.937
 1308SOL    HW113923   1.281   3.823   2.907
 1308SOL    HW213924   1.227   3.926   3.023
 1309SOL     OW13925   6.078   1.753   6.631
 1309SOL    HW113926   6.092   1.662   6.592
 1309SOL    HW213927   6.128   1.821   6.578
 1310SOL     OW13928   4.833   4.927   4.083
 1310SOL    HW113929   4.777   4.926   4.000
 1310SOL    HW213930   4.822   4.840   4.133
 1311SOL     OW13931   4.199   7.298   7.431
 1311SOL    HW113932   4.252   7.289   7.516
 1311SOL    HW213933   4.119   7.238   7.435
 1312SOL     OW13934   6.735   1.542   1.733
 1312SOL    HW113935   6.828   1.549   1.768
 1312SOL    HW213936   6.681   1.482   1.792
 1313SOL     OW13937   2.140   7.350   7.488
 1313SOL    HW113938   2.197   7.288   7.433
 1313SOL    HW213939   2.085   7.297   7.552
 1314SOL     OW13940   6.333   3.527   0.065
 1314SOL    HW113941   6.423   3.515   0.023
 1314SOL    HW213942   6.278   3.590   0.010
 1315SOL     OW13943   4.791   5.230   4.797
 1315SOL    HW113944   4.737   5.246   4.880
 1315SOL    HW213945   4.869   5.172   4.818
 1316SOL     OW13946   4.877   6.611   3.187
 1316SOL    HW113947   4.917   6.577   3.273
 1316SOL    HW213948   4.907   6.706   3.171
 1317SOL     OW13949   7.499   5.934   3.703
 1317SOL    HW113950   7.472   6.029   3.686
 1317SOL    HW213951   7.512   5.920   3.801
 1318SOL     OW13952   2.557   2.925   5.987
 1318SOL    HW113953   2.585   2.896   6.079
 1318SOL    HW213954   2.634   2.918   5.924
 1319SOL     OW13955   3.114   6.480   0.161
 1319SOL    HW113956   3.200   6.495   0.112
 1319SOL    HW213957   3.093   6.383   0.167
 1320SOL     OW13958   6.672   0.756   1.047
 1320SOL    HW113959   6.715   0.801   0.969
 1320SOL    HW213960   6.704   0.799   1.132
 1321SOL     OW13961   2.463   0.557   6.250
 1321SOL    HW113962   2.421   0.546   6.159
 1321SOL    HW213963   2.447   0.650   6.284
 1322SOL     OW13964   1.078   1.574   2.933
 1322SOL    HW113965   1.015   1.622   2.994
 1322SOL    HW213966   1.039   1.485   2.907
 1323SOL     OW13967   7.504   2.259   7.431
 1323SOL    HW113968   7.516   2.170   7.475
 1323SOL    HW213969   7.594   2.300   7.413
 1324SOL     OW13970   7.555   4.248   5.504
 1324SOL    HW113971   7.574   4.240   5.602
 1324SOL    HW213972   7.497   4.173   5.475
 1325SOL     OW13973   7.814   5.854   7.352
 1325SOL    HW113974   7.822   5.792   7.274
 1325SOL    HW213975   7.824   5.804   7.437
 1326SOL     OW13976   1.878   6.034   7.843
 1326SOL    HW113977   1.883   5.943   7.883
 1326SOL    HW213978   1.790   6.048   7.798
 1327SOL     OW13979   0.869   0.217   5.446
 1327SOL    HW113980   0.912   0.284   5.385
 1327SOL    HW213981   0.890   0.124   5.415
 1328SOL     OW13982   1.092   6.461   2.995
 1328SOL    HW113983   1.143   6.527   3.051
 1328SOL    HW213984   1.110   6.477   2.898
 1329SOL     OW13985   2.521   2.087   5.327
 1329SOL    HW113986   2.621   2.095   5.326
 1329SOL    HW213987   2.480   2.170   5.365
 1330SOL     OW13988   2.821   5.581   7.956
 1330SOL    HW113989   2.765   5.615   7.881
 1330SOL    HW213990   2.880   5.654   7.990
 1331SOL     OW13991   6.640   6.637   1.179
 1331SOL    HW113992   6.652   6.679   1.089
 1331SOL    HW213993   6.704   6.561   1.190
 1332SOL     OW13994   5.970   3.543   4.739
 1332SOL    HW113995   5.996   3.447   4.727
 1332SOL    HW213996   6.052   3.600   4.749
 1333SOL     OW13997   2.116   7.338   0.305
 1333SOL    HW113998   2.203   7.302   0.270
 1333SOL    HW213999   2.050   7.345   0.230
 1334SOL     OW14000   4.934   4.296   0.762
 1334SOL    HW114001   5.005   4.356   0.799
 1334SOL    HW214002   4.912   4.324   0.668
 1335SOL     OW14003   2.134   2.752   7.209
 1335SOL    HW114004   2.210   2.788   7.156
 1335SOL    HW214005   2.077   2.694   7.153
 1336SOL     OW14006   1.977   0.434   2.662
 1336SOL    HW114007   1.918   0.502   2.705
 1336SOL    HW214008   1.977   0.448   2.563
 1337SOL     OW14009   2.540   4.258   2.849
 1337SOL    HW114010   2.493   4.345   2.861
 1337SOL    HW214011   2.605   4.243   2.923
 1338SOL     OW14012   7.499   4.378   1.102
 1338SOL    HW114013   7.558   4.301   1.079
 1338SOL    HW214014   7.449   4.359   1.187
 1339SOL     OW14015   5.445   5.022   0.014
 1339SOL    HW114016   5.465   5.038   0.111
 1339SOL    HW214017   5.416   4.928  -0.000
 1340SOL     OW14018   1.512   4.339   6.299
 1340SOL    HW114019   1.557   4.347   6.388
 1340SOL    HW214020   1.530   4.420   6.243
 1341SOL     OW14021   7.683   6.163   2.245
 1341SOL    HW114022   7.774   6.198   2.266
 1341SOL    HW214023   7.685   6.108   2.162
 1342SOL     OW14024   4.208   5.213   3.245
 1342SOL    HW114025   4.243   5.283   3.182
 1342SOL    HW214026   4.242   5.229   3.337
 1343SOL     OW14027   3.281   6.638   7.020
 1343SOL    HW114028   3.216   6.621   6.946
 1343SOL    HW214029   3.351   6.702   6.989
 1344SOL     OW14030   1.275   0.632   3.780
 1344SOL    HW114031   1.304   0.612   3.873
 1344SOL    HW214032   1.236   0.551   3.737
 1345SOL     OW14033   5.614   7.356   7.830
 1345SOL    HW114034   5.642   7.361   7.734
 1345SOL    HW214035   5.519   7.324   7.836
 1346SOL     OW14036   4.887   4.952   6.592
 1346SOL    HW114037   4.788   4.951   6.606
 1346SOL    HW214038   4.916   5.040   6.553
 1347SOL     OW14039   4.442   0.466   6.970
 1347SOL    HW114040   4.504   0.447   6.895
 1347SOL    HW214041   4.437   0.564   6.988
 1348SOL     OW14042   4.830   0.794   1.596
 1348SOL    HW114043   4.781   0.714   1.630
 1348SOL    HW214044   4.767   0.871   1.584
 1349SOL     OW14045   2.855   6.946   5.516
 1349SOL    HW114046   2.779   6.954   5.581
 1349SOL    HW214047   2.821   6.949   5.422
 1350SOL     OW14048   1.712   0.390   2.854
 1350SOL    HW114049   1.810   0.370   2.847
 1350SOL    HW214050   1.671   0.332   2.924
 1351SOL     OW14051   0.403   7.212   1.093
 1351SOL    HW114052   0.386   7.121   1.056
 1351SOL    HW214053   0.435   7.206   1.187
 1352SOL     OW14054   2.445   5.833   4.785
 1352SOL    HW114055   2.541   5.844   4.759
 1352SOL    HW214056   2.428   5.879   4.873
 1353SOL     OW14057   2.219   6.292   6.386
 1353SOL    HW114058   2.269   6.366   6.340
 1353SOL    HW214059   2.280   6.242   6.447
 1354SOL     OW14060   6.726   4.403   6.227
 1354SOL    HW114061   6.660   4.456   6.174
 1354SOL    HW214062   6.684   4.319   6.261
 1355SOL     OW14063   6.437   7.462   4.920
 1355SOL    HW114064   6.427   7.399   4.997
 1355SOL    HW214065   6.506   7.428   4.857
 1356SOL     OW14066   6.245   1.662   1.348
 1356SOL    HW114067   6.196   1.593   1.295
 1356SOL    HW214068   6.262   1.628   1.441
 1357SOL     OW14069   7.916   3.123   1.073
 1357SOL    HW114070   7.853   3.046   1.090
 1357SOL    HW214071   7.870   3.192   1.017
 1358SOL     OW14072   1.023   7.353   4.357
 1358SOL    HW114073   0.932   7.310   4.358
 1358SOL    HW214074   1.049   7.379   4.449
 1359SOL     OW14075   3.923   6.938   7.531
 1359SOL    HW114076   4.014   6.960   7.496
 1359SOL    HW214077   3.882   7.019   7.572
 1360SOL     OW14078   6.754   6.474   0.054
 1360SOL    HW114079   6.802   6.500   0.138
 1360SOL    HW214080   6.733   6.556  -0.000
 1361SOL     OW14081   0.362   2.683   5.903
 1361SOL    HW114082   0.451   2.729   5.911
 1361SOL    HW214083   0.307   2.703   5.984
 1362SOL     OW14084   3.694   2.313   2.106
 1362SOL    HW114085   3.625   2.361   2.161
 1362SOL    HW214086   3.658   2.298   2.013
 1363SOL     OW14087   2.595   5.092   4.699
 1363SOL    HW114088   2.511   5.087   4.755
 1363SOL    HW214089   2.583   5.039   4.615
 1364SOL     OW14090   2.661   3.886   6.627
 1364SOL    HW114091   2.614   3.935   6.554
 1364SOL    HW214092   2.633   3.790   6.628
 1365SOL     OW14093   0.810   6.178   7.173
 1365SOL    HW114094   0.866   6.262   7.174
 1365SOL    HW214095   0.858   6.105   7.220
 1366SOL     OW14096   0.274   2.510   7.022
 1366SOL    HW114097   0.322   2.430   7.058
 1366SOL    HW214098   0.317   2.593   7.056
 1367SOL     OW14099   0.908   1.056   3.727
 1367SOL    HW114100   0.969   1.057   3.805
 1367SOL    HW214101   0.814   1.076   3.756
 1368SOL     OW14102   7.229   3.705   2.452
 1368SOL    HW114103   7.270   3.788   2.491
 1368SOL    HW214104   7.239   3.706   2.352
 1369SOL     OW14105   6.663   6.363   2.780
 1369SOL    HW114106   6.716   6.443   2.752
 1369SOL    HW214107   6.642   6.307   2.700
 1370SOL     OW14108   5.303   5.682   4.774
 1370SOL    HW114109   5.345   5.714   4.689
 1370SOL    HW214110   5.375   5.654   4.838
 1371SOL     OW14111   1.477   1.192   2.802
 1371SOL    HW114112   1.393   1.150   2.769
 1371SOL    HW214113   1.463   1.231   2.893
 1372SOL     OW14114   6.999   5.319   5.933
 1372SOL    HW114115   6.953   5.239   5.972
 1372SOL    HW214116   7.031   5.299   5.841
 1373SOL     OW14117   1.280   7.286   4.267
 1373SOL    HW114118   1.360   7.329   4.309
 1373SOL    HW214119   1.254   7.335   4.184
 1374SOL     OW14120   1.610   0.618   3.897
 1374SOL    HW114121   1.523   0.608   3.849
 1374SOL    HW214122   1.652   0.706   3.874
 1375SOL     OW14123   2.362   2.894   2.652
 1375SOL    HW114124   2.272   2.935   2.638
 1375SOL    HW214125   2.384   2.832   2.578
 1376SOL     OW14126   3.225   2.952   5.838
 1376SOL    HW114127   3.270   3.030   5.883
 1376SOL    HW214128   3.204   2.976   5.743
 1377SOL     OW14129   5.521   7.257   4.031
 1377SOL    HW114130   5.459   7.319   3.983
 1377SOL    HW214131   5.609   7.301   4.046
 1378SOL     OW14132   0.103   4.707   6.184
 1378SOL    HW114133   0.159   4.699   6.267
 1378SOL    HW214134   0.153   4.670   6.106
 1379SOL     OW14135   7.607   0.961   7.718
 1379SOL    HW114136   7.688   1.007   7.680
 1379SOL    HW214137   7.542   0.941   7.644
 1380SOL     OW14138   0.199   6.824   7.486
 1380SOL    HW114139   0.268   6.752   7.477
 1380SOL    HW214140   0.242   6.912   7.500
 1381SOL     OW14141   7.678   0.129   3.828
 1381SOL    HW114142   7.601   0.072   3.803
 1381SOL    HW214143   7.739   0.141   3.750
 1382SOL     OW14144   6.978   6.071   4.417
 1382SOL    HW114145   7.015   5.985   4.381
 1382SOL    HW214146   7.009   6.085   4.511
 1383SOL     OW14147   6.387   5.142   5.592
 1383SOL    HW114148   6.361   5.058   5.640
 1383SOL    HW214149   6.381   5.220   5.654
 1384SOL     OW14150   7.894   7.147   5.288
 1384SOL    HW114151   7.910   7.068   5.228
 1384SOL    HW214152   7.805   7.139   5.333
 1385SOL     OW14153   0.735   2.438   3.158
 1385SOL    HW114154   0.727   2.520   3.214
 1385SOL    HW214155   0.689   2.452   3.070
 1386SOL     OW14156   6.543   0.250   1.371
 1386SOL    HW114157   6.477   0.200   1.427
 1386SOL    HW214158   6.614   0.188   1.339
 1387SOL     OW14159   0.667   0.196   4.125
 1387SOL    HW114160   0.617   0.249   4.193
 1387SOL    HW214161   0.765   0.204   4.141
 1388SOL     OW14162   0.847   6.305   2.653
 1388SOL    HW114163   0.798   6.219   2.664
 1388SOL    HW214164   0.841   6.359   2.737
 1389SOL     OW14165   7.542   5.287   2.126
 1389SOL    HW114166   7.581   5.345   2.198
 1389SOL    HW214167   7.551   5.191   2.152
 1390SOL     OW14168   4.581   1.585   5.378
 1390SOL    HW114169   4.502   1.586   5.440
 1390SOL    HW214170   4.633   1.669   5.388
 1391SOL     OW14171   7.416   0.900   6.178
 1391SOL    HW114172   7.372   0.831   6.120
 1391SOL    HW214173   7.509   0.872   6.202
 1392SOL     OW14174   5.580   7.411   3.054
 1392SOL    HW114175   5.492   7.385   3.013
 1392SOL    HW214176   5.566   7.444   3.147
 1393SOL     OW14177   3.723   4.234   0.085
 1393SOL    HW114178   3.776   4.319   0.086
 1393SOL    HW214179   3.634   4.249   0.043
 1394SOL     OW14180   6.344   1.948   3.301
 1394SOL    HW114181   6.382   2.037   3.274
 1394SOL    HW214182   6.333   1.944   3.400
 1395SOL     OW14183   6.202   1.243   3.612
 1395SOL    HW114184   6.300   1.236   3.634
 1395SOL    HW214185   6.174   1.339   3.612
 1396SOL     OW14186   3.493   1.356   3.749
 1396SOL    HW114187   3.535   1.360   3.840
 1396SOL    HW214188   3.528   1.430   3.692
 1397SOL     OW14189   1.291   2.284   3.221
 1397SOL    HW114190   1.254   2.201   3.179
 1397SOL    HW214191   1.247   2.302   3.308
 1398SOL     OW14192   6.642   7.411   3.612
 1398SOL    HW114193   6.567   7.350   3.586
 1398SOL    HW214194   6.629   7.442   3.706
 1399SOL     OW14195   5.271   3.373   4.803
 1399SOL    HW114196   5.186   3.418   4.774
 1399SOL    HW214197   5.290   3.395   4.899
 1400SOL     OW14198   5.741   8.000   1.478
 1400SOL    HW114199   5.732   7.949   1.564
 1400SOL    HW214200   5.663   7.982   1.419
 1401SOL     OW14201   7.936   2.908   1.585
 1401SOL    HW114202   8.000   2.840   1.621
 1401SOL    HW214203   7.970   2.944   1.498
 1402SOL     OW14204   2.987   5.011   2.800
 1402SOL    HW114205   3.002   4.925   2.752
 1402SOL    HW214206   2.946   5.079   2.739
 1403SOL     OW14207   0.205   0.740   4.645
 1403SOL    HW114208   0.173   0.664   4.701
 1403SOL    HW214209   0.265   0.707   4.572
 1404SOL     OW14210   7.873   4.286   2.701
 1404SOL    HW114211   7.915   4.258   2.614
 1404SOL    HW214212   7.869   4.209   2.764
 1405SOL     OW14213   3.268   2.296   4.457
 1405SOL    HW114214   3.322   2.338   4.384
 1405SOL    HW214215   3.290   2.339   4.545
 1406SOL     OW14216   7.987   0.644   2.643
 1406SOL    HW114217   7.925   0.572   2.677
 1406SOL    HW214218   7.976   0.655   2.545
 1407SOL     OW14219   5.306   4.705   6.357
 1407SOL    HW114220   5.239   4.754   6.412
 1407SOL    HW214221   5.261   4.634   6.303
 1408SOL     OW14222   4.005   3.133   6.106
 1408SOL    HW114223   4.007   3.211   6.043
 1408SOL    HW214224   3.967   3.053   6.060
 1409SOL     OW14225   3.458   0.313   4.737
 1409SOL    HW114226   3.498   0.380   4.799
 1409SOL    HW214227   3.528   0.277   4.676
 1410SOL     OW14228   2.693   6.576   2.288
 1410SOL    HW114229   2.753   6.538   2.218
 1410SOL    HW214230   2.727   6.665   2.318
 1411SOL     OW14231   1.723   5.319   2.745
 1411SOL    HW114232   1.768   5.230   2.730
 1411SOL    HW214233   1.628   5.314   2.714
 1412SOL     OW14234   6.989   1.209   3.906
 1412SOL    HW114235   7.035   1.226   3.993
 1412SOL    HW214236   7.004   1.286   3.844
 1413SOL     OW14237   3.669   5.076   0.788
 1413SOL    HW114238   3.648   5.042   0.879
 1413SOL    HW214239   3.588   5.118   0.747
 1414SOL     OW14240   2.490   1.269   7.533
 1414SOL    HW114241   2.517   1.347   7.476
 1414SOL    HW214242   2.561   1.250   7.601
 1415SOL     OW14243   3.828   0.511   3.532
 1415SOL    HW114244   3.810   0.596   3.482
 1415SOL    HW214245   3.794   0.433   3.480
 1416SOL     OW14246   7.196   5.734   0.809
 1416SOL    HW114247   7.295   5.746   0.798
 1416SOL    HW214248   7.148   5.817   0.780
 1417SOL     OW14249   1.202   5.824   3.312
 1417SOL    HW114250   1.286   5.850   3.265
 1417SOL    HW214251   1.141   5.902   3.319
 1418SOL     OW14252   6.056   5.280   3.360
 1418SOL    HW114253   6.021   5.374   3.366
 1418SOL    HW214254   6.035   5.242   3.271
 1419SOL     OW14255   0.490   7.550   3.356
 1419SOL    HW114256   0.407   7.590   3.394
 1419SOL    HW214257   0.468   7.501   3.272
 1420SOL     OW14258   5.126   3.263   5.392
 1420SOL    HW114259   5.214   3.224   5.366
 1420SOL    HW214260   5.107   3.245   5.488
 1421SOL     OW14261   5.846   4.149   4.508
 1421SOL    HW114262   5.796   4.228   4.473
 1421SOL    HW214263   5.943   4.155   4.484
 1422SOL     OW14264   2.872   6.589   5.165
 1422SOL    HW114265   2.880   6.598   5.264
 1422SOL    HW214266   2.822   6.667   5.127
 1423SOL     OW14267   3.250   0.345   7.923
 1423SOL    HW114268   3.187   0.268   7.930
 1423SOL    HW214269   3.237   0.407   8.000
 1424SOL     OW14270   5.866   4.110   4.062
 1424SOL    HW114271   5.775   4.090   4.025
 1424SOL    HW214272   5.861   4.187   4.126
 1425SOL     OW14273   6.089   7.258   2.783
 1425SOL    HW114274   6.127   7.258   2.690
 1425SOL    HW214275   6.082   7.165   2.817
 1426SOL     OW14276   6.691   6.149   5.033
 1426SOL    HW114277   6.602   6.103   5.020
 1426SOL    HW214278   6.696   6.188   5.125
 1427SOL     OW14279   0.546   1.599   3.743
 1427SOL    HW114280   0.562   1.605   3.644
 1427SOL    HW214281   0.626   1.630   3.793
 1428SOL     OW14282   2.378   4.725   3.118
 1428SOL    HW114283   2.454   4.771   3.165
 1428SOL    HW214284   2.406   4.701   3.025
 1429SOL     OW14285   1.730   0.953   1.524
 1429SOL    HW114286   1.638   0.916   1.531
 1429SOL    HW214287   1.793   0.882   1.493
 1430SOL     OW14288   2.335   4.438   7.634
 1430SOL    HW114289   2.280   4.489   7.700
 1430SOL    HW214290   2.282   4.361   7.598
 1431SOL     OW14291   1.773   6.640   3.451
 1431SOL    HW114292   1.865   6.677   3.442
 1431SOL    HW214293   1.705   6.713   3.440
 1432SOL     OW14294   4.192   3.316   3.124
 1432SOL    HW114295   4.229   3.225   3.143
 1432SOL    HW214296   4.235   3.384   3.184
 1433SOL     OW14297   3.790   3.453   5.323
 1433SOL    HW114298   3.827   3.469   5.415
 1433SOL    HW214299   3.859   3.408   5.266
 1434SOL     OW14300   0.706   0.360   1.219
 1434SOL    HW114301   0.739   0.425   1.150
 1434SOL    HW214302   0.777   0.345   1.288
 1435SOL     OW14303   3.255   7.077   3.460
 1435SOL    HW114304   3.156   7.067   3.469
 1435SOL    HW214305   3.292   7.002   3.405
 1436SOL     OW14306   3.386   7.471   2.285
 1436SOL    HW114307   3.433   7.554   2.316
 1436SOL    HW214308   3.352   7.483   2.192
 1437SOL     OW14309   0.481   1.263   5.738
 1437SOL    HW114310   0.436   1.346   5.771
 1437SOL    HW214311   0.451   1.242   5.645
 1438SOL     OW14312   0.260   2.669   3.368
 1438SOL    HW114313   0.248   2.756   3.319
 1438SOL    HW214314   0.177   2.614   3.361
 1439SOL     OW14315   1.557   3.420   1.963
 1439SOL    HW114316   1.505   3.348   1.916
 1439SOL    HW214317   1.517   3.437   2.053
 1440SOL     OW14318   7.675   1.919   7.471
 1440SOL    HW114319   7.635   1.863   7.544
 1440SOL    HW214320   7.604   1.974   7.427
 1441SOL     OW14321   2.332   5.567   2.865
 1441SOL    HW114322   2.285   5.500   2.923
 1441SOL    HW214323   2.315   5.659   2.900
 1442SOL     OW14324   1.069   0.226   4.480
 1442SOL    HW114325   1.127   0.157   4.437
 1442SOL    HW214326   1.102   0.245   4.572
 1443SOL     OW14327   6.065   2.571   3.381
 1443SOL    HW114328   6.113   2.561   3.293
 1443SOL    HW214329   6.030   2.664   3.390
 1444SOL     OW14330   4.569   2.227   6.085
 1444SOL    HW114331   4.638   2.274   6.140
 1444SOL    HW214332   4.530   2.289   6.017
 1445SOL     OW14333   5.646   4.070   4.764
 1445SOL    HW114334   5.725   4.124   4.733
 1445SOL    HW214335   5.670   4.019   4.846
 1446SOL     OW14336   5.197   6.874   2.918
 1446SOL    HW114337   5.155   6.959   2.887
 1446SOL    HW214338   5.252   6.891   3.000
 1447SOL     OW14339   7.587   3.958   2.938
 1447SOL    HW114340   7.550   4.038   2.891
 1447SOL    HW214341   7.627   3.985   3.026
 1448SOL     OW14342   3.591   3.633   0.257
 1448SOL    HW114343   3.506   3.605   0.213
 1448SOL    HW214344   3.572   3.673   0.347
 1449SOL     OW14345   7.588   1.193   6.690
 1449SOL    HW114346   7.640   1.148   6.617
 1449SOL    HW214347   7.492   1.164   6.688
 1450SOL     OW14348   2.876   2.171   6.965
 1450SOL    HW114349   2.953   2.118   7.003
 1450SOL    HW214350   2.868   2.153   6.867
 1451SOL     OW14351   6.873   7.747   0.496
 1451SOL    HW114352   6.919   7.836   0.494
 1451SOL    HW214353   6.775   7.760   0.505
 1452SOL     OW14354   1.392   4.807   2.079
 1452SOL    HW114355   1.393   4.841   2.172
 1452SOL    HW214356   1.483   4.814   2.038
 1453SOL     OW14357   2.703   7.135   5.322
 1453SOL    HW114358   2.694   7.129   5.421
 1453SOL    HW214359   2.640   7.071   5.278
 1454SOL     OW14360   2.438   6.478   4.406
 1454SOL    HW114361   2.439   6.479   4.506
 1454SOL    HW214362   2.389   6.397   4.373
 1455SOL     OW14363   6.911   6.790   0.483
 1455SOL    HW114364   6.953   6.738   0.557
 1455SOL    HW214365   6.940   6.752   0.395
 1456SOL     OW14366   2.057   2.874   4.181
 1456SOL    HW114367   2.016   2.953   4.135
 1456SOL    HW214368   2.101   2.903   4.266
 1457SOL     OW14369   5.338   6.599   5.209
 1457SOL    HW114370   5.349   6.686   5.258
 1457SOL    HW214371   5.329   6.616   5.111
 1458SOL     OW14372   3.213   1.854   3.641
 1458SOL    HW114373   3.179   1.936   3.595
 1458SOL    HW214374   3.276   1.879   3.714
 1459SOL     OW14375   7.908   6.318   2.741
 1459SOL    HW114376   7.947   6.402   2.702
 1459SOL    HW214377   7.943   6.304   2.833
 1460SOL     OW14378   1.548   2.291   5.118
 1460SOL    HW114379   1.635   2.327   5.085
 1460SOL    HW214380   1.557   2.260   5.212
 1461SOL     OW14381   3.522   7.920   5.499
 1461SOL    HW114382   3.480   8.000   5.541
 1461SOL    HW214383   3.615   7.908   5.533
 1462SOL     OW14384   3.973   3.275   5.398
 1462SOL    HW114385   3.991   3.183   5.362
 1462SOL    HW214386   3.981   3.275   5.498
 1463SOL     OW14387   5.542   1.096   4.959
 1463SOL    HW114388   5.614   1.163   4.976
 1463SOL    HW214389   5.570   1.006   4.993
 1464SOL     OW14390   1.605   4.107   5.368
 1464SOL    HW114391   1.687   4.126   5.422
 1464SOL    HW214392   1.524   4.104   5.428
 1465SOL     OW14393   4.099   0.326   2.193
 1465SOL    HW114394   4.149   0.413   2.201
 1465SOL    HW214395   4.157   0.250   2.224
 1466SOL     OW14396   5.891   0.195   6.875
 1466SOL    HW114397   5.914   0.277   6.823
 1466SOL    HW214398   5.965   0.128   6.867
 1467SOL     OW14399   3.766   6.056   2.428
 1467SOL    HW114400   3.725   6.010   2.508
 1467SOL    HW214401   3.804   5.987   2.366
 1468SOL     OW14402   7.336   0.078   7.589
 1468SOL    HW114403   7.282   0.152   7.549
 1468SOL    HW214404   7.372   0.107   7.678
 1469SOL     OW14405   0.884   0.574   7.351
 1469SOL    HW114406   0.887   0.527   7.262
 1469SOL    HW214407   0.794   0.614   7.365
 1470SOL     OW14408   4.172   3.247   6.664
 1470SOL    HW114409   4.234   3.224   6.589
 1470SOL    HW214410   4.174   3.175   6.733
 1471SOL     OW14411   7.783   4.190   1.893
 1471SOL    HW114412   7.723   4.191   1.973
 1471SOL    HW214413   7.767   4.108   1.839
 1472SOL     OW14414   2.798   3.818   2.720
 1472SOL    HW114415   2.746   3.735   2.741
 1472SOL    HW214416   2.888   3.794   2.685
 1473SOL     OW14417   4.969   4.949   0.675
 1473SOL    HW114418   5.007   4.935   0.767
 1473SOL    HW214419   4.869   4.955   0.681
 1474SOL     OW14420   1.551   5.327   1.978
 1474SOL    HW114421   1.628   5.269   1.954
 1474SOL    HW214422   1.465   5.282   1.955
 1475SOL     OW14423   0.705   3.210   2.905
 1475SOL    HW114424   0.663   3.295   2.935
 1475SOL    HW214425   0.679   3.190   2.810
 1476SOL     OW14426   7.281   3.966   5.931
 1476SOL    HW114427   7.183   3.976   5.948
 1476SOL    HW214428   7.333   4.011   6.004
 1477SOL     OW14429   5.502   1.956   4.622
 1477SOL    HW114430   5.577   2.016   4.594
 1477SOL    HW214431   5.487   1.885   4.553
 1478SOL     OW14432   6.907   5.682   3.533
 1478SOL    HW114433   6.984   5.662   3.471
 1478SOL    HW214434   6.940   5.687   3.627
 1479SOL     OW14435   4.043   6.338   5.029
 1479SOL    HW114436   4.068   6.424   4.983
 1479SOL    HW214437   4.110   6.267   5.005
 1480SOL     OW14438   3.417   4.184   2.707
 1480SOL    HW114439   3.500   4.199   2.761
 1480SOL    HW214440   3.439   4.190   2.609
 1481SOL     OW14441   3.621   0.056   0.460
 1481SOL    HW114442   3.533   0.058   0.412
 1481SOL    HW214443   3.681   0.127   0.423
 1482SOL     OW14444   5.581   1.786   2.316
 1482SOL    HW114445   5.615   1.871   2.276
 1482SOL    HW214446   5.621   1.772   2.407
 1483SOL     OW14447   5.998   7.870   5.483
 1483SOL    HW114448   5.936   7.800   5.520
 1483SOL    HW214449   5.973   7.892   5.389
 1484SOL     OW14450   3.513   2.671   0.539
 1484SOL    HW114451   3.422   2.668   0.497
 1484SOL    HW214452   3.510   2.727   0.622
 1485SOL     OW14453   2.506   1.964   5.798
 1485SOL    HW114454   2.534   1.956   5.894
 1485SOL    HW214455   2.469   1.877   5.766
 1486SOL     OW14456   1.572   0.669   1.693
 1486SOL    HW114457   1.643   0.713   1.747
 1486SOL    HW214458   1.549   0.725   1.614
 1487SOL     OW14459   7.063   6.709   4.089
 1487SOL    HW114460   7.124   6.638   4.053
 1487SOL    HW214461   7.037   6.688   4.183
 1488SOL     OW14462   5.056   5.488   6.026
 1488SOL    HW114463   5.112   5.433   5.963
 1488SOL    HW214464   4.976   5.435   6.055
 1489SOL     OW14465   1.906   6.863   4.364
 1489SOL    HW114466   1.980   6.925   4.338
 1489SOL    HW214467   1.926   6.820   4.452
 1490SOL     OW14468   7.847   2.239   6.710
 1490SOL    HW114469   7.916   2.174   6.743
 1490SOL    HW214470   7.853   2.324   6.762
 1491SOL     OW14471   6.848   3.787   4.674
 1491SOL    HW114472   6.878   3.735   4.593
 1491SOL    HW214473   6.752   3.767   4.693
 1492SOL     OW14474   1.830   5.587   1.316
 1492SOL    HW114475   1.737   5.549   1.322
 1492SOL    HW214476   1.843   5.632   1.227
 1493SOL     OW14477   4.465   2.004   2.325
 1493SOL    HW114478   4.471   2.101   2.351
 1493SOL    HW214479   4.432   1.996   2.231
 1494SOL     OW14480   6.306   4.150   4.179
 1494SOL    HW114481   6.349   4.135   4.268
 1494SOL    HW214482   6.376   4.152   4.108
 1495SOL     OW14483   8.000   7.181   3.216
 1495SOL    HW114484   7.987   7.163   3.119
 1495SOL    HW214485   7.977   7.276   3.237
 1496SOL     OW14486   7.348   0.346   4.410
 1496SOL    HW114487   7.344   0.281   4.334
 1496SOL    HW214488   7.393   0.430   4.381
 1497SOL     OW14489   5.921   6.800   7.067
 1497SOL    HW114490   5.920   6.879   7.127
 1497SOL    HW214491   5.918   6.829   6.971
 1498SOL     OW14492   4.710   3.742   4.166
 1498SOL    HW114493   4.808   3.731   4.184
 1498SOL    HW214494   4.668   3.652   4.149
 1499SOL     OW14495   0.012   3.422   2.845
 1499SOL    HW114496   0.101   3.400   2.805
 1499SOL    HW214497  -0.001   3.371   2.930
 1500SOL     OW14498   0.352   6.443   0.269
 1500SOL    HW114499   0.412   6.518   0.298
 1500SOL    HW214500   0.257   6.472   0.275
 1501SOL     OW14501   0.452   6.830   6.160
 1501SOL    HW114502   0.474   6.801   6.254
 1501SOL    HW214503   0.535   6.829   6.104
 1502SOL     OW14504   7.528   3.022   5.486
 1502SOL    HW114505   7.533   3.105   5.431
 1502SOL    HW214506   7.599   3.023   5.556
 1503SOL     OW14507   1.247   6.184   7.578
 1503SOL    HW114508   1.182   6.112   7.552
 1503SOL    HW214509   1.238   6.206   7.675
 1504SOL     OW14510   4.898   6.358   4.206
 1504SOL    HW114511   4.845   6.438   4.177
 1504SOL    HW214512   4.975   6.344   4.143
 1505SOL     OW14513   4.828   6.637   1.837
 1505SOL    HW114514   4.751   6.582   1.805
 1505SOL    HW214515   4.807   6.677   1.926
 1506SOL     OW14516   6.370   0.017   5.563
 1506SOL    HW114517   6.346   0.039   5.469
 1506SOL    HW214518   6.406   0.098   5.609
 1507SOL     OW14519   2.572   6.612   0.835
 1507SOL    HW114520   2.583   6.639   0.930
 1507SOL    HW214521   2.649   6.556   0.805
 1508SOL     OW14522   2.770   1.082   2.549
 1508SOL    HW114523   2.692   1.137   2.579
 1508SOL    HW214524   2.791   1.102   2.454
 1509SOL     OW14525   3.563   4.630   3.182
 1509SOL    HW114526   3.533   4.722   3.209
 1509SOL    HW214527   3.510   4.600   3.103
 1510SOL     OW14528   7.718   5.204   5.202
 1510SOL    HW114529   7.726   5.105   5.193
 1510SOL    HW214530   7.663   5.227   5.282
 1511SOL     OW14531   6.484   5.030   7.354
 1511SOL    HW114532   6.456   5.030   7.450
 1511SOL    HW214533   6.473   5.122   7.315
 1512SOL     OW14534   4.395   6.875   7.467
 1512SOL    HW114535   4.429   6.796   7.415
 1512SOL    HW214536   4.341   6.844   7.545
 1513SOL     OW14537   0.357   0.487   3.759
 1513SOL    HW114538   0.317   0.404   3.720
 1513SOL    HW214539   0.303   0.517   3.838
 1514SOL     OW14540   2.030   3.491   1.334
 1514SOL    HW114541   1.988   3.413   1.288
 1514SOL    HW214542   2.086   3.460   1.410
 1515SOL     OW14543   5.632   7.596   0.720
 1515SOL    HW114544   5.555   7.563   0.776
 1515SOL    HW214545   5.658   7.526   0.653
 1516SOL     OW14546   6.552   4.460   7.145
 1516SOL    HW114547   6.517   4.392   7.209
 1516SOL    HW214548   6.568   4.417   7.056
 1517SOL     OW14549   6.859   5.080   3.400
 1517SOL    HW114550   6.951   5.042   3.402
 1517SOL    HW214551   6.803   5.031   3.334
 1518SOL     OW14552   4.048   4.041   3.759
 1518SOL    HW114553   4.058   3.941   3.768
 1518SOL    HW214554   4.132   4.086   3.789
 1519SOL     OW14555   7.304   4.174   0.849
 1519SOL    HW114556   7.321   4.081   0.882
 1519SOL    HW214557   7.238   4.220   0.907
 1520SOL     OW14558   4.428   1.716   5.155
 1520SOL    HW114559   4.423   1.813   5.131
 1520SOL    HW214560   4.446   1.705   5.253
 1521SOL     OW14561   3.627   2.805   3.072
 1521SOL    HW114562   3.647   2.892   3.028
 1521SOL    HW214563   3.591   2.739   3.005
 1522SOL     OW14564   2.800   4.317   3.760
 1522SOL    HW114565   2.865   4.252   3.721
 1522SOL    HW214566   2.773   4.287   3.852
 1523SOL     OW14567   6.094   5.727   5.512
 1523SOL    HW114568   6.092   5.826   5.496
 1523SOL    HW214569   6.126   5.708   5.605
 1524SOL     OW14570   0.451   5.754   4.930
 1524SOL    HW114571   0.367   5.700   4.936
 1524SOL    HW214572   0.487   5.772   5.021
 1525SOL     OW14573   6.165   0.906   0.450
 1525SOL    HW114574   6.079   0.859   0.471
 1525SOL    HW214575   6.200   0.950   0.533
 1526SOL     OW14576   5.408   3.773   7.398
 1526SOL    HW114577   5.419   3.816   7.488
 1526SOL    HW214578   5.473   3.811   7.333
 1527SOL     OW14579   1.200   6.104   2.093
 1527SOL    HW114580   1.120   6.044   2.099
 1527SOL    HW214581   1.180   6.191   2.138
 1528SOL     OW14582   5.827   0.444  -0.000
 1528SOL    HW114583   5.793   0.350   0.006
 1528SOL    HW214584   5.799   0.496   0.080
 1529SOL     OW14585   4.569   2.265   2.789
 1529SOL    HW114586   4.562   2.191   2.723
 1529SOL    HW214587   4.563   2.353   2.742
 1530SOL     OW14588   4.770   4.562   2.581
 1530SOL    HW114589   4.861   4.599   2.599
 1530SOL    HW214590   4.768   4.465   2.606
 1531SOL     OW14591   3.657   2.776   6.914
 1531SOL    HW114592   3.697   2.852   6.966
 1531SOL    HW214593   3.629   2.809   6.823
 1532SOL     OW14594   0.021   3.530   2.453
 1532SOL    HW114595   0.106   3.568   2.490
 1532SOL    HW214596  -0.000   3.572   2.365
 1533SOL     OW14597   1.158   4.835   3.712
 1533SOL    HW114598   1.168   4.929   3.747
 1533SOL    HW214599   1.120   4.837   3.620
 1534SOL     OW14600   6.219   7.835   2.496
 1534SOL    HW114601   6.254   7.831   2.403
 1534SOL    HW214602   6.289   7.871   2.558
 1535SOL     OW14603   5.582   3.540   3.188
 1535SOL    HW114604   5.682   3.538   3.192
 1535SOL    HW214605   5.544   3.565   3.277
 1536SOL     OW14606   7.629   2.302   6.478
 1536SOL    HW114607   7.698   2.375   6.482
 1536SOL    HW214608   7.573   2.312   6.396
 1537SOL     OW14609   5.020   3.675   5.839
 1537SOL    HW114610   4.993   3.767   5.869
 1537SOL    HW214611   5.055   3.679   5.746
 1538SOL     OW14612   3.714   2.872   5.796
 1538SOL    HW114613   3.638   2.884   5.859
 1538SOL    HW214614   3.801   2.885   5.844
 1539SOL     OW14615   6.884   7.478   1.617
 1539SOL    HW114616   6.956   7.450   1.681
 1539SOL    HW214617   6.794   7.462   1.658
 1540SOL     OW14618   6.635   5.554   5.668
 1540SOL    HW114619   6.686   5.610   5.602
 1540SOL    HW214620   6.556   5.513   5.623
 1541SOL     OW14621   4.297   7.826   1.214
 1541SOL    HW114622   4.252   7.897   1.268
 1541SOL    HW214623   4.324   7.863   1.125
 1542SOL     OW14624   7.528   3.085   0.889
 1542SOL    HW114625   7.468   3.005   0.882
 1542SOL    HW214626   7.551   3.119   0.798
 1543SOL     OW14627   6.039   2.801   1.717
 1543SOL    HW114628   6.092   2.770   1.797
 1543SOL    HW214629   5.942   2.780   1.731
 1544SOL     OW14630   0.794   3.120   5.125
 1544SOL    HW114631   0.823   3.207   5.084
 1544SOL    HW214632   0.853   3.046   5.091
 1545SOL     OW14633   3.285   2.688   2.998
 1545SOL    HW114634   3.352   2.757   2.969
 1545SOL    HW214635   3.193   2.727   2.998
 1546SOL     OW14636   4.925   1.670   3.995
 1546SOL    HW114637   5.011   1.687   3.947
 1546SOL    HW214638   4.912   1.572   4.010
 1547SOL     OW14639   1.532   0.836   3.557
 1547SOL    HW114640   1.560   0.877   3.470
 1547SOL    HW214641   1.506   0.741   3.544
 1548SOL     OW14642   1.277   3.367   7.339
 1548SOL    HW114643   1.347   3.365   7.411
 1548SOL    HW214644   1.319   3.388   7.251
 1549SOL     OW14645   3.161   0.216   2.220
 1549SOL    HW114646   3.141   0.290   2.156
 1549SOL    HW214647   3.253   0.181   2.205
 1550SOL     OW14648   5.217   6.048   0.123
 1550SOL    HW114649   5.271   6.129   0.103
 1550SOL    HW214650   5.209   5.991   0.040
 1551SOL     OW14651   4.116   3.486   6.267
 1551SOL    HW114652   4.023   3.485   6.305
 1551SOL    HW214653   4.131   3.572   6.217
 1552SOL     OW14654   2.635   0.626   3.353
 1552SOL    HW114655   2.633   0.629   3.453
 1552SOL    HW214656   2.564   0.685   3.316
 1553SOL     OW14657   5.943   0.598   7.117
 1553SOL    HW114658   5.972   0.690   7.092
 1553SOL    HW214659   5.848   0.600   7.149
 1554SOL     OW14660   2.782   1.669   4.946
 1554SOL    HW114661   2.754   1.704   5.036
 1554SOL    HW214662   2.863   1.718   4.915
 1555SOL     OW14663   2.430   3.358   5.984
 1555SOL    HW114664   2.382   3.339   5.899
 1555SOL    HW214665   2.424   3.455   6.007
 1556SOL     OW14666   6.606   0.093   3.170
 1556SOL    HW114667   6.687   0.104   3.112
 1556SOL    HW214668   6.603  -0.000   3.207
 1557SOL     OW14669   5.503   7.647   1.577
 1557SOL    HW114670   5.600   7.637   1.596
 1557SOL    HW214671   5.489   7.687   1.487
 1558SOL     OW14672   1.016   3.040   7.198
 1558SOL    HW114673   1.067   2.983   7.134
 1558SOL    HW214674   0.919   3.038   7.175
 1559SOL     OW14675   5.706   0.229   5.981
 1559SOL    HW114676   5.786   0.288   5.985
 1559SOL    HW214677   5.623   0.282   6.001
 1560SOL     OW14678   7.519   1.776   1.646
 1560SOL    HW114679   7.592   1.758   1.580
 1560SOL    HW214680   7.546   1.744   1.736
 1561SOL     OW14681   0.050   6.529   6.786
 1561SOL    HW114682   0.137   6.511   6.831
 1561SOL    HW214683   0.015   6.619   6.814
 1562SOL     OW14684   0.976   5.075   5.685
 1562SOL    HW114685   1.048   5.052   5.750
 1562SOL    HW214686   1.011   5.134   5.613
 1563SOL     OW14687   1.303   2.998   4.618
 1563SOL    HW114688   1.215   2.970   4.579
 1563SOL    HW214689   1.290   3.033   4.711
 1564SOL     OW14690   2.128   2.167   0.916
 1564SOL    HW114691   2.217   2.205   0.891
 1564SOL    HW214692   2.076   2.232   0.971
 1565SOL     OW14693   3.254   0.391   1.556
 1565SOL    HW114694   3.308   0.470   1.524
 1565SOL    HW214695   3.298   0.351   1.636
 1566SOL     OW14696   3.130   3.669   2.914
 1566SOL    HW114697   3.136   3.697   2.818
 1566SOL    HW214698   3.117   3.570   2.920
 1567SOL     OW14699   6.125   5.940   6.909
 1567SOL    HW114700   6.143   6.030   6.949
 1567SOL    HW214701   6.138   5.944   6.810
 1568SOL     OW14702   4.466   2.149   4.009
 1568SOL    HW114703   4.455   2.093   3.927
 1568SOL    HW214704   4.384   2.203   4.025
 1569SOL     OW14705   7.292   2.427   5.264
 1569SOL    HW114706   7.280   2.374   5.180
 1569SOL    HW214707   7.386   2.419   5.296
 1570SOL     OW14708   7.363   3.607   0.579
 1570SOL    HW114709   7.315   3.520   0.588
 1570SOL    HW214710   7.409   3.612   0.490
 1571SOL     OW14711   2.684   4.201   2.642
 1571SOL    HW114712   2.747   4.279   2.643
 1571SOL    HW214713   2.711   4.135   2.712
 1572SOL     OW14714   6.247   6.944   0.152
 1572SOL    HW114715   6.314   6.905   0.215
 1572SOL    HW214716   6.248   7.044   0.159
 1573SOL     OW14717   4.525   3.235   4.436
 1573SOL    HW114718   4.441   3.271   4.395
 1573SOL    HW214719   4.595   3.306   4.437
 1574SOL     OW14720   2.204   6.365   6.084
 1574SOL    HW114721   2.138   6.413   6.141
 1574SOL    HW214722   2.162   6.338   5.997
 1575SOL     OW14723   4.753   0.352   7.951
 1575SOL    HW114724   4.779   0.354   7.854
 1575SOL    HW214725   4.781   0.437   7.996
 1576SOL     OW14726   7.668   3.157   5.851
 1576SOL    HW114727   7.602   3.104   5.905
 1576SOL    HW214728   7.703   3.101   5.776
 1577SOL     OW14729   3.492   1.484   6.902
 1577SOL    HW114730   3.527   1.478   6.996
 1577SOL    HW214731   3.510   1.399   6.853
 1578SOL     OW14732   6.028   4.601   0.808
 1578SOL    HW114733   6.069   4.510   0.811
 1578SOL    HW214734   6.043   4.643   0.719
 1579SOL     OW14735   1.267   6.601   2.372
 1579SOL    HW114736   1.282   6.585   2.275
 1579SOL    HW214737   1.273   6.698   2.393
 1580SOL     OW14738   5.933   6.761   1.586
 1580SOL    HW114739   5.888   6.823   1.650
 1580SOL    HW214740   5.993   6.812   1.525
 1581SOL     OW14741   1.691   2.382   4.197
 1581SOL    HW114742   1.641   2.318   4.139
 1581SOL    HW214743   1.634   2.411   4.274
 1582SOL     OW14744   3.793   5.308   2.105
 1582SOL    HW114745   3.814   5.293   2.202
 1582SOL    HW214746   3.793   5.220   2.056
 1583SOL     OW14747   2.966   7.269   3.066
 1583SOL    HW114748   2.911   7.187   3.083
 1583SOL    HW214749   2.923   7.347   3.111
 1584SOL     OW14750   4.250   0.389   2.007
 1584SOL    HW114751   4.327   0.432   2.054
 1584SOL    HW214752   4.273   0.371   1.912
 1585SOL     OW14753   5.351   4.958   1.543
 1585SOL    HW114754   5.366   4.859   1.536
 1585SOL    HW214755   5.340   4.996   1.451
 1586SOL     OW14756   0.472   4.674   4.420
 1586SOL    HW114757   0.479   4.767   4.454
 1586SOL    HW214758   0.440   4.613   4.493
 1587SOL     OW14759   3.066   6.305   7.048
 1587SOL    HW114760   3.004   6.351   6.985
 1587SOL    HW214761   3.158   6.299   7.008
 1588SOL     OW14762   5.637   0.777   0.920
 1588SOL    HW114763   5.705   0.740   0.856
 1588SOL    HW214764   5.550   0.729   0.910
 1589SOL     OW14765   5.095   2.075   0.922
 1589SOL    HW114766   5.119   2.171   0.935
 1589SOL    HW214767   5.176   2.022   0.901
 1590SOL     OW14768   6.079   5.054   6.185
 1590SOL    HW114769   6.110   4.959   6.175
 1590SOL    HW214770   6.118   5.110   6.112
 1591SOL     OW14771   0.952   7.307   1.696
 1591SOL    HW114772   0.868   7.318   1.749
 1591SOL    HW214773   0.968   7.210   1.675
 1592SOL     OW14774   0.229   3.314   6.860
 1592SOL    HW114775   0.228   3.348   6.766
 1592SOL    HW214776   0.172   3.372   6.918
 1593SOL     OW14777   2.282   6.391   6.643
 1593SOL    HW114778   2.343   6.440   6.705
 1593SOL    HW214779   2.261   6.301   6.679
 1594SOL     OW14780   3.882   7.005   0.877
 1594SOL    HW114781   3.850   7.048   0.962
 1594SOL    HW214782   3.831   6.921   0.860
 1595SOL     OW14783   6.361   4.830   4.519
 1595SOL    HW114784   6.359   4.740   4.563
 1595SOL    HW214785   6.390   4.821   4.424
 1596SOL     OW14786   6.840   4.780   0.752
 1596SOL    HW114787   6.830   4.680   0.747
 1596SOL    HW214788   6.841   4.810   0.847
 1597SOL     OW14789   7.572   4.668   2.577
 1597SOL    HW114790   7.662   4.686   2.617
 1597SOL    HW214791   7.568   4.705   2.484
 1598SOL     OW14792   2.049   7.356   0.513
 1598SOL    HW114793   1.986   7.295   0.562
 1598SOL    HW214794   2.141   7.349   0.552
 1599SOL     OW14795   6.744   0.782   7.960
 1599SOL    HW114796   6.804   0.753   7.885
 1599SOL    HW214797   6.771   0.873   7.992
 1600SOL     OW14798   0.125   1.494   0.815
 1600SOL    HW114799   0.170   1.471   0.729
 1600SOL    HW214800   0.132   1.592   0.832
 1601SOL     OW14801   2.911   5.477   1.452
 1601SOL    HW114802   2.869   5.392   1.419
 1601SOL    HW214803   2.908   5.480   1.552
 1602SOL     OW14804   6.862   3.243   6.324
 1602SOL    HW114805   6.864   3.331   6.276
 1602SOL    HW214806   6.839   3.257   6.420
 1603SOL     OW14807   5.935   7.030   5.831
 1603SOL    HW114808   5.984   6.990   5.753
 1603SOL    HW214809   5.853   7.077   5.799
 1604SOL     OW14810   5.515   4.865   3.250
 1604SOL    HW114811   5.571   4.948   3.257
 1604SOL    HW214812   5.459   4.854   3.332
 1605SOL     OW14813   4.389   4.437   5.451
 1605SOL    HW114814   4.328   4.407   5.524
 1605SOL    HW214815   4.412   4.360   5.391
 1606SOL     OW14816   2.875   4.212   7.884
 1606SOL    HW114817   2.808   4.220   7.810
 1606SOL    HW214818   2.836   4.247   7.969
 1607SOL     OW14819   2.265   6.940   6.777
 1607SOL    HW114820   2.250   7.036   6.800
 1607SOL    HW214821   2.342   6.903   6.830
 1608SOL     OW14822   4.556   6.748   1.845
 1608SOL    HW114823   4.572   6.843   1.873
 1608SOL    HW214824   4.572   6.738   1.747
 1609SOL     OW14825   5.579   1.614   5.293
 1609SOL    HW114826   5.615   1.699   5.254
 1609SOL    HW214827   5.614   1.603   5.386
 1610SOL     OW14828   0.958   7.514   3.159
 1610SOL    HW114829   1.015   7.566   3.223
 1610SOL    HW214830   0.945   7.421   3.193
 1611SOL     OW14831   4.074   2.770   2.175
 1611SOL    HW114832   4.158   2.781   2.228
 1611SOL    HW214833   4.084   2.813   2.086
 1612SOL     OW14834   7.167   7.234   0.679
 1612SOL    HW114835   7.108   7.282   0.613
 1612SOL    HW214836   7.253   7.283   0.689
 1613SOL     OW14837   3.238   3.832   4.621
 1613SOL    HW114838   3.205   3.884   4.701
 1613SOL    HW214839   3.319   3.877   4.583
 1614SOL     OW14840   0.773   4.694   1.392
 1614SOL    HW114841   0.841   4.747   1.341
 1614SOL    HW214842   0.812   4.607   1.421
 1615SOL     OW14843   5.590   0.805   7.860
 1615SOL    HW114844   5.533   0.782   7.939
 1615SOL    HW214845   5.687   0.799   7.885
 1616SOL     OW14846   2.975   3.156   1.369
 1616SOL    HW114847   3.002   3.134   1.462
 1616SOL    HW214848   3.056   3.171   1.312
 1617SOL     OW14849   6.933   4.249   2.126
 1617SOL    HW114850   6.865   4.246   2.199
 1617SOL    HW214851   6.891   4.227   2.038
 1618SOL     OW14852   7.003   4.945   2.527
 1618SOL    HW114853   6.931   4.876   2.520
 1618SOL    HW214854   6.973   5.018   2.590
 1619SOL     OW14855   6.874   2.353   4.501
 1619SOL    HW114856   6.958   2.300   4.492
 1619SOL    HW214857   6.821   2.349   4.416
 1620SOL     OW14858   7.595   3.093   7.456
 1620SOL    HW114859   7.595   3.107   7.555
 1620SOL    HW214860   7.674   3.138   7.415
 1621SOL     OW14861   6.947   5.769   1.819
 1621SOL    HW114862   6.987   5.714   1.745
 1621SOL    HW214863   6.884   5.712   1.872
 1622SOL     OW14864   7.581   1.468   4.520
 1622SOL    HW114865   7.583   1.568   4.520
 1622SOL    HW214866   7.488   1.436   4.537
 1623SOL     OW14867   1.393   6.935   1.141
 1623SOL    HW114868   1.468   6.874   1.169
 1623SOL    HW214869   1.420   6.986   1.060
 1624SOL     OW14870   4.531   4.092   7.601
 1624SOL    HW114871   4.555   4.002   7.565
 1624SOL    HW214872   4.494   4.083   7.694
 1625SOL     OW14873   5.824   1.956   0.065
 1625SOL    HW114874   5.725   1.974   0.060
 1625SOL    HW214875   5.850   1.938   0.160
 1626SOL     OW14876   2.005   4.972   6.986
 1626SOL    HW114877   1.957   4.891   6.951
 1626SOL    HW214878   2.094   4.982   6.942
 1627SOL     OW14879   1.928   4.738   3.102
 1627SOL    HW114880   1.994   4.667   3.129
 1627SOL    HW214881   1.947   4.767   3.008
 1628SOL     OW14882   2.324   3.805   0.280
 1628SOL    HW114883   2.385   3.822   0.202
 1628SOL    HW214884   2.248   3.870   0.278
 1629SOL     OW14885   2.130   7.452   4.773
 1629SOL    HW114886   2.080   7.410   4.848
 1629SOL    HW214887   2.179   7.382   4.721
 1630SOL     OW14888   4.231   7.810   7.385
 1630SOL    HW114889   4.135   7.783   7.390
 1630SOL    HW214890   4.259   7.822   7.290
 1631SOL     OW14891   5.759   7.888   0.917
 1631SOL    HW114892   5.683   7.865   0.979
 1631SOL    HW214893   5.826   7.944   0.965
 1632SOL     OW14894   2.402   0.617   1.741
 1632SOL    HW114895   2.339   0.565   1.800
 1632SOL    HW214896   2.440   0.558   1.670
 1633SOL     OW14897   0.943   1.680   1.829
 1633SOL    HW114898   0.985   1.631   1.752
 1633SOL    HW214899   0.972   1.775   1.829
 1634SOL     OW14900   2.435   1.008   5.647
 1634SOL    HW114901   2.452   1.087   5.588
 1634SOL    HW214902   2.475   1.023   5.737
 1635SOL     OW14903   6.529   3.770   1.365
 1635SOL    HW114904   6.447   3.826   1.354
 1635SOL    HW214905   6.600   3.799   1.301
 1636SOL     OW14906   6.476   4.028   1.271
 1636SOL    HW114907   6.467   4.024   1.171
 1636SOL    HW214908   6.457   4.121   1.304
 1637SOL     OW14909   5.455   0.999   5.562
 1637SOL    HW114910   5.544   1.035   5.531
 1637SOL    HW214911   5.465   0.957   5.652
 1638SOL     OW14912   0.047   7.220   2.496
 1638SOL    HW114913   0.143   7.202   2.520
 1638SOL    HW214914   0.042   7.295   2.430
 1639SOL     OW14915   4.831   5.228   1.695
 1639SOL    HW114916   4.767   5.299   1.724
 1639SOL    HW214917   4.871   5.183   1.774
 1640SOL     OW14918   7.908   5.544   5.746
 1640SOL    HW114919   7.892   5.455   5.788
 1640SOL    HW214920   7.824   5.599   5.749
 1641SOL     OW14921   2.922   1.068   2.179
 1641SOL    HW114922   2.920   1.064   2.280
 1641SOL    HW214923   2.835   1.103   2.145
 1642SOL     OW14924   7.966   3.461   2.995
 1642SOL    HW114925   8.000   3.372   2.962
 1642SOL    HW214926   8.000   3.534   2.936
 1643SOL     OW14927   3.388   7.781   4.330
 1643SOL    HW114928   3.302   7.730   4.339
 1643SOL    HW214929   3.424   7.773   4.237
 1644SOL     OW14930   2.704   4.841   1.849
 1644SOL    HW114931   2.781   4.854   1.911
 1644SOL    HW214932   2.730   4.869   1.757
 1645SOL     OW14933   2.506   5.469   3.658
 1645SOL    HW114934   2.409   5.476   3.635
 1645SOL    HW214935   2.535   5.551   3.708
 1646SOL     OW14936   7.395   3.022   3.556
 1646SOL    HW114937   7.440   2.944   3.513
 1646SOL    HW214938   7.354   2.993   3.643
 1647SOL     OW14939   2.117   1.218   0.819
 1647SOL    HW114940   2.169   1.302   0.831
 1647SOL    HW214941   2.168   1.140   0.857
 1648SOL     OW14942   5.076   3.061   7.760
 1648SOL    HW114943   5.035   3.030   7.673
 1648SOL    HW214944   5.166   3.100   7.742
 1649SOL     OW14945   2.537   7.589   2.976
 1649SOL    HW114946   2.611   7.532   3.011
 1649SOL    HW214947   2.456   7.579   3.033
 1650SOL     OW14948   6.876   6.615   7.832
 1650SOL    HW114949   6.943   6.541   7.837
 1650SOL    HW214950   6.815   6.612   7.911
 1651SOL     OW14951   3.731   6.486   7.769
 1651SOL    HW114952   3.708   6.390   7.750
 1651SOL    HW214953   3.690   6.545   7.700
 1652SOL     OW14954   6.827   6.305   3.040
 1652SOL    HW114955   6.756   6.301   2.969
 1652SOL    HW214956   6.915   6.276   3.002
 1653SOL     OW14957   7.573   5.971   2.457
 1653SOL    HW114958   7.569   5.922   2.544
 1653SOL    HW214959   7.664   5.961   2.417
 1654SOL     OW14960   3.268   6.204   2.179
 1654SOL    HW114961   3.210   6.286   2.184
 1654SOL    HW214962   3.345   6.220   2.118
 1655SOL     OW14963   1.937   1.624   0.914
 1655SOL    HW114964   2.017   1.630   0.855
 1655SOL    HW214965   1.951   1.680   0.996
 1656SOL     OW14966   1.605   7.481   5.194
 1656SOL    HW114967   1.564   7.460   5.282
 1656SOL    HW214968   1.701   7.457   5.193
 1657SOL     OW14969   1.714   6.808   7.265
 1657SOL    HW114970   1.653   6.732   7.241
 1657SOL    HW214971   1.707   6.828   7.362
 1658SOL     OW14972   4.131   6.498   1.010
 1658SOL    HW114973   4.120   6.443   0.927
 1658SOL    HW214974   4.219   6.547   1.008
 1659SOL     OW14975   4.561   7.713   0.854
 1659SOL    HW114976   4.503   7.783   0.896
 1659SOL    HW214977   4.536   7.702   0.758
 1660SOL     OW14978   1.168   2.679   3.251
 1660SOL    HW114979   1.144   2.752   3.187
 1660SOL    HW214980   1.175   2.716   3.343
 1661SOL     OW14981   1.563   6.921   3.645
 1661SOL    HW114982   1.642   6.956   3.595
 1661SOL    HW214983   1.541   6.982   3.721
 1662SOL     OW14984   3.409   7.848   3.147
 1662SOL    HW114985   3.334   7.914   3.135
 1662SOL    HW214986   3.487   7.875   3.091
 1663SOL     OW14987   3.122   4.140   1.940
 1663SOL    HW114988   3.028   4.139   1.905
 1663SOL    HW214989   3.122   4.173   2.034
 1664SOL     OW14990   6.615   4.162   1.738
 1664SOL    HW114991   6.535   4.221   1.752
 1664SOL    HW214992   6.589   4.066   1.751
 1665SOL     OW14993   1.060   4.556   2.665
 1665SOL    HW114994   1.053   4.648   2.626
 1665SOL    HW214995   0.983   4.539   2.726
 1666SOL     OW14996   3.803   7.842   5.837
 1666SOL    HW114997   3.805   7.799   5.746
 1666SOL    HW214998   3.839   7.935   5.831
 1667SOL     OW14999   5.956   2.237   6.788
 1667SOL    HW115000   6.036   2.260   6.732
 1667SOL    HW215001   5.985   2.205   6.878
 1668SOL     OW15002   6.749   2.026   6.208
 1668SOL    HW115003   6.733   2.124   6.216
 1668SOL    HW215004   6.745   1.984   6.299
 1669SOL     OW15005   4.550   5.998   5.547
 1669SOL    HW115006   4.467   6.038   5.507
 1669SOL    HW215007   4.567   6.038   5.637
 1670SOL     OW15008   6.468   5.489   3.942
 1670SOL    HW115009   6.452   5.401   3.899
 1670SOL    HW215010   6.385   5.522   3.986
 1671SOL     OW15011   1.809   0.164   1.250
 1671SOL    HW115012   1.868   0.083   1.250
 1671SOL    HW215013   1.820   0.215   1.165
 1672SOL     OW15014   3.657   2.440   3.652
 1672SOL    HW115015   3.706   2.425   3.566
 1672SOL    HW215016   3.579   2.378   3.659
 1673SOL     OW15017   6.462   4.091   2.417
 1673SOL    HW115018   6.362   4.102   2.417
 1673SOL    HW215019   6.505   4.179   2.398
 1674SOL     OW15020   1.429   7.265   5.465
 1674SOL    HW115021   1.347   7.208   5.469
 1674SOL    HW215022   1.471   7.272   5.556
 1675SOL     OW15023   2.384   6.494   0.223
 1675SOL    HW115024   2.424   6.477   0.313
 1675SOL    HW215025   2.319   6.421   0.201
 1676SOL     OW15026   5.538   3.610   7.273
 1676SOL    HW115027   5.461   3.560   7.313
 1676SOL    HW215028   5.525   3.618   7.174
 1677SOL     OW15029   4.038   5.743   4.129
 1677SOL    HW115030   3.950   5.710   4.162
 1677SOL    HW215031   4.050   5.718   4.033
 1678SOL     OW15032   3.526   7.664   4.018
 1678SOL    HW115033   3.486   7.753   3.996
 1678SOL    HW215034   3.458   7.592   4.003
 1679SOL     OW15035   3.604   5.019   6.294
 1679SOL    HW115036   3.524   5.057   6.341
 1679SOL    HW215037   3.585   5.010   6.197
 1680SOL     OW15038   0.919   2.371   3.558
 1680SOL    HW115039   0.847   2.439   3.543
 1680SOL    HW215040   0.978   2.400   3.634
 1681SOL     OW15041   0.365   7.796   1.746
 1681SOL    HW115042   0.312   7.715   1.719
 1681SOL    HW215043   0.304   7.867   1.780
 1682SOL     OW15044   5.293   7.271   2.239
 1682SOL    HW115045   5.236   7.216   2.178
 1682SOL    HW215046   5.237   7.311   2.311
 1683SOL     OW15047   1.827   7.709   1.869
 1683SOL    HW115048   1.773   7.680   1.947
 1683SOL    HW215049   1.766   7.740   1.795
 1684SOL     OW15050   4.370   6.079   2.431
 1684SOL    HW115051   4.392   6.154   2.493
 1684SOL    HW215052   4.290   6.029   2.465
 1685SOL     OW15053   1.051   0.109   0.129
 1685SOL    HW115054   1.054   0.138   0.225
 1685SOL    HW215055   0.992   0.171   0.077
 1686SOL     OW15056   3.621   3.640   2.942
 1686SOL    HW115057   3.648   3.561   2.997
 1686SOL    HW215058   3.697   3.705   2.936
 1687SOL     OW15059   4.817   0.211   5.936
 1687SOL    HW115060   4.806   0.308   5.916
 1687SOL    HW215061   4.816   0.196   6.035
 1688SOL     OW15062   1.428   4.296   3.567
 1688SOL    HW115063   1.358   4.225   3.573
 1688SOL    HW215064   1.421   4.358   3.645
 1689SOL     OW15065   0.414   1.426   0.159
 1689SOL    HW115066   0.317   1.404   0.172
 1689SOL    HW215067   0.426   1.488   0.082
 1690SOL     OW15068   6.040   1.169   2.153
 1690SOL    HW115069   6.131   1.181   2.114
 1690SOL    HW215070   6.044   1.105   2.229
 1691SOL     OW15071   7.700   2.529   5.153
 1691SOL    HW115072   7.755   2.601   5.194
 1691SOL    HW215073   7.681   2.551   5.057
 1692SOL     OW15074   6.991   2.200   0.238
 1692SOL    HW115075   6.957   2.114   0.275
 1692SOL    HW215076   6.979   2.273   0.305
 1693SOL     OW15077   6.477   4.588   4.844
 1693SOL    HW115078   6.452   4.601   4.748
 1693SOL    HW215079   6.407   4.629   4.903
 1694SOL     OW15080   0.852   7.312   5.024
 1694SOL    HW115081   0.780   7.331   5.092
 1694SOL    HW215082   0.835   7.365   4.941
 1695SOL     OW15083   4.498   5.249   2.973
 1695SOL    HW115084   4.502   5.308   2.892
 1695SOL    HW215085   4.585   5.201   2.985
 1696SOL     OW15086   5.542   2.750   6.207
 1696SOL    HW115087   5.510   2.841   6.180
 1696SOL    HW215088   5.587   2.754   6.296
 1697SOL     OW15089   3.965   0.307   5.665
 1697SOL    HW115090   3.971   0.393   5.717
 1697SOL    HW215091   3.878   0.262   5.684
 1698SOL     OW15092   2.897   3.191   3.408
 1698SOL    HW115093   2.873   3.111   3.463
 1698SOL    HW215094   2.895   3.274   3.464
 1699SOL     OW15095   7.265   3.112   2.174
 1699SOL    HW115096   7.219   3.190   2.132
 1699SOL    HW215097   7.319   3.063   2.105
 1700SOL     OW15098   3.308   5.661   1.261
 1700SOL    HW115099   3.290   5.563   1.275
 1700SOL    HW215100   3.346   5.676   1.170
 1701SOL     OW15101   1.874   5.595   4.146
 1701SOL    HW115102   1.945   5.659   4.177
 1701SOL    HW215103   1.793   5.605   4.203
 1702SOL     OW15104   4.290   1.232   6.162
 1702SOL    HW115105   4.200   1.206   6.199
 1702SOL    HW215106   4.292   1.330   6.142
 1703SOL     OW15107   2.821   1.804   3.957
 1703SOL    HW115108   2.872   1.878   4.001
 1703SOL    HW215109   2.802   1.828   3.862
 1704SOL     OW15110   4.354   1.240   4.359
 1704SOL    HW115111   4.407   1.292   4.426
 1704SOL    HW215112   4.278   1.296   4.325
 1705SOL     OW15113   7.727   7.478   2.476
 1705SOL    HW115114   7.791   7.451   2.548
 1705SOL    HW215115   7.676   7.559   2.504
 1706SOL     OW15116   5.697   1.509   4.112
 1706SOL    HW115117   5.773   1.464   4.158
 1706SOL    HW215118   5.729   1.592   4.066
 1707SOL     OW15119   1.519   3.445   7.529
 1707SOL    HW115120   1.577   3.493   7.462
 1707SOL    HW215121   1.560   3.357   7.552
 1708SOL     OW15122   2.970   1.816   2.920
 1708SOL    HW115123   3.055   1.786   2.962
 1708SOL    HW215124   2.990   1.865   2.835
 1709SOL     OW15125   5.577   5.115   6.745
 1709SOL    HW115126   5.568   5.174   6.826
 1709SOL    HW215127   5.674   5.096   6.727
 1710SOL     OW15128   1.319   0.765   2.967
 1710SOL    HW115129   1.383   0.719   2.906
 1710SOL    HW215130   1.368   0.824   3.031
 1711SOL     OW15131   4.808   5.266   5.170
 1711SOL    HW115132   4.814   5.216   5.083
 1711SOL    HW215133   4.898   5.299   5.197
 1712SOL     OW15134   1.919   3.906   3.282
 1712SOL    HW115135   1.954   3.870   3.196
 1712SOL    HW215136   1.996   3.928   3.343
 1713SOL     OW15137   1.628   2.892   3.824
 1713SOL    HW115138   1.664   2.812   3.776
 1713SOL    HW215139   1.584   2.864   3.909
 1714SOL     OW15140   1.988   6.773   7.596
 1714SOL    HW115141   2.025   6.866   7.587
 1714SOL    HW215142   2.021   6.731   7.680
 1715SOL     OW15143   7.254   7.176   0.911
 1715SOL    HW115144   7.170   7.229   0.899
 1715SOL    HW215145   7.241   7.107   0.982
 1716SOL     OW15146   0.849   2.904   5.479
 1716SOL    HW115147   0.915   2.970   5.515
 1716SOL    HW215148   0.818   2.934   5.389
 1717SOL     OW15149   4.636   3.346   4.770
 1717SOL    HW115150   4.689   3.273   4.814
 1717SOL    HW215151   4.540   3.339   4.796
 1718SOL     OW15152   4.791   0.452   3.614
 1718SOL    HW115153   4.739   0.537   3.608
 1718SOL    HW215154   4.889   0.471   3.612
 1719SOL     OW15155   7.744   0.241   2.175
 1719SOL    HW115156   7.814   0.309   2.197
 1719SOL    HW215157   7.701   0.263   2.087
 1720SOL     OW15158   8.000   4.621   3.832
 1720SOL    HW115159   7.957   4.636   3.921
 1720SOL    HW215160   7.989   4.702   3.774
 1721SOL     OW15161   6.306   5.514   0.280
 1721SOL    HW115162   6.293   5.613   0.272
 1721SOL    HW215163   6.307   5.472   0.189
 1722SOL     OW15164   6.312   2.944   1.882
 1722SOL    HW115165   6.218   2.959   1.852
 1722SOL    HW215166   6.374   2.949   1.803
 1723SOL     OW15167   6.088   7.768   6.277
 1723SOL    HW115168   6.119   7.683   6.236
 1723SOL    HW215169   6.160   7.806   6.335
 1724SOL     OW15170   5.419   3.473   1.771
 1724SOL    HW115171   5.487   3.535   1.730
 1724SOL    HW215172   5.328   3.493   1.734
 1725SOL     OW15173   5.702   7.730   2.559
 1725SOL    HW115174   5.666   7.694   2.645
 1725SOL    HW215175   5.734   7.655   2.502
 1726SOL     OW15176   3.948   2.721   3.706
 1726SOL    HW115177   4.005   2.795   3.671
 1726SOL    HW215178   3.881   2.756   3.771
 1727SOL     OW15179   3.395   2.069   2.387
 1727SOL    HW115180   3.326   2.000   2.366
 1727SOL    HW215181   3.442   2.098   2.303
 1728SOL     OW15182   5.625   7.028   4.314
 1728SOL    HW115183   5.679   7.105   4.348
 1728SOL    HW215184   5.584   6.979   4.390
 1729SOL     OW15185   7.930   0.322   2.714
 1729SOL    HW115186   8.000   0.254   2.733
 1729SOL    HW215187   7.921   0.385   2.792
 1730SOL     OW15188   5.974   6.981   2.451
 1730SOL    HW115189   6.045   6.931   2.499
 1730SOL    HW215190   6.004   7.005   2.359
 1731SOL     OW15191   0.201   6.919   5.174
 1731SOL    HW115192   0.252   6.955   5.096
 1731SOL    HW215193   0.127   6.860   5.142
 1732SOL     OW15194   4.662   3.887   6.057
 1732SOL    HW115195   4.687   3.937   5.975
 1732SOL    HW215196   4.740   3.883   6.120
 1733SOL     OW15197   1.403   1.827   6.521
 1733SOL    HW115198   1.336   1.767   6.477
 1733SOL    HW215199   1.461   1.869   6.451
 1734SOL     OW15200   0.696   7.683   2.913
 1734SOL    HW115201   0.668   7.593   2.880
 1734SOL    HW215202   0.671   7.694   3.009
 1735SOL     OW15203   1.010   6.076   4.408
 1735SOL    HW115204   1.004   6.173   4.431
 1735SOL    HW215205   1.064   6.064   4.325
 1736SOL     OW15206   5.858   7.044   0.534
 1736SOL    HW115207   5.880   7.121   0.595
 1736SOL    HW215208   5.778   7.067   0.479
 1737SOL     OW15209   3.774   2.530   7.627
 1737SOL    HW115210   3.720   2.571   7.553
 1737SOL    HW215211   3.713   2.503   7.702
 1738SOL     OW15212   4.222   1.965   4.163
 1738SOL    HW115213   4.176   2.054   4.153
 1738SOL    HW215214   4.284   1.967   4.241
 1739SOL     OW15215   6.768   6.504   3.627
 1739SOL    HW115216   6.785   6.582   3.566
 1739SOL    HW215217   6.850   6.446   3.632
 1740SOL     OW15218   7.982   4.876   0.500
 1740SOL    HW115219   7.924   4.903   0.424
 1740SOL    HW215220   8.000   4.778   0.496
 1741SOL     OW15221   1.461   6.200   5.178
 1741SOL    HW115222   1.533   6.264   5.207
 1741SOL    HW215223   1.430   6.223   5.086
 1742SOL     OW15224   0.647   0.065   1.176
 1742SOL    HW115225   0.662   0.039   1.081
 1742SOL    HW215226   0.734   0.068   1.225
 1743SOL     OW15227   1.662   7.724   0.183
 1743SOL    HW115228   1.634   7.651   0.245
 1743SOL    HW215229   1.608   7.807   0.200
 1744SOL     OW15230   4.699   4.828   5.981
 1744SOL    HW115231   4.602   4.851   5.975
 1744SOL    HW215232   4.755   4.910   5.967
 1745SOL     OW15233   5.400   6.004   7.849
 1745SOL    HW115234   5.325   6.058   7.811
 1745SOL    HW215235   5.365   5.917   7.886
 1746SOL     OW15236   3.146   7.491   6.298
 1746SOL    HW115237   3.109   7.464   6.387
 1746SOL    HW215238   3.154   7.412   6.238
 1747SOL     OW15239   7.828   4.810   0.855
 1747SOL    HW115240   7.819   4.757   0.771
 1747SOL    HW215241   7.760   4.779   0.922
 1748SOL     OW15242   7.154   7.284   2.752
 1748SOL    HW115243   7.058   7.277   2.724
 1748SOL    HW215244   7.161   7.335   2.837
 1749SOL     OW15245   7.579   1.532   2.412
 1749SOL    HW115246   7.490   1.554   2.451
 1749SOL    HW215247   7.573   1.446   2.361
 1750SOL     OW15248   6.218   2.129   4.330
 1750SOL    HW115249   6.301   2.152   4.382
 1750SOL    HW215250   6.237   2.055   4.266
 1751SOL     OW15251   5.583   0.700   1.319
 1751SOL    HW115252   5.643   0.691   1.239
 1751SOL    HW215253   5.538   0.789   1.318
 1752SOL     OW15254   7.669   6.268   3.726
 1752SOL    HW115255   7.741   6.228   3.783
 1752SOL    HW215256   7.586   6.213   3.731
 1753SOL     OW15257   0.146   1.666   0.049
 1753SOL    HW115258   0.153   1.579  -0.000
 1753SOL    HW215259   0.072   1.661   0.116
 1754SOL     OW15260   3.017   4.322   0.946
 1754SOL    HW115261   2.940   4.322   1.011
 1754SOL    HW215262   2.985   4.350   0.855
 1755SOL     OW15263   2.154   3.007   2.459
 1755SOL    HW115264   2.072   2.949   2.460
 1755SOL    HW215265   2.146   3.079   2.529
 1756SOL     OW15266   4.905   5.220   3.398
 1756SOL    HW115267   4.969   5.270   3.341
 1756SOL    HW215268   4.915   5.247   3.494
 1757SOL     OW15269   3.243   1.995   6.236
 1757SOL    HW115270   3.290   2.082   6.227
 1757SOL    HW215271   3.264   1.936   6.158
 1758SOL     OW15272   1.172   2.116   3.862
 1758SOL    HW115273   1.211   2.207   3.846
 1758SOL    HW215274   1.166   2.067   3.775
 1759SOL     OW15275   5.438   7.444   1.638
 1759SOL    HW115276   5.392   7.420   1.724
 1759SOL    HW215277   5.456   7.362   1.585
 1760SOL     OW15278   5.634   1.091   4.099
 1760SOL    HW115279   5.713   1.143   4.067
 1760SOL    HW215280   5.654   1.051   4.188
 1761SOL     OW15281   3.295   2.527   0.750
 1761SOL    HW115282   3.363   2.589   0.712
 1761SOL    HW215283   3.322   2.432   0.733
 1762SOL     OW15284   3.231   3.443   7.175
 1762SOL    HW115285   3.170   3.437   7.254
 1762SOL    HW215286   3.212   3.368   7.112
 1763SOL     OW15287   3.732   2.687   3.542
 1763SOL    HW115288   3.649   2.633   3.527
 1763SOL    HW215289   3.721   2.747   3.621
 1764SOL     OW15290   7.371   3.786   4.825
 1764SOL    HW115291   7.372   3.700   4.876
 1764SOL    HW215292   7.309   3.851   4.868
 1765SOL     OW15293   1.221   3.521   0.619
 1765SOL    HW115294   1.142   3.503   0.679
 1765SOL    HW215295   1.189   3.554   0.531
 1766SOL     OW15296   6.141   0.153   1.067
 1766SOL    HW115297   6.049   0.170   1.032
 1766SOL    HW215298   6.165   0.221   1.137
 1767SOL     OW15299   7.706   2.967   0.946
 1767SOL    HW115300   7.747   3.044   0.896
 1767SOL    HW215301   7.771   2.893   0.953
 1768SOL     OW15302   6.366   7.462   7.288
 1768SOL    HW115303   6.268   7.460   7.267
 1768SOL    HW215304   6.381   7.505   7.377
 1769SOL     OW15305   7.625   4.225   2.770
 1769SOL    HW115306   7.672   4.227   2.859
 1769SOL    HW215307   7.527   4.234   2.783
 1770SOL     OW15308   6.010   3.065   3.673
 1770SOL    HW115309   6.054   3.047   3.761
 1770SOL    HW215310   5.917   3.029   3.674
 1771SOL     OW15311   0.192   3.727   7.210
 1771SOL    HW115312   0.157   3.806   7.261
 1771SOL    HW215313   0.221   3.756   7.118
 1772SOL     OW15314   0.525   7.558   6.718
 1772SOL    HW115315   0.523   7.458   6.712
 1772SOL    HW215316   0.435   7.596   6.696
 1773SOL     OW15317   7.735   0.067   0.862
 1773SOL    HW115318   7.819   0.113   0.830
 1773SOL    HW215319   7.754   0.018   0.947
 1774SOL     OW15320   5.739   4.735   1.477
 1774SOL    HW115321   5.835   4.725   1.503
 1774SOL    HW215322   5.690   4.650   1.495
 1775SOL     OW15323   0.576   3.793   5.745
 1775SOL    HW115324   0.493   3.750   5.783
 1775SOL    HW215325   0.608   3.865   5.806
 1776SOL     OW15326   4.378   1.135   5.985
 1776SOL    HW115327   4.419   1.047   6.011
 1776SOL    HW215328   4.411   1.163   5.895
 1777SOL     OW15329   4.551   2.281   2.471
 1777SOL    HW115330   4.473   2.340   2.492
 1777SOL    HW215331   4.624   2.294   2.539
 1778SOL     OW15332   7.470   7.723   7.795
 1778SOL    HW115333   7.544   7.670   7.754
 1778SOL    HW215334   7.449   7.688   7.886
 1779SOL     OW15335   1.677   1.269   3.312
 1779SOL    HW115336   1.752   1.325   3.348
 1779SOL    HW215337   1.616   1.326   3.256
 1780SOL     OW15338   7.312   1.384   1.063
 1780SOL    HW115339   7.240   1.343   1.119
 1780SOL    HW215340   7.271   1.437   0.989
 1781SOL     OW15341   3.901   0.082   1.915
 1781SOL    HW115342   3.868  -0.000   1.962
 1781SOL    HW215343   3.893   0.071   1.816
 1782SOL     OW15344   5.477   0.905   2.869
 1782SOL    HW115345   5.539   0.979   2.843
 1782SOL    HW215346   5.485   0.886   2.967
 1783SOL     OW15347   0.537   1.828   0.074
 1783SOL    HW115348   0.561   1.869   0.162
 1783SOL    HW215349   0.449   1.781   0.082
 1784SOL     OW15350   3.016   2.079   1.230
 1784SOL    HW115351   3.086   2.148   1.246
 1784SOL    HW215352   2.926   2.115   1.252
 1785SOL     OW15353   3.019   6.617   1.577
 1785SOL    HW115354   2.929   6.585   1.547
 1785SOL    HW215355   3.014   6.714   1.600
 1786SOL     OW15356   4.688   3.095   7.392
 1786SOL    HW115357   4.731   3.043   7.466
 1786SOL    HW215358   4.738   3.080   7.307
 1787SOL     OW15359   1.092   2.745   1.074
 1787SOL    HW115360   1.049   2.659   1.103
 1787SOL    HW215361   1.125   2.737   0.980
 1788SOL     OW15362   6.097   5.919   1.394
 1788SOL    HW115363   6.044   5.843   1.357
 1788SOL    HW215364   6.123   5.900   1.489
 1789SOL     OW15365   7.743   3.596   4.994
 1789SOL    HW115366   7.737   3.551   4.905
 1789SOL    HW215367   7.815   3.666   4.991
 1790SOL     OW15368   0.974   1.567   7.242
 1790SOL    HW115369   1.001   1.636   7.175
 1790SOL    HW215370   1.026   1.579   7.327
 1791SOL     OW15371   4.207   6.566   0.763
 1791SOL    HW115372   4.213   6.651   0.814
 1791SOL    HW215373   4.256   6.575   0.676
 1792SOL     OW15374   1.689   2.925   4.985
 1792SOL    HW115375   1.680   2.838   4.937
 1792SOL    HW215376   1.654   2.915   5.079
 1793SOL     OW15377   7.091   4.178   4.905
 1793SOL    HW115378   7.074   4.095   4.853
 1793SOL    HW215379   7.014   4.241   4.896
 1794SOL     OW15380   5.902   0.958   4.615
 1794SOL    HW115381   5.842   0.977   4.693
 1794SOL    HW215382   5.956   0.875   4.633
 1795SOL     OW15383   2.392   7.866   1.935
 1795SOL    HW115384   2.334   7.819   2.001
 1795SOL    HW215385   2.407   7.808   1.855
 1796SOL     OW15386   1.300   5.318   1.658
 1796SOL    HW115387   1.323   5.384   1.586
 1796SOL    HW215388   1.204   5.291   1.649
 1797SOL     OW15389   2.845   1.335   7.524
 1797SOL    HW115390   2.775   1.274   7.487
 1797SOL    HW215391   2.820   1.364   7.616
 1798SOL     OW15392   1.176   1.242   7.327
 1798SOL    HW115393   1.198   1.222   7.423
 1798SOL    HW215394   1.207   1.334   7.304
 1799SOL     OW15395   1.529   5.628   1.252
 1799SOL    HW115396   1.566   5.708   1.300
 1799SOL    HW215397   1.586   5.606   1.173
 1800SOL     OW15398   7.072   1.793   5.789
 1800SOL    HW115399   7.023   1.810   5.874
 1800SOL    HW215400   7.163   1.755   5.808
 1801SOL     OW15401   6.560   6.688   0.765
 1801SOL    HW115402   6.476   6.716   0.812
 1801SOL    HW215403   6.639   6.729   0.810
 1802SOL     OW15404   4.729   7.480   5.403
 1802SOL    HW115405   4.772   7.508   5.489
 1802SOL    HW215406   4.781   7.405   5.362
 1803SOL     OW15407   1.714   4.006   0.091
 1803SOL    HW115408   1.709   4.048  -0.000
 1803SOL    HW215409   1.717   4.077   0.161
 1804SOL     OW15410   3.612   3.951   2.028
 1804SOL    HW115411   3.519   3.983   2.012
 1804SOL    HW215412   3.634   3.957   2.126
 1805SOL     OW15413   1.171   1.785   0.970
 1805SOL    HW115414   1.185   1.880   0.999
 1805SOL    HW215415   1.245   1.727   1.004
 1806SOL     OW15416   1.482   6.679   1.558
 1806SOL    HW115417   1.408   6.648   1.617
 1806SOL    HW215418   1.457   6.764   1.513
 1807SOL     OW15419   0.565   5.702   1.646
 1807SOL    HW115420   0.573   5.620   1.703
 1807SOL    HW215421   0.474   5.705   1.605
 1808SOL     OW15422   4.254   2.210   0.576
 1808SOL    HW115423   4.295   2.125   0.541
 1808SOL    HW215424   4.210   2.192   0.664
 1809SOL     OW15425   3.240   0.045   2.984
 1809SOL    HW115426   3.288   0.021   3.068
 1809SOL    HW215427   3.299   0.101   2.926
 1810SOL     OW15428   4.795   0.509   7.582
 1810SOL    HW115429   4.810   0.556   7.495
 1810SOL    HW215430   4.716   0.547   7.629
 1811SOL     OW15431   3.818   1.036   1.619
 1811SOL    HW115432   3.853   1.066   1.531
 1811SOL    HW215433   3.893   1.005   1.677
 1812SOL     OW15434   5.047   2.309   2.989
 1812SOL    HW115435   5.061   2.348   2.898
 1812SOL    HW215436   4.955   2.328   3.021
 1813SOL     OW15437   7.049   5.960   0.097
 1813SOL    HW115438   6.983   5.886   0.115
 1813SOL    HW215439   7.044   6.029   0.169
 1814SOL     OW15440   7.383   0.078   5.182
 1814SOL    HW115441   7.431   0.084   5.095
 1814SOL    HW215442   7.417  -0.000   5.235
 1815SOL     OW15443   0.878   7.471   2.363
 1815SOL    HW115444   0.830   7.385   2.345
 1815SOL    HW215445   0.825   7.548   2.326
 1816SOL     OW15446   7.199   1.871   4.411
 1816SOL    HW115447   7.118   1.893   4.356
 1816SOL    HW215448   7.188   1.905   4.504
 1817SOL     OW15449   6.228   7.257   7.543
 1817SOL    HW115450   6.166   7.181   7.521
 1817SOL    HW215451   6.320   7.236   7.509
 1818SOL     OW15452   5.874   6.374   4.644
 1818SOL    HW115453   5.908   6.295   4.593
 1818SOL    HW215454   5.911   6.372   4.737
 1819SOL     OW15455   0.087   0.005   3.179
 1819SOL    HW115456   0.004   0.062   3.180
 1819SOL    HW215457   0.125  -0.000   3.271
 1820SOL     OW15458   4.984   2.571   3.541
 1820SOL    HW115459   5.046   2.497   3.570
 1820SOL    HW215460   5.008   2.600   3.449
 1821SOL     OW15461   2.131   2.199   0.176
 1821SOL    HW115462   2.136   2.105   0.211
 1821SOL    HW215463   2.169   2.203   0.084
 1822SOL     OW15464   1.869   2.915   0.185
 1822SOL    HW115465   1.772   2.939   0.190
 1822SOL    HW215466   1.887   2.862   0.102
 1823SOL     OW15467   4.089   2.972   7.555
 1823SOL    HW115468   4.011   2.911   7.546
 1823SOL    HW215469   4.078   3.030   7.635
 1824SOL     OW15470   2.432   7.305   7.192
 1824SOL    HW115471   2.420   7.340   7.286
 1824SOL    HW215472   2.411   7.207   7.189
 1825SOL     OW15473   5.675   6.746   1.992
 1825SOL    HW115474   5.745   6.799   2.039
 1825SOL    HW215475   5.585   6.765   2.031
 1826SOL     OW15476   4.286   0.347   1.448
 1826SOL    HW115477   4.310   0.381   1.539
 1826SOL    HW215478   4.194   0.308   1.449
 1827SOL     OW15479   2.587   2.334   6.349
 1827SOL    HW115480   2.632   2.327   6.260
 1827SOL    HW215481   2.636   2.279   6.416
 1828SOL     OW15482   4.822   4.370   5.284
 1828SOL    HW115483   4.880   4.434   5.233
 1828SOL    HW215484   4.871   4.339   5.366
 1829SOL     OW15485   1.030   2.258   2.364
 1829SOL    HW115486   1.043   2.167   2.404
 1829SOL    HW215487   1.118   2.299   2.343
 1830SOL     OW15488   0.565   6.619   2.459
 1830SOL    HW115489   0.515   6.703   2.482
 1830SOL    HW215490   0.502   6.551   2.422
 1831SOL     OW15491   6.360   3.556   0.559
 1831SOL    HW115492   6.379   3.483   0.493
 1831SOL    HW215493   6.308   3.521   0.636
 1832SOL     OW15494   5.790   5.323   6.837
 1832SOL    HW115495   5.697   5.348   6.864
 1832SOL    HW215496   5.789   5.283   6.745
 1833SOL     OW15497   4.152   4.709   1.203
 1833SOL    HW115498   4.159   4.752   1.293
 1833SOL    HW215499   4.129   4.777   1.134
 1834SOL     OW15500   5.689   3.059   6.472
 1834SOL    HW115501   5.657   3.125   6.404
 1834SOL    HW215502   5.761   3.002   6.433
 1835SOL     OW15503   6.799   6.019   2.161
 1835SOL    HW115504   6.859   6.083   2.210
 1835SOL    HW215505   6.765   6.062   2.078
 1836SOL     OW15506   0.776   3.831   2.192
 1836SOL    HW115507   0.682   3.864   2.178
 1836SOL    HW215508   0.803   3.772   2.117
 1837SOL     OW15509   3.044   6.789   0.066
 1837SOL    HW115510   3.069   6.718  -0.000
 1837SOL    HW215511   3.068   6.879   0.030
 1838SOL     OW15512   6.344   1.514   7.712
 1838SOL    HW115513   6.427   1.566   7.693
 1838SOL    HW215514   6.364   1.416   7.708
 1839SOL     OW15515   2.532   4.204   6.521
 1839SOL    HW115516   2.616   4.236   6.565
 1839SOL    HW215517   2.528   4.236   6.427
 1840SOL     OW15518   0.680   7.657   0.293
 1840SOL    HW115519   0.730   7.625   0.374
 1840SOL    HW215520   0.679   7.587   0.223
 1841SOL     OW15521   0.623   1.345   0.119
 1841SOL    HW115522   0.638   1.319   0.024
 1841SOL    HW215523   0.661   1.275   0.180
 1842SOL     OW15524   2.427   4.593   0.683
 1842SOL    HW115525   2.357   4.642   0.734
 1842SOL    HW215526   2.417   4.611   0.585
 1843SOL     OW15527   6.503   2.191   0.358
 1843SOL    HW115528   6.519   2.269   0.298
 1843SOL    HW215529   6.437   2.216   0.429
 1844SOL     OW15530   3.407   5.373   7.927
 1844SOL    HW115531   3.319   5.380   7.973
 1844SOL    HW215532   3.479   5.411   7.985
 1845SOL     OW15533   6.880   2.032   7.050
 1845SOL    HW115534   6.937   2.045   7.132
 1845SOL    HW215535   6.864   2.119   7.006
 1846SOL     OW15536   0.667   0.567   6.814
 1846SOL    HW115537   0.618   0.479   6.819
 1846SOL    HW215538   0.743   0.559   6.750
 1847SOL     OW15539   5.806   1.418   1.696
 1847SOL    HW115540   5.826   1.516   1.700
 1847SOL    HW215541   5.745   1.399   1.619
 1848SOL     OW15542   4.080   1.369   3.067
 1848SOL    HW115543   4.007   1.399   3.006
 1848SOL    HW215544   4.168   1.402   3.033
 1849SOL     OW15545   6.423   5.768   2.241
 1849SOL    HW115546   6.449   5.754   2.337
 1849SOL    HW215547   6.505   5.772   2.184
 1850SOL     OW15548   3.940   3.924   6.678
 1850SOL    HW115549   3.916   3.903   6.773
 1850SOL    HW215550   3.893   3.860   6.617
 1851SOL     OW15551   1.361   2.739   4.852
 1851SOL    HW115552   1.365   2.831   4.813
 1851SOL    HW215553   1.420   2.734   4.932
 1852SOL     OW15554   3.174   6.295   1.301
 1852SOL    HW115555   3.266   6.332   1.320
 1852SOL    HW215556   3.181   6.200   1.272
 1853SOL     OW15557   6.018   4.357   3.437
 1853SOL    HW115558   5.939   4.408   3.401
 1853SOL    HW215559   6.039   4.389   3.529
 1854SOL     OW15560   0.866   6.707   7.215
 1854SOL    HW115561   0.811   6.784   7.182
 1854SOL    HW215562   0.807   6.629   7.235
 1855SOL     OW15563   0.729   0.908   3.265
 1855SOL    HW115564   0.767   0.898   3.357
 1855SOL    HW215565   0.799   0.891   3.196
 1856SOL     OW15566   3.582   7.233   7.134
 1856SOL    HW115567   3.624   7.148   7.165
 1856SOL    HW215568   3.612   7.254   7.041
 1857SOL     OW15569   3.468   4.459   7.907
 1857SOL    HW115570   3.550   4.414   7.871
 1857SOL    HW215571   3.438   4.412   7.990
 1858SOL     OW15572   3.794   1.381   7.811
 1858SOL    HW115573   3.813   1.374   7.908
 1858SOL    HW215574   3.872   1.420   7.762
 1859SOL     OW15575   5.386   6.643   3.741
 1859SOL    HW115576   5.323   6.678   3.672
 1859SOL    HW215577   5.372   6.692   3.827
 1860SOL     OW15578   3.763   0.366   3.743
 1860SOL    HW115579   3.785   0.421   3.824
 1860SOL    HW215580   3.690   0.409   3.691
 1861SOL     OW15581   1.995   2.636   2.638
 1861SOL    HW115582   1.979   2.684   2.724
 1861SOL    HW215583   2.090   2.649   2.609
 1862SOL     OW15584   2.424   5.604   5.036
 1862SOL    HW115585   2.458   5.678   4.979
 1862SOL    HW215586   2.398   5.525   4.980
 1863SOL     OW15587   2.816   2.211   7.710
 1863SOL    HW115588   2.870   2.224   7.793
 1863SOL    HW215589   2.727   2.257   7.719
 1864SOL     OW15590   6.871   4.730   7.455
 1864SOL    HW115591   6.804   4.796   7.489
 1864SOL    HW215592   6.842   4.693   7.367
 1865SOL     OW15593   0.582   2.940   1.633
 1865SOL    HW115594   0.672   2.944   1.678
 1865SOL    HW215595   0.584   2.994   1.549
 1866SOL     OW15596   6.214   6.620   1.295
 1866SOL    HW115597   6.168   6.563   1.227
 1866SOL    HW215598   6.147   6.681   1.339
 1867SOL     OW15599   5.003   6.039   5.056
 1867SOL    HW115600   5.058   6.083   4.985
 1867SOL    HW215601   5.061   5.980   5.112
 1868SOL     OW15602   1.520   4.197   1.932
 1868SOL    HW115603   1.422   4.215   1.926
 1868SOL    HW215604   1.541   4.141   2.012
 1869SOL     OW15605   1.406   2.203   3.679
 1869SOL    HW115606   1.391   2.241   3.587
 1869SOL    HW215607   1.462   2.265   3.733
 1870SOL     OW15608   6.366   1.488   6.595
 1870SOL    HW115609   6.303   1.531   6.661
 1870SOL    HW215610   6.314   1.452   6.518
 1871SOL     OW15611   4.977   3.890   0.995
 1871SOL    HW115612   4.973   3.989   1.006
 1871SOL    HW215613   4.887   3.850   1.009
 1872SOL     OW15614   3.320   6.831   3.977
 1872SOL    HW115615   3.366   6.908   4.022
 1872SOL    HW215616   3.300   6.855   3.882
 1873SOL     OW15617   6.833   4.361   6.017
 1873SOL    HW115618   6.894   4.426   6.062
 1873SOL    HW215619   6.878   4.322   5.937
 1874SOL     OW15620   5.555   6.172   1.945
 1874SOL    HW115621   5.621   6.238   1.910
 1874SOL    HW215622   5.582   6.142   2.037
 1875SOL     OW15623   0.714   0.326   2.834
 1875SOL    HW115624   0.809   0.355   2.847
 1875SOL    HW215625   0.700   0.293   2.741
 1876SOL     OW15626   1.203   6.410   2.168
 1876SOL    HW115627   1.118   6.408   2.222
 1876SOL    HW215628   1.181   6.402   2.071
 1877SOL     OW15629   4.983   3.585   1.879
 1877SOL    HW115630   4.936   3.586   1.967
 1877SOL    HW215631   5.045   3.663   1.873
 1878SOL     OW15632   7.135   2.546   1.340
 1878SOL    HW115633   7.061   2.551   1.273
 1878SOL    HW215634   7.204   2.480   1.309
 1879SOL     OW15635   5.736   2.368   2.260
 1879SOL    HW115636   5.696   2.278   2.246
 1879SOL    HW215637   5.757   2.411   2.173
 1880SOL     OW15638   1.156   2.006   3.152
 1880SOL    HW115639   1.085   2.048   3.209
 1880SOL    HW215640   1.137   2.023   3.056
 1881SOL     OW15641   3.842   6.059   3.238
 1881SOL    HW115642   3.770   5.991   3.227
 1881SOL    HW215643   3.930   6.015   3.257
 1882SOL     OW15644   5.803   1.846   6.108
 1882SOL    HW115645   5.878   1.797   6.064
 1882SOL    HW215646   5.780   1.802   6.195
 1883SOL     OW15647   5.142   2.414   1.247
 1883SOL    HW115648   5.119   2.343   1.313
 1883SOL    HW215649   5.160   2.374   1.157
 1884SOL     OW15650   6.997   6.488   4.305
 1884SOL    HW115651   6.913   6.539   4.324
 1884SOL    HW215652   7.006   6.471   4.207
 1885SOL     OW15653   5.089   5.598   1.688
 1885SOL    HW115654   5.134   5.520   1.646
 1885SOL    HW215655   5.057   5.661   1.618
 1886SOL     OW15656   3.542   6.139   2.949
 1886SOL    HW115657   3.493   6.139   2.862
 1886SOL    HW215658   3.496   6.198   3.015
 1887SOL     OW15659   6.104   1.695   0.632
 1887SOL    HW115660   6.121   1.791   0.609
 1887SOL    HW215661   6.104   1.640   0.549
 1888SOL     OW15662   0.577   6.803   1.087
 1888SOL    HW115663   0.590   6.898   1.115
 1888SOL    HW215664   0.506   6.798   1.017
 1889SOL     OW15665   0.430   6.506   7.933
 1889SOL    HW115666   0.495   6.468   7.999
 1889SOL    HW215667   0.446   6.467   7.843
 1890SOL     OW15668   2.833   3.603   5.580
 1890SOL    HW115669   2.861   3.517   5.622
 1890SOL    HW215670   2.909   3.643   5.529
 1891SOL     OW15671   0.684   4.978   0.568
 1891SOL    HW115672   0.692   4.879   0.554
 1891SOL    HW215673   0.773   5.022   0.553
 1892SOL     OW15674   1.275   2.497   3.165
 1892SOL    HW115675   1.301   2.576   3.109
 1892SOL    HW215676   1.308   2.510   3.259
 1893SOL     OW15677   6.550   6.477   4.412
 1893SOL    HW115678   6.456   6.488   4.445
 1893SOL    HW215679   6.556   6.396   4.353
 1894SOL     OW15680   6.605   2.869   5.762
 1894SOL    HW115681   6.629   2.871   5.859
 1894SOL    HW215682   6.512   2.834   5.751
 1895SOL     OW15683   6.354   4.995   1.010
 1895SOL    HW115684   6.390   4.913   1.054
 1895SOL    HW215685   6.397   5.007   0.921
 1896SOL     OW15686   5.548   3.117   1.047
 1896SOL    HW115687   5.642   3.122   1.015
 1896SOL    HW215688   5.546   3.100   1.145
 1897SOL     OW15689  -0.001   4.673   1.473
 1897SOL    HW115690   0.016   4.586   1.520
 1897SOL    HW215691   0.038   4.669   1.380
 1898SOL     OW15692   4.668   7.701   7.160
 1898SOL    HW115693   4.579   7.745   7.174
 1898SOL    HW215694   4.672   7.658   7.070
 1899SOL     OW15695   1.233   7.343   0.417
 1899SOL    HW115696   1.161   7.297   0.469
 1899SOL    HW215697   1.230   7.314   0.322
 1900SOL     OW15698   7.329   0.340   1.398
 1900SOL    HW115699   7.425   0.346   1.427
 1900SOL    HW215700   7.321   0.370   1.303
 1901SOL     OW15701   4.823   5.576   6.317
 1901SOL    HW115702   4.806   5.653   6.255
 1901SOL    HW215703   4.783   5.492   6.280
 1902SOL     OW15704   4.522   3.384   3.261
 1902SOL    HW115705   4.472   3.299   3.278
 1902SOL    HW215706   4.582   3.374   3.182
 1903SOL     OW15707   5.394   0.281   5.734
 1903SOL    HW115708   5.360   0.187   5.734
 1903SOL    HW215709   5.341   0.337   5.797
 1904SOL     OW15710   6.139   1.235   4.343
 1904SOL    HW115711   6.110   1.165   4.277
 1904SOL    HW215712   6.138   1.198   4.435
 1905SOL     OW15713   2.615   2.262   5.181
 1905SOL    HW115714   2.626   2.344   5.126
 1905SOL    HW215715   2.600   2.182   5.122
 1906SOL     OW15716   7.308   5.133   2.169
 1906SOL    HW115717   7.224   5.131   2.223
 1906SOL    HW215718   7.289   5.100   2.076
 1907SOL     OW15719   3.382   0.002   7.113
 1907SOL    HW115720   3.314   0.000   7.185
 1907SOL    HW215721   3.474   0.000   7.152
 1908SOL     OW15722   3.398   3.530   5.478
 1908SOL    HW115723   3.459   3.592   5.528
 1908SOL    HW215724   3.323   3.581   5.437
 1909SOL     OW15725   4.844   7.761   7.528
 1909SOL    HW115726   4.935   7.761   7.568
 1909SOL    HW215727   4.846   7.801   7.437
 1910SOL     OW15728   5.181   4.803   0.738
 1910SOL    HW115729   5.281   4.798   0.740
 1910SOL    HW215730   5.144   4.728   0.683
 1911SOL     OW15731   1.496   2.245   4.459
 1911SOL    HW115732   1.566   2.235   4.389
 1911SOL    HW215733   1.532   2.217   4.548
 1912SOL     OW15734   1.924   5.494   6.748
 1912SOL    HW115735   1.951   5.557   6.821
 1912SOL    HW215736   1.833   5.457   6.766
 1913SOL     OW15737   2.455   6.499   1.117
 1913SOL    HW115738   2.385   6.481   1.048
 1913SOL    HW215739   2.427   6.574   1.176
 1914SOL     OW15740   0.371   2.421   2.086
 1914SOL    HW115741   0.299   2.455   2.026
 1914SOL    HW215742   0.415   2.497   2.133
 1915SOL     OW15743   2.708   2.394   6.717
 1915SOL    HW115744   2.760   2.469   6.758
 1915SOL    HW215745   2.704   2.317   6.781
 1916SOL     OW15746   6.816   6.274   1.250
 1916SOL    HW115747   6.828   6.286   1.348
 1916SOL    HW215748   6.743   6.209   1.232
 1917SOL     OW15749   2.387   0.615   1.350
 1917SOL    HW115750   2.473   0.564   1.352
 1917SOL    HW215751   2.383   0.672   1.269
 1918SOL     OW15752   2.471   5.727   2.712
 1918SOL    HW115753   2.478   5.813   2.761
 1918SOL    HW215754   2.439   5.743   2.618
 1919SOL     OW15755   5.576   5.911   1.971
 1919SOL    HW115756   5.505   5.905   2.041
 1919SOL    HW215757   5.538   5.889   1.881
 1920SOL     OW15758   5.721   2.897   6.124
 1920SOL    HW115759   5.787   2.959   6.082
 1920SOL    HW215760   5.760   2.856   6.207
 1921SOL     OW15761   0.679   7.246   3.108
 1921SOL    HW115762   0.621   7.169   3.082
 1921SOL    HW215763   0.689   7.248   3.208
 1922SOL     OW15764   1.149   7.221   3.190
 1922SOL    HW115765   1.204   7.208   3.273
 1922SOL    HW215766   1.141   7.319   3.170
 1923SOL     OW15767   2.384   0.341   2.133
 1923SOL    HW115768   2.435   0.356   2.048
 1923SOL    HW215769   2.331   0.256   2.126
 1924SOL     OW15770   6.628   0.218   2.539
 1924SOL    HW115771   6.679   0.304   2.541
 1924SOL    HW215772   6.637   0.176   2.449
 1925SOL     OW15773   3.874   2.158   0.308
 1925SOL    HW115774   3.951   2.108   0.270
 1925SOL    HW215775   3.899   2.254   0.321
 1926SOL     OW15776   2.406   0.446   0.816
 1926SOL    HW115777   2.500   0.479   0.810
 1926SOL    HW215778   2.390   0.403   0.904
 1927SOL     OW15779   2.544   1.323   6.502
 1927SOL    HW115780   2.482   1.393   6.468
 1927SOL    HW215781   2.520   1.234   6.464
 1928SOL     OW15782   4.711   4.324   3.534
 1928SOL    HW115783   4.735   4.410   3.579
 1928SOL    HW215784   4.639   4.340   3.467
 1929SOL     OW15785   3.311   3.680   4.096
 1929SOL    HW115786   3.327   3.778   4.108
 1929SOL    HW215787   3.336   3.631   4.180
 1930SOL     OW15788   5.280   4.943   3.098
 1930SOL    HW115789   5.273   4.850   3.060
 1930SOL    HW215790   5.311   4.939   3.193
 1931SOL     OW15791   6.896   7.277   0.094
 1931SOL    HW115792   6.903   7.183   0.130
 1931SOL    HW215793   6.929   7.281   0.000
 1932SOL     OW15794   5.070   5.331   1.766
 1932SOL    HW115795   5.006   5.406   1.784
 1932SOL    HW215796   5.058   5.299   1.672
 1933SOL     OW15797   4.193   2.065   5.279
 1933SOL    HW115798   4.192   2.164   5.292
 1933SOL    HW215799   4.266   2.039   5.216
 1934SOL     OW15800   3.032   7.302   4.732
 1934SOL    HW115801   2.986   7.262   4.653
 1934SOL    HW215802   3.093   7.236   4.774
 1935SOL     OW15803   7.001   4.882   6.737
 1935SOL    HW115804   7.071   4.913   6.673
 1935SOL    HW215805   6.995   4.782   6.736
 1936SOL     OW15806   3.035   3.335   4.587
 1936SOL    HW115807   3.105   3.363   4.653
 1936SOL    HW215808   3.026   3.405   4.516
 1937SOL     OW15809   0.246   5.199   6.180
 1937SOL    HW115810   0.164   5.255   6.188
 1937SOL    HW215811   0.256   5.167   6.085
 1938SOL     OW15812   4.297   3.197   6.244
 1938SOL    HW115813   4.297   3.098   6.258
 1938SOL    HW215814   4.220   3.238   6.293
 1939SOL     OW15815   6.745   5.033   6.031
 1939SOL    HW115816   6.684   5.113   6.033
 1939SOL    HW215817   6.762   5.006   5.936
 1940SOL     OW15818   3.713   1.750   5.991
 1940SOL    HW115819   3.750   1.837   5.957
 1940SOL    HW215820   3.747   1.674   5.935
 1941SOL     OW15821   5.773   6.810   2.353
 1941SOL    HW115822   5.758   6.754   2.435
 1941SOL    HW215823   5.688   6.817   2.301
 1942SOL     OW15824   7.844   4.427   7.174
 1942SOL    HW115825   7.780   4.500   7.151
 1942SOL    HW215826   7.934   4.446   7.135
 1943SOL     OW15827   5.803   0.076   5.077
 1943SOL    HW115828   5.751   0.158   5.102
 1943SOL    HW215829   5.766   0.037   4.993
 1944SOL     OW15830   5.608   4.840   6.949
 1944SOL    HW115831   5.604   4.926   6.898
 1944SOL    HW215832   5.627   4.764   6.887
 1945SOL     OW15833   7.866   5.052   3.246
 1945SOL    HW115834   7.899   5.091   3.332
 1945SOL    HW215835   7.940   4.999   3.203
 1946SOL     OW15836   2.578   1.657   3.305
 1946SOL    HW115837   2.670   1.684   3.336
 1946SOL    HW215838   2.522   1.631   3.383
 1947SOL     OW15839   5.535   3.495   2.960
 1947SOL    HW115840   5.451   3.494   2.906
 1947SOL    HW215841   5.566   3.589   2.974
 1948SOL     OW15842   7.339   6.592   7.556
 1948SOL    HW115843   7.416   6.529   7.547
 1948SOL    HW215844   7.303   6.588   7.649
 1949SOL     OW15845   0.079   1.801   3.102
 1949SOL    HW115846  -0.000   1.837   3.151
 1949SOL    HW215847   0.053   1.776   3.009
 1950SOL     OW15848   3.502   2.437   6.786
 1950SOL    HW115849   3.577   2.392   6.835
 1950SOL    HW215850   3.514   2.426   6.687
 1951SOL     OW15851   3.093   7.134   3.836
 1951SOL    HW115852   3.174   7.139   3.895
 1951SOL    HW215853   3.027   7.069   3.875
 1952SOL     OW15854   7.680   5.316   4.746
 1952SOL    HW115855   7.743   5.289   4.819
 1952SOL    HW215856   7.617   5.385   4.780
 1953SOL     OW15857   3.307   3.701   6.877
 1953SOL    HW115858   3.333   3.766   6.949
 1953SOL    HW215859   3.255   3.748   6.806
 1954SOL     OW15860   0.995   1.325   7.426
 1954SOL    HW115861   0.949   1.386   7.490
 1954SOL    HW215862   0.990   1.362   7.333
 1955SOL     OW15863   2.990   0.736   7.763
 1955SOL    HW115864   3.014   0.649   7.720
 1955SOL    HW215865   2.923   0.721   7.835
 1956SOL     OW15866   4.577   1.297   6.195
 1956SOL    HW115867   4.489   1.285   6.240
 1956SOL    HW215868   4.564   1.325   6.100
 1957SOL     OW15869   5.688   7.896   3.117
 1957SOL    HW115870   5.782   7.930   3.116
 1957SOL    HW215871   5.667   7.855   3.206
 1958SOL     OW15872   0.376   1.875   2.026
 1958SOL    HW115873   0.377   1.921   2.114
 1958SOL    HW215874   0.370   1.942   1.952
 1959SOL     OW15875   0.275   1.262   3.784
 1959SOL    HW115876   0.269   1.360   3.804
 1959SOL    HW215877   0.184   1.221   3.785
 1960SOL     OW15878   6.551   0.471   3.200
 1960SOL    HW115879   6.539   0.569   3.181
 1960SOL    HW215880   6.539   0.419   3.116
 1961SOL     OW15881   0.548   5.348   4.208
 1961SOL    HW115882   0.452   5.323   4.196
 1961SOL    HW215883   0.607   5.277   4.169
 1962SOL     OW15884   4.698   5.362   0.802
 1962SOL    HW115885   4.677   5.334   0.895
 1962SOL    HW215886   4.614   5.385   0.753
 1963SOL     OW15887   6.571   5.243   2.542
 1963SOL    HW115888   6.517   5.318   2.580
 1963SOL    HW215889   6.522   5.202   2.465
 1964SOL     OW15890   7.204   6.700   3.088
 1964SOL    HW115891   7.278   6.695   3.021
 1964SOL    HW215892   7.220   6.635   3.162
 1965SOL     OW15893   0.887   1.922   4.796
 1965SOL    HW115894   0.929   1.834   4.819
 1965SOL    HW215895   0.814   1.944   4.860
 1966SOL     OW15896   0.638   2.694   2.229
 1966SOL    HW115897   0.722   2.713   2.280
 1966SOL    HW215898   0.652   2.715   2.132
 1967SOL     OW15899   6.592   7.608   6.686
 1967SOL    HW115900   6.556   7.523   6.725
 1967SOL    HW215901   6.564   7.617   6.591
 1968SOL     OW15902   0.343   4.001   3.009
 1968SOL    HW115903   0.257   4.049   2.995
 1968SOL    HW215904   0.417   4.067   3.022
 1969SOL     OW15905   4.288   4.235   4.949
 1969SOL    HW115906   4.378   4.229   4.994
 1969SOL    HW215907   4.242   4.319   4.975
 1970SOL     OW15908   4.092   6.005   6.134
 1970SOL    HW115909   4.139   6.050   6.058
 1970SOL    HW215910   4.157   5.949   6.186
 1971SOL     OW15911   3.702   3.147   0.975
 1971SOL    HW115912   3.736   3.225   0.922
 1971SOL    HW215913   3.652   3.084   0.916
 1972SOL     OW15914   5.421   5.887   3.130
 1972SOL    HW115915   5.391   5.887   3.225
 1972SOL    HW215916   5.486   5.961   3.114
 1973SOL     OW15917   5.496   4.863   4.003
 1973SOL    HW115918   5.496   4.917   4.087
 1973SOL    HW215919   5.490   4.924   3.923
 1974SOL     OW15920   1.916   4.174   4.921
 1974SOL    HW115921   1.923   4.088   4.870
 1974SOL    HW215922   1.983   4.174   4.996
 1975SOL     OW15923   7.121   2.558   4.932
 1975SOL    HW115924   7.109   2.467   4.891
 1975SOL    HW215925   7.078   2.561   5.022
 1976SOL     OW15926   6.301   6.906   3.356
 1976SOL    HW115927   6.247   6.951   3.284
 1976SOL    HW215928   6.382   6.864   3.316
 1977SOL     OW15929   3.033   1.781   6.049
 1977SOL    HW115930   2.995   1.852   5.989
 1977SOL    HW215931   3.132   1.793   6.056
 1978SOL     OW15932   2.247   4.813   0.649
 1978SOL    HW115933   2.324   4.824   0.585
 1978SOL    HW215934   2.167   4.778   0.600
 1979SOL     OW15935   3.574   4.432   5.843
 1979SOL    HW115936   3.516   4.504   5.805
 1979SOL    HW215937   3.646   4.408   5.777
 1980SOL     OW15938   3.114   2.291   1.445
 1980SOL    HW115939   3.197   2.336   1.411
 1980SOL    HW215940   3.102   2.312   1.542
 1981SOL     OW15941   7.184   0.563   6.761
 1981SOL    HW115942   7.092   0.566   6.722
 1981SOL    HW215943   7.182   0.592   6.857
 1982SOL     OW15944   0.409   3.334   0.074
 1982SOL    HW115945   0.339   3.343   0.144
 1982SOL    HW215946   0.401   3.408   0.007
 1983SOL     OW15947   3.285   3.330   4.407
 1983SOL    HW115948   3.268   3.349   4.504
 1983SOL    HW215949   3.248   3.404   4.351
 1984SOL     OW15950   5.063   1.349   7.580
 1984SOL    HW115951   5.078   1.295   7.497
 1984SOL    HW215952   5.074   1.446   7.560
 1985SOL     OW15953   2.398   3.792   3.089
 1985SOL    HW115954   2.490   3.778   3.051
 1985SOL    HW215955   2.402   3.792   3.189
 1986SOL     OW15956   1.562   7.983   2.247
 1986SOL    HW115957   1.559   7.906   2.182
 1986SOL    HW215958   1.657   8.000   2.275
 1987SOL     OW15959   0.432   3.122   0.193
 1987SOL    HW115960   0.474   3.034   0.169
 1987SOL    HW215961   0.425   3.130   0.293
 1988SOL     OW15962   5.635   4.422   2.399
 1988SOL    HW115963   5.644   4.330   2.359
 1988SOL    HW215964   5.687   4.488   2.345
 1989SOL     OW15965   7.569   5.532   5.034
 1989SOL    HW115966   7.478   5.541   4.994
 1989SOL    HW215967   7.565   5.554   5.132
 1990SOL     OW15968   2.742   1.863   5.767
 1990SOL    HW115969   2.705   1.935   5.709
 1990SOL    HW215970   2.745   1.894   5.862
 1991SOL     OW15971   4.295   6.400   1.958
 1991SOL    HW115972   4.386   6.358   1.955
 1991SOL    HW215973   4.269   6.418   2.053
 1992SOL     OW15974   5.498   7.312   3.582
 1992SOL    HW115975   5.484   7.260   3.498
 1992SOL    HW215976   5.490   7.410   3.564
 1993SOL     OW15977   0.154   7.403   4.555
 1993SOL    HW115978   0.250   7.412   4.579
 1993SOL    HW215979   0.144   7.346   4.473
 1994SOL     OW15980   3.388   4.809   7.463
 1994SOL    HW115981   3.484   4.826   7.486
 1994SOL    HW215982   3.364   4.861   7.381
 1995SOL     OW15983   2.510   3.278   7.872
 1995SOL    HW115984   2.487   3.355   7.932
 1995SOL    HW215985   2.602   3.246   7.891
 1996SOL     OW15986   7.871   1.077   6.220
 1996SOL    HW115987   7.864   0.978   6.233
 1996SOL    HW215988   7.814   1.106   6.144
 1997SOL     OW15989   2.878   0.236   2.297
 1997SOL    HW115990   2.933   0.295   2.238
 1997SOL    HW215991   2.936   0.197   2.369
 1998SOL     OW15992   4.144   2.860   6.129
 1998SOL    HW115993   4.095   2.875   6.043
 1998SOL    HW215994   4.154   2.947   6.177
 1999SOL     OW15995   4.623   2.480   2.410
 1999SOL    HW115996   4.705   2.477   2.353
 1999SOL    HW215997   4.543   2.496   2.353
 2000SOL     OW15998   3.532   5.188   1.076
 2000SOL    HW115999   3.455   5.156   1.133
 2000SOL    HW216000   3.618   5.172   1.124
 2001SOL     OW16001   3.624   0.907   7.718
 2001SOL    HW116002   3.708   0.857   7.735
 2001SOL    HW216003   3.568   0.859   7.651
 2002SOL     OW16004   4.424   7.602   0.086
 2002SOL    HW116005   4.396   7.506   0.090
 2002SOL    HW216006   4.524   7.608   0.090
 2003SOL     OW16007   4.714   2.234   5.167
 2003SOL    HW116008   4.690   2.325   5.133
 2003SOL    HW216009   4.762   2.242   5.254
 2004SOL     OW16010   3.053   5.084   7.347
 2004SOL    HW116011   2.974   5.140   7.375
 2004SOL    HW216012   3.032   5.036   7.262
 2005SOL     OW16013   3.071   0.774   0.536
 2005SOL    HW116014   2.984   0.792   0.581
 2005SOL    HW216015   3.057   0.749   0.440
 2006SOL     OW16016   5.087   6.664   3.950
 2006SOL    HW116017   5.105   6.675   4.048
 2006SOL    HW216018   4.989   6.656   3.933
 2007SOL     OW16019   5.166   6.886   1.823
 2007SOL    HW116020   5.240   6.941   1.863
 2007SOL    HW216021   5.144   6.920   1.731
 2008SOL     OW16022   1.196   5.197   6.655
 2008SOL    HW116023   1.210   5.107   6.696
 2008SOL    HW216024   1.151   5.258   6.721
 2009SOL     OW16025   3.105   6.820   6.664
 2009SOL    HW116026   3.152   6.733   6.649
 2009SOL    HW216027   3.122   6.852   6.757
 2010SOL     OW16028   7.169   0.942   5.210
 2010SOL    HW116029   7.160   1.033   5.252
 2010SOL    HW216030   7.125   0.941   5.121
 2011SOL     OW16031   3.567   6.159   0.623
 2011SOL    HW116032   3.593   6.240   0.674
 2011SOL    HW216033   3.484   6.177   0.570
 2012SOL     OW16034   0.971   7.160   7.609
 2012SOL    HW116035   0.950   7.089   7.676
 2012SOL    HW216036   0.979   7.121   7.518
 2013SOL     OW16037   1.212   7.685   2.172
 2013SOL    HW116038   1.297   7.722   2.209
 2013SOL    HW216039   1.167   7.753   2.115
 2014SOL     OW16040   1.742   2.014   2.899
 2014SOL    HW116041   1.795   2.018   2.814
 2014SOL    HW216042   1.772   1.937   2.955
 2015SOL     OW16043   1.731   7.548   7.128
 2015SOL    HW116044   1.777   7.543   7.216
 2015SOL    HW216045   1.750   7.465   7.074
 2016SOL     OW16046   2.494   6.873   3.694
 2016SOL    HW116047   2.483   6.809   3.770
 2016SOL    HW216048   2.461   6.831   3.610
 2017SOL     OW16049   1.925   2.429   3.523
 2017SOL    HW116050   1.854   2.358   3.515
 2017SOL    HW216051   1.882   2.517   3.540
 2018SOL     OW16052   0.382   4.252   7.791
 2018SOL    HW116053   0.453   4.236   7.860
 2018SOL    HW216054   0.292   4.245   7.832
 2019SOL     OW16055   4.062   4.364   1.886
 2019SOL    HW116056   4.121   4.285   1.900
 2019SOL    HW216057   4.062   4.422   1.967
 2020SOL     OW16058   6.183   3.946   6.242
 2020SOL    HW116059   6.211   4.042   6.247
 2020SOL    HW216060   6.237   3.891   6.306
 2021SOL     OW16061   6.626   7.103   0.092
 2021SOL    HW116062   6.616   7.010   0.058
 2021SOL    HW216063   6.589   7.110   0.184
 2022SOL     OW16064   0.499   0.728   7.623
 2022SOL    HW116065   0.490   0.632   7.649
 2022SOL    HW216066   0.561   0.737   7.545
 2023SOL     OW16067   6.097   3.452   1.926
 2023SOL    HW116068   6.162   3.523   1.954
 2023SOL    HW216069   6.068   3.467   1.832
 2024SOL     OW16070   7.692   0.772   2.097
 2024SOL    HW116071   7.630   0.709   2.143
 2024SOL    HW216072   7.709   0.741   2.003
 2025SOL     OW16073   0.336   7.431   6.383
 2025SOL    HW116074   0.347   7.479   6.470
 2025SOL    HW216075   0.402   7.467   6.317
 2026SOL     OW16076   3.337   5.611   0.378
 2026SOL    HW116077   3.400   5.687   0.393
 2026SOL    HW216078   3.373   5.528   0.422
 2027SOL     OW16079   7.723   4.487   5.823
 2027SOL    HW116080   7.698   4.540   5.741
 2027SOL    HW216081   7.676   4.524   5.903
 2028SOL     OW16082   7.822   5.488   1.434
 2028SOL    HW116083   7.807   5.389   1.437
 2028SOL    HW216084   7.852   5.522   1.523
 2029SOL     OW16085   7.987   3.020   5.491
 2029SOL    HW116086   8.000   3.119   5.495
 2029SOL    HW216087   7.928   2.990   5.566
 2030SOL     OW16088   6.344   6.724   7.906
 2030SOL    HW116089   6.295   6.772   7.978
 2030SOL    HW216090   6.285   6.710   7.827
 2031SOL     OW16091   1.611   1.443   6.733
 2031SOL    HW116092   1.675   1.423   6.808
 2031SOL    HW216093   1.662   1.456   6.648
 2032SOL     OW16094   1.833   0.146   3.032
 2032SOL    HW116095   1.764   0.204   3.076
 2032SOL    HW216096   1.823   0.151   2.932
 2033SOL     OW16097   1.698   3.375   7.806
 2033SOL    HW116098   1.618   3.326   7.841
 2033SOL    HW216099   1.713   3.353   7.710
 2034SOL     OW16100   6.765   3.883   5.848
 2034SOL    HW116101   6.806   3.970   5.820
 2034SOL    HW216102   6.782   3.867   5.945
 2035SOL     OW16103   6.109   6.609   5.668
 2035SOL    HW116104   6.053   6.539   5.714
 2035SOL    HW216105   6.206   6.587   5.678
 2036SOL     OW16106   0.204   4.157   3.795
 2036SOL    HW116107   0.129   4.177   3.732
 2036SOL    HW216108   0.200   4.219   3.873
 2037SOL     OW16109   4.236   1.811   5.445
 2037SOL    HW116110   4.170   1.750   5.401
 2037SOL    HW216111   4.302   1.845   5.378
 2038SOL     OW16112   5.961   6.764   0.018
 2038SOL    HW116113   5.890   6.696  -0.000
 2038SOL    HW216114   5.952   6.799   0.112
 2039SOL     OW16115   6.562   3.155   2.244
 2039SOL    HW116116   6.480   3.100   2.230
 2039SOL    HW216117   6.545   3.250   2.219
 2040SOL     OW16118   0.004   2.077   4.399
 2040SOL    HW116119   0.090   2.026   4.409
 2040SOL    HW216120  -0.000   2.121   4.309
 2041SOL     OW16121   6.107   5.587   5.788
 2041SOL    HW116122   6.011   5.574   5.761
 2041SOL    HW216123   6.111   5.618   5.883
 2042SOL     OW16124   7.037   6.925   1.060
 2042SOL    HW116125   6.947   6.939   1.102
 2042SOL    HW216126   7.027   6.884   0.970
 2043SOL     OW16127   2.804   0.767   1.300
 2043SOL    HW116128   2.803   0.861   1.334
 2043SOL    HW216129   2.761   0.763   1.210
 2044SOL     OW16130   7.806   1.112   5.765
 2044SOL    HW116131   7.835   1.029   5.716
 2044SOL    HW216132   7.766   1.087   5.853
 2045SOL     OW16133   1.595   5.139   7.913
 2045SOL    HW116134   1.686   5.097   7.901
 2045SOL    HW216135   1.604   5.237   7.925
 2046SOL     OW16136   0.482   4.912   3.138
 2046SOL    HW116137   0.553   4.931   3.069
 2046SOL    HW216138   0.422   4.991   3.146
 2047SOL     OW16139   3.513   2.498   2.325
 2047SOL    HW116140   3.553   2.539   2.408
 2047SOL    HW216141   3.507   2.567   2.253
 2048SOL     OW16142   2.594   0.105   0.660
 2048SOL    HW116143   2.613   0.048   0.739
 2048SOL    HW216144   2.679   0.147   0.627
 2049SOL     OW16145   7.637   2.309   8.001
 2049SOL    HW116146   7.600   2.255   7.925
 2049SOL    HW216147   7.667   2.398   7.967
 2050SOL     OW16148   5.886   6.861   0.356
 2050SOL    HW116149   5.888   6.925   0.279
 2050SOL    HW216150   5.927   6.774   0.329
 2051SOL     OW16151   7.517   5.077   0.912
 2051SOL    HW116152   7.465   5.163   0.907
 2051SOL    HW216153   7.487   5.023   0.990
 2052SOL     OW16154   0.078   6.986   2.977
 2052SOL    HW116155   0.045   7.070   3.020
 2052SOL    HW216156  -0.000   6.931   2.946
 2053SOL     OW16157   7.065   0.192   6.449
 2053SOL    HW116158   7.141   0.255   6.438
 2053SOL    HW216159   7.066   0.152   6.541
 2054SOL     OW16160   0.594   6.504   2.694
 2054SOL    HW116161   0.692   6.512   2.682
 2054SOL    HW216162   0.550   6.592   2.677
 2055SOL     OW16163   5.764   4.947   7.151
 2055SOL    HW116164   5.706   5.026   7.129
 2055SOL    HW216165   5.786   4.898   7.067
 2056SOL     OW16166   0.831   3.334   2.648
 2056SOL    HW116167   0.901   3.387   2.697
 2056SOL    HW216168   0.839   3.349   2.550
 2057SOL     OW16169   7.252   7.490   1.811
 2057SOL    HW116170   7.321   7.559   1.834
 2057SOL    HW216171   7.296   7.402   1.793
 2058SOL     OW16172   0.592   4.101   2.003
 2058SOL    HW116173   0.663   4.168   2.026
 2058SOL    HW216174   0.570   4.108   1.906
 2059SOL     OW16175   4.825   5.000   5.251
 2059SOL    HW116176   4.845   5.088   5.294
 2059SOL    HW216177   4.783   5.014   5.162
 2060SOL     OW16178   5.186   5.549   7.773
 2060SOL    HW116179   5.264   5.608   7.752
 2060SOL    HW216180   5.143   5.577   7.858
 2061SOL     OW16181   7.862   0.153   4.861
 2061SOL    HW116182   7.774   0.119   4.828
 2061SOL    HW216183   7.910   0.200   4.787
 2062SOL     OW16184   6.030   5.933   5.153
 2062SOL    HW116185   6.077   5.897   5.072
 2062SOL    HW216186   5.977   5.861   5.196
 2063SOL     OW16187   1.300   3.022   3.615
 2063SOL    HW116188   1.269   2.945   3.559
 2063SOL    HW216189   1.378   3.068   3.571
 2064SOL     OW16190   4.798   5.575   3.395
 2064SOL    HW116191   4.841   5.492   3.431
 2064SOL    HW216192   4.730   5.552   3.326
 2065SOL     OW16193   3.314   5.824   4.509
 2065SOL    HW116194   3.368   5.755   4.559
 2065SOL    HW216195   3.218   5.797   4.508
 2066SOL     OW16196   3.062   6.215   6.790
 2066SOL    HW116197   3.107   6.174   6.711
 2066SOL    HW216198   3.030   6.307   6.768
 2067SOL     OW16199   7.890   2.624   3.097
 2067SOL    HW116200   7.799   2.588   3.119
 2067SOL    HW216201   7.889   2.667   3.007
 2068SOL     OW16202   7.507   4.635   6.807
 2068SOL    HW116203   7.464   4.565   6.865
 2068SOL    HW216204   7.517   4.720   6.859
 2069SOL     OW16205   2.354   6.186   0.303
 2069SOL    HW116206   2.374   6.207   0.207
 2069SOL    HW216207   2.257   6.201   0.322
 2070SOL     OW16208   0.919   2.519   2.501
 2070SOL    HW116209   0.933   2.440   2.441
 2070SOL    HW216210   0.914   2.602   2.446
 2071SOL     OW16211   3.178   6.813   4.717
 2071SOL    HW116212   3.122   6.858   4.648
 2071SOL    HW216213   3.267   6.788   4.678
 2072SOL     OW16214   0.772   2.571   7.605
 2072SOL    HW116215   0.739   2.636   7.537
 2072SOL    HW216216   0.853   2.608   7.650
 2073SOL     OW16217   1.763   4.325   5.475
 2073SOL    HW116218   1.805   4.266   5.544
 2073SOL    HW216219   1.809   4.313   5.387
 2074SOL     OW16220   2.484   5.848   2.401
 2074SOL    HW116221   2.397   5.894   2.380
 2074SOL    HW216222   2.507   5.784   2.328
 2075SOL     OW16223   7.723   1.998   0.902
 2075SOL    HW116224   7.713   2.068   0.973
 2075SOL    HW216225   7.820   1.983   0.882
 2076SOL     OW16226   2.653   6.897   0.766
 2076SOL    HW116227   2.628   6.866   0.674
 2076SOL    HW216228   2.594   6.853   0.834
 2077SOL     OW16229   6.445   4.487   1.528
 2077SOL    HW116230   6.456   4.549   1.606
 2077SOL    HW216231   6.376   4.418   1.549
 2078SOL     OW16232   0.204   2.799   0.514
 2078SOL    HW116233   0.144   2.805   0.434
 2078SOL    HW216234   0.298   2.783   0.485
 2079SOL     OW16235   6.811   6.312   3.294
 2079SOL    HW116236   6.839   6.295   3.388
 2079SOL    HW216237   6.883   6.362   3.245
 2080SOL     OW16238   2.046   1.462   6.911
 2080SOL    HW116239   2.050   1.476   7.010
 2080SOL    HW216240   1.956   1.426   6.885
 2081SOL     OW16241   1.725   3.588   0.960
 2081SOL    HW116242   1.775   3.510   0.998
 2081SOL    HW216243   1.757   3.608   0.868
 2082SOL     OW16244   5.409   3.888   5.504
 2082SOL    HW116245   5.328   3.843   5.543
 2082SOL    HW216246   5.381   3.954   5.434
 2083SOL     OW16247   2.058   7.372   7.031
 2083SOL    HW116248   2.048   7.471   7.029
 2083SOL    HW216249   2.024   7.332   6.946
 2084SOL     OW16250   7.872   7.863   1.666
 2084SOL    HW116251   7.810   7.792   1.701
 2084SOL    HW216252   7.839   7.899   1.580
 2085SOL     OW16253   4.747   6.176   5.223
 2085SOL    HW116254   4.747   6.214   5.316
 2085SOL    HW216255   4.675   6.219   5.168
 2086SOL     OW16256   7.588   6.942   7.181
 2086SOL    HW116257   7.615   7.036   7.203
 2086SOL    HW216258   7.642   6.878   7.235
 2087SOL     OW16259   4.171   4.575   3.259
 2087SOL    HW116260   4.084   4.539   3.293
 2087SOL    HW216261   4.193   4.533   3.171
 2088SOL     OW16262   4.513   5.701   6.706
 2088SOL    HW116263   4.441   5.644   6.668
 2088SOL    HW216264   4.503   5.709   6.805
 2089SOL     OW16265   7.527   7.112   3.818
 2089SOL    HW116266   7.457   7.092   3.749
 2089SOL    HW216267   7.550   7.029   3.868
 2090SOL     OW16268   4.512   0.840   5.131
 2090SOL    HW116269   4.472   0.877   5.215
 2090SOL    HW216270   4.464   0.876   5.051
 2091SOL     OW16271   3.489   2.594   5.364
 2091SOL    HW116272   3.563   2.631   5.308
 2091SOL    HW216273   3.520   2.514   5.414
 2092SOL     OW16274   5.157   6.281   1.224
 2092SOL    HW116275   5.255   6.284   1.203
 2092SOL    HW216276   5.134   6.348   1.294
 2093SOL     OW16277   4.985   2.657   7.756
 2093SOL    HW116278   4.970   2.755   7.747
 2093SOL    HW216279   5.064   2.629   7.701
 2094SOL     OW16280   2.718   7.135   3.903
 2094SOL    HW116281   2.647   7.201   3.875
 2094SOL    HW216282   2.722   7.129   4.003
 2095SOL     OW16283   4.843   5.159   3.053
 2095SOL    HW116284   4.866   5.068   3.018
 2095SOL    HW216285   4.788   5.151   3.136
 2096SOL     OW16286   6.982   5.601   4.161
 2096SOL    HW116287   6.907   5.556   4.210
 2096SOL    HW216288   7.038   5.653   4.225
 2097SOL     OW16289   5.534   7.373   2.378
 2097SOL    HW116290   5.439   7.347   2.393
 2097SOL    HW216291   5.539   7.454   2.319
 2098SOL     OW16292   0.915   3.251   4.812
 2098SOL    HW116293   0.865   3.239   4.726
 2098SOL    HW216294   1.006   3.208   4.805
 2099SOL     OW16295   5.296   3.028   6.037
 2099SOL    HW116296   5.351   3.107   6.067
 2099SOL    HW216297   5.233   3.001   6.110
 2100SOL     OW16298   0.828   2.816   6.175
 2100SOL    HW116299   0.731   2.838   6.162
 2100SOL    HW216300   0.839   2.717   6.185
 2101SOL     OW16301   6.239   2.604   3.959
 2101SOL    HW116302   6.222   2.527   3.897
 2101SOL    HW216303   6.159   2.664   3.961
 2102SOL     OW16304   0.965   3.173   1.898
 2102SOL    HW116305   0.928   3.103   1.961
 2102SOL    HW216306   0.984   3.257   1.949
 2103SOL     OW16307   1.407   1.099   2.253
 2103SOL    HW116308   1.484   1.139   2.202
 2103SOL    HW216309   1.438   1.067   2.342
 2104SOL     OW16310   6.090   6.416   3.750
 2104SOL    HW116311   6.095   6.508   3.711
 2104SOL    HW216312   6.124   6.417   3.844
 2105SOL     OW16313   3.463   3.569   7.672
 2105SOL    HW116314   3.512   3.590   7.756
 2105SOL    HW216315   3.388   3.504   7.690
 2106SOL     OW16316   7.099   2.689   6.456
 2106SOL    HW116317   7.166   2.615   6.463
 2106SOL    HW216318   7.049   2.682   6.370
 2107SOL     OW16319   5.320   5.964   5.213
 2107SOL    HW116320   5.374   5.993   5.134
 2107SOL    HW216321   5.253   5.895   5.185
 2108SOL     OW16322   3.921   5.900   0.887
 2108SOL    HW116323   3.845   5.956   0.922
 2108SOL    HW216324   3.925   5.906   0.787
 2109SOL     OW16325   4.018   1.779   3.063
 2109SOL    HW116326   3.960   1.756   3.142
 2109SOL    HW216327   3.998   1.717   2.987
 2110SOL     OW16328   3.879   5.011   2.286
 2110SOL    HW116329   3.868   5.108   2.310
 2110SOL    HW216330   3.964   4.998   2.236
 2111SOL     OW16331   4.921   5.565   4.924
 2111SOL    HW116332   4.938   5.644   4.865
 2111SOL    HW216333   4.825   5.537   4.917
 2112SOL     OW16334   3.354   5.477   4.250
 2112SOL    HW116335   3.349   5.393   4.306
 2112SOL    HW216336   3.291   5.470   4.173
 2113SOL     OW16337   7.418   2.977   7.552
 2113SOL    HW116338   7.323   2.947   7.564
 2113SOL    HW216339   7.465   2.914   7.491
 2114SOL     OW16340   2.558   4.360   1.702
 2114SOL    HW116341   2.614   4.413   1.638
 2114SOL    HW216342   2.470   4.338   1.660
 2115SOL     OW16343   0.103   4.169   6.368
 2115SOL    HW116344   0.194   4.209   6.379
 2115SOL    HW216345   0.033   4.241   6.373
 2116SOL     OW16346   2.904   3.034   1.981
 2116SOL    HW116347   2.874   3.129   1.988
 2116SOL    HW216348   2.908   2.993   2.073
 2117SOL     OW16349   7.116   4.814   2.813
 2117SOL    HW116350   7.036   4.757   2.826
 2117SOL    HW216351   7.127   4.876   2.890
 2118SOL     OW16352   7.010   2.658   7.908
 2118SOL    HW116353   7.028   2.560   7.908
 2118SOL    HW216354   6.938   2.680   7.974
 2119SOL     OW16355   3.968   4.978   1.725
 2119SOL    HW116356   3.901   4.951   1.795
 2119SOL    HW216357   3.968   4.911   1.651
 2120SOL     OW16358   2.503   0.124   2.023
 2120SOL    HW116359   2.569   0.116   2.098
 2120SOL    HW216360   2.449   0.040   2.015
 2121SOL     OW16361   1.624   6.150   4.857
 2121SOL    HW116362   1.579   6.239   4.867
 2121SOL    HW216363   1.604   6.111   4.768
 2122SOL     OW16364   7.705   3.191   4.307
 2122SOL    HW116365   7.757   3.249   4.370
 2122SOL    HW216366   7.624   3.240   4.275
 2123SOL     OW16367   7.431   3.362   0.340
 2123SOL    HW116368   7.517   3.311   0.340
 2123SOL    HW216369   7.414   3.399   0.431
 2124SOL     OW16370   0.417   3.683   7.243
 2124SOL    HW116371   0.396   3.602   7.299
 2124SOL    HW216372   0.416   3.659   7.146
 2125SOL     OW16373   4.936   0.543   6.479
 2125SOL    HW116374   4.954   0.622   6.420
 2125SOL    HW216375   4.965   0.563   6.572
 2126SOL     OW16376   6.041   4.598   7.496
 2126SOL    HW116377   6.140   4.609   7.504
 2126SOL    HW216378   6.009   4.529   7.560
 2127SOL     OW16379   3.313   1.114   3.093
 2127SOL    HW116380   3.345   1.121   3.188
 2127SOL    HW216381   3.216   1.137   3.088
 2128SOL     OW16382   0.578   0.708   5.594
 2128SOL    HW116383   0.664   0.678   5.552
 2128SOL    HW216384   0.570   0.669   5.686
 2129SOL     OW16385   4.106   4.330   0.631
 2129SOL    HW116386   4.151   4.343   0.719
 2129SOL    HW216387   4.152   4.258   0.579
 2130SOL     OW16388   2.389   3.691   7.417
 2130SOL    HW116389   2.471   3.638   7.397
 2130SOL    HW216390   2.307   3.635   7.405
 2131SOL     OW16391   0.838   5.020   4.599
 2131SOL    HW116392   0.891   4.936   4.611
 2131SOL    HW216393   0.861   5.085   4.672
 2132SOL     OW16394   2.979   3.233   6.247
 2132SOL    HW116395   3.044   3.259   6.319
 2132SOL    HW216396   2.954   3.137   6.258
 2133SOL     OW16397   3.103   3.836   3.321
 2133SOL    HW116398   3.100   3.936   3.327
 2133SOL    HW216399   3.087   3.796   3.411
 2134SOL     OW16400   4.912   1.197   5.806
 2134SOL    HW116401   4.882   1.102   5.797
 2134SOL    HW216402   4.867   1.239   5.885
 2135SOL     OW16403   0.945   5.792   1.394
 2135SOL    HW116404   0.876   5.825   1.329
 2135SOL    HW216405   0.911   5.801   1.487
 2136SOL     OW16406   1.016   6.868   5.654
 2136SOL    HW116407   0.977   6.902   5.568
 2136SOL    HW216408   0.973   6.913   5.732
 2137SOL     OW16409   2.448   3.655   1.655
 2137SOL    HW116410   2.423   3.664   1.752
 2137SOL    HW216411   2.460   3.559   1.631
 2138SOL     OW16412   3.166   5.113   4.041
 2138SOL    HW116413   3.240   5.088   3.978
 2138SOL    HW216414   3.205   5.161   4.120
 2139SOL     OW16415   7.029   7.030   6.120
 2139SOL    HW116416   7.028   7.115   6.173
 2139SOL    HW216417   7.121   7.014   6.084
 2140SOL     OW16418   0.658   1.169   6.304
 2140SOL    HW116419   0.618   1.189   6.394
 2140SOL    HW216420   0.637   1.243   6.240
 2141SOL     OW16421   4.733   1.897   1.893
 2141SOL    HW116422   4.689   1.981   1.925
 2141SOL    HW216423   4.785   1.855   1.967
 2142SOL     OW16424   1.143   4.601   6.367
 2142SOL    HW116425   1.195   4.684   6.389
 2142SOL    HW216426   1.045   4.623   6.365
 2143SOL     OW16427   6.475   0.105   1.132
 2143SOL    HW116428   6.385   0.060   1.125
 2143SOL    HW216429   6.465   0.195   1.173
 2144SOL     OW16430   3.292   7.966   4.918
 2144SOL    HW116431   3.385   7.980   4.954
 2144SOL    HW216432   3.287   8.000   4.824
 2145SOL     OW16433   4.184   1.182   2.717
 2145SOL    HW116434   4.192   1.121   2.637
 2145SOL    HW216435   4.236   1.145   2.793
 2146SOL     OW16436   2.396   1.286   6.177
 2146SOL    HW116437   2.484   1.317   6.141
 2146SOL    HW216438   2.407   1.250   6.269
 2147SOL     OW16439   3.050   0.331   0.952
 2147SOL    HW116440   3.014   0.422   0.931
 2147SOL    HW216441   3.020   0.303   1.044
 2148SOL     OW16442   0.416   7.354   4.115
 2148SOL    HW116443   0.395   7.274   4.059
 2148SOL    HW216444   0.360   7.353   4.198
 2149SOL     OW16445   7.056   4.141   0.635
 2149SOL    HW116446   7.126   4.191   0.583
 2149SOL    HW216447   6.966   4.158   0.596
 2150SOL     OW16448   2.547   4.995   5.806
 2150SOL    HW116449   2.592   5.028   5.889
 2150SOL    HW216450   2.528   5.072   5.744
 2151SOL     OW16451   7.662   2.364   7.624
 2151SOL    HW116452   7.746   2.365   7.569
 2151SOL    HW216453   7.679   2.318   7.711
 2152SOL     OW16454   3.320   5.028   5.393
 2152SOL    HW116455   3.339   5.102   5.327
 2152SOL    HW216456   3.379   5.038   5.473
 2153SOL     OW16457   1.289   6.946   2.563
 2153SOL    HW116458   1.319   6.876   2.627
 2153SOL    HW216459   1.225   7.009   2.608
 2154SOL     OW16460   5.383   7.327   0.646
 2154SOL    HW116461   5.399   7.231   0.668
 2154SOL    HW216462   5.423   7.349   0.557
 2155SOL     OW16463   2.241   5.602   6.696
 2155SOL    HW116464   2.241   5.552   6.609
 2155SOL    HW216465   2.152   5.595   6.741
 2156SOL     OW16466   5.338   0.503   4.798
 2156SOL    HW116467   5.387   0.567   4.858
 2156SOL    HW216468   5.253   0.474   4.842
 2157SOL     OW16469   7.446   6.418   5.377
 2157SOL    HW116470   7.472   6.502   5.425
 2157SOL    HW216471   7.371   6.436   5.313
 2158SOL     OW16472   2.268   6.104   7.889
 2158SOL    HW116473   2.339   6.133   7.824
 2158SOL    HW216474   2.306   6.095   7.980
 2159SOL     OW16475   5.959   4.473   4.698
 2159SOL    HW116476   5.963   4.375   4.675
 2159SOL    HW216477   5.943   4.526   4.615
 2160SOL     OW16478   0.989   6.790   4.811
 2160SOL    HW116479   1.089   6.795   4.816
 2160SOL    HW216480   0.955   6.858   4.747
 2161SOL     OW16481   0.771   6.214   5.116
 2161SOL    HW116482   0.777   6.159   5.199
 2161SOL    HW216483   0.676   6.222   5.087
 2162SOL     OW16484   7.301   0.028   1.702
 2162SOL    HW116485   7.225   0.075   1.657
 2162SOL    HW216486   7.306   0.057   1.798
 2163SOL     OW16487   5.085   6.236   0.831
 2163SOL    HW116488   5.123   6.254   0.922
 2163SOL    HW216489   5.156   6.203   0.769
 2164SOL     OW16490   2.697   4.529   5.015
 2164SOL    HW116491   2.685   4.544   5.113
 2164SOL    HW216492   2.736   4.610   4.972
 2165SOL     OW16493   6.588   6.381   1.403
 2165SOL    HW116494   6.594   6.285   1.374
 2165SOL    HW216495   6.665   6.433   1.366
 2166SOL     OW16496   5.301   3.079   4.491
 2166SOL    HW116497   5.297   2.995   4.436
 2166SOL    HW216498   5.396   3.105   4.507
 2167SOL     OW16499   0.440   0.778   0.257
 2167SOL    HW116500   0.387   0.722   0.321
 2167SOL    HW216501   0.411   0.873   0.262
 2168SOL     OW16502   0.629   4.390   0.172
 2168SOL    HW116503   0.584   4.390   0.261
 2168SOL    HW216504   0.601   4.311   0.118
 2169SOL     OW16505   4.884   2.698   4.628
 2169SOL    HW116506   4.812   2.639   4.665
 2169SOL    HW216507   4.908   2.669   4.535
 2170SOL     OW16508   4.024   2.091   1.743
 2170SOL    HW116509   4.090   2.167   1.741
 2170SOL    HW216510   4.015   2.056   1.837
 2171SOL     OW16511   6.369   5.616   2.691
 2171SOL    HW116512   6.273   5.587   2.694
 2171SOL    HW216513   6.378   5.697   2.633
 2172SOL     OW16514   3.836   5.640   0.690
 2172SOL    HW116515   3.856   5.620   0.786
 2172SOL    HW216516   3.840   5.738   0.674
 2173SOL     OW16517   1.454   7.328   2.775
 2173SOL    HW116518   1.548   7.312   2.743
 2173SOL    HW216519   1.407   7.241   2.787
 2174SOL     OW16520   7.777  -0.000   2.492
 2174SOL    HW116521   7.868   0.029   2.522
 2174SOL    HW216522   7.737   0.070   2.434
 2175SOL     OW16523   1.705   0.963   1.232
 2175SOL    HW116524   1.787   0.974   1.289
 2175SOL    HW216525   1.628   0.932   1.289
 2176SOL     OW16526   0.257   3.547   2.758
 2176SOL    HW116527   0.208   3.628   2.725
 2176SOL    HW216528   0.265   3.551   2.858
 2177SOL     OW16529   5.395   4.389   0.524
 2177SOL    HW116530   5.445   4.361   0.606
 2177SOL    HW216531   5.329   4.319   0.498
 2178SOL     OW16532   0.646   4.617   3.265
 2178SOL    HW116533   0.658   4.536   3.206
 2178SOL    HW216534   0.591   4.593   3.345
 2179SOL     OW16535   0.437   2.467   1.121
 2179SOL    HW116536   0.353   2.442   1.171
 2179SOL    HW216537   0.432   2.433   1.027
 2180SOL     OW16538   1.804   7.599   1.329
 2180SOL    HW116539   1.806   7.503   1.357
 2180SOL    HW216540   1.890   7.623   1.284
 2181SOL     OW16541   6.329   5.614   3.711
 2181SOL    HW116542   6.359   5.710   3.709
 2181SOL    HW216543   6.246   5.604   3.656
 2182SOL     OW16544   0.263   0.310   0.984
 2182SOL    HW116545   0.323   0.235   1.012
 2182SOL    HW216546   0.313   0.375   0.928
 2183SOL     OW16547   5.005   6.411   1.874
 2183SOL    HW116548   5.068   6.478   1.914
 2183SOL    HW216549   4.959   6.450   1.794
 2184SOL     OW16550   7.166   6.655   2.339
 2184SOL    HW116551   7.132   6.740   2.379
 2184SOL    HW216552   7.155   6.657   2.239
 2185SOL     OW16553   1.653   5.571   5.061
 2185SOL    HW116554   1.604   5.483   5.061
 2185SOL    HW216555   1.627   5.626   4.982
 2186SOL     OW16556   2.442   3.974   2.762
 2186SOL    HW116557   2.454   4.057   2.816
 2186SOL    HW216558   2.406   3.996   2.672
 2187SOL     OW16559   1.133   7.448   0.836
 2187SOL    HW116560   1.047   7.417   0.794
 2187SOL    HW216561   1.132   7.429   0.934
 2188SOL     OW16562   3.337   1.225   7.273
 2188SOL    HW116563   3.404   1.176   7.329
 2188SOL    HW216564   3.368   1.229   7.178
 2189SOL     OW16565   2.164   3.931   7.351
 2189SOL    HW116566   2.221   3.939   7.268
 2189SOL    HW216567   2.163   4.018   7.400
 2190SOL     OW16568   6.859   4.629   3.314
 2190SOL    HW116569   6.782   4.665   3.261
 2190SOL    HW216570   6.828   4.559   3.377
 2191SOL     OW16571   0.949   5.958   3.015
 2191SOL    HW116572   0.910   5.868   3.035
 2191SOL    HW216573   1.045   5.949   2.989
 2192SOL     OW16574   6.127   4.880   1.972
 2192SOL    HW116575   6.182   4.828   2.038
 2192SOL    HW216576   6.033   4.845   1.971
 2193SOL     OW16577   7.224   4.897   7.052
 2193SOL    HW116578   7.234   4.967   6.981
 2193SOL    HW216579   7.269   4.926   7.136
 2194SOL     OW16580   4.451   5.073   7.462
 2194SOL    HW116581   4.547   5.048   7.455
 2194SOL    HW216582   4.440   5.150   7.525
 2195SOL     OW16583   3.544   1.085   4.724
 2195SOL    HW116584   3.633   1.101   4.766
 2195SOL    HW216585   3.495   1.172   4.713
 2196SOL     OW16586   4.201   6.870   7.272
 2196SOL    HW116587   4.242   6.782   7.298
 2196SOL    HW216588   4.237   6.899   7.183
 2197SOL     OW16589   1.024   5.100   4.196
 2197SOL    HW116590   0.939   5.143   4.227
 2197SOL    HW216591   1.019   5.082   4.098
 2198SOL     OW16592   4.399   0.460   0.718
 2198SOL    HW116593   4.463   0.413   0.656
 2198SOL    HW216594   4.415   0.430   0.812
 2199SOL     OW16595   2.391   7.962   7.884
 2199SOL    HW116596   2.393   7.872   7.842
 2199SOL    HW216597   2.358   7.956   7.978
 2200SOL     OW16598   1.493   1.604   6.061
 2200SOL    HW116599   1.566   1.673   6.060
 2200SOL    HW216600   1.415   1.636   6.007
 2201SOL     OW16601   4.445   5.446   1.497
 2201SOL    HW116602   4.481   5.461   1.589
 2201SOL    HW216603   4.345   5.451   1.498
 2202SOL     OW16604   1.981   6.550   6.394
 2202SOL    HW116605   1.886   6.532   6.367
 2202SOL    HW216606   1.983   6.596   6.482
 2203SOL     OW16607   1.158   4.303   5.240
 2203SOL    HW116608   1.169   4.206   5.219
 2203SOL    HW216609   1.069   4.318   5.284
 2204SOL     OW16610   5.264   3.790   7.231
 2204SOL    HW116611   5.176   3.763   7.191
 2204SOL    HW216612   5.337   3.779   7.164
 2205SOL     OW16613   1.058   4.764   6.963
 2205SOL    HW116614   0.998   4.794   6.888
 2205SOL    HW216615   1.007   4.764   7.049
 2206SOL     OW16616   3.135   7.180   2.822
 2206SOL    HW116617   3.114   7.214   2.914
 2206SOL    HW216618   3.230   7.200   2.799
 2207SOL     OW16619   7.761   6.214   5.789
 2207SOL    HW116620   7.680   6.170   5.752
 2207SOL    HW216621   7.743   6.250   5.881
 2208SOL     OW16622   1.626   7.887   4.210
 2208SOL    HW116623   1.662   7.803   4.252
 2208SOL    HW216624   1.702   7.948   4.187
 2209SOL     OW16625   0.306   7.649   4.086
 2209SOL    HW116626   0.300   7.713   4.163
 2209SOL    HW216627   0.335   7.560   4.118
 2210SOL     OW16628   5.469   6.905   6.687
 2210SOL    HW116629   5.419   6.955   6.616
 2210SOL    HW216630   5.429   6.925   6.776
 2211SOL     OW16631   2.788   0.253   7.413
 2211SOL    HW116632   2.877   0.251   7.366
 2211SOL    HW216633   2.794   0.206   7.500
 2212SOL     OW16634   1.828   5.956   3.212
 2212SOL    HW116635   1.805   5.923   3.304
 2212SOL    HW216636   1.766   5.918   3.145
 2213SOL     OW16637   6.202   4.314   2.099
 2213SOL    HW116638   6.262   4.316   2.179
 2213SOL    HW216639   6.121   4.370   2.117
 2214SOL     OW16640   7.740   0.685   6.555
 2214SOL    HW116641   7.819   0.678   6.616
 2214SOL    HW216642   7.721   0.597   6.513
 2215SOL     OW16643   0.237   6.318   4.238
 2215SOL    HW116644   0.303   6.256   4.194
 2215SOL    HW216645   0.286   6.397   4.275
 2216SOL     OW16646   7.533   7.930   4.126
 2216SOL    HW116647   7.470   8.000   4.160
 2216SOL    HW216648   7.482   7.852   4.091
 2217SOL     OW16649   6.170   6.142   3.977
 2217SOL    HW116650   6.228   6.062   3.967
 2217SOL    HW216651   6.207   6.219   3.925
 2218SOL     OW16652   3.802   2.232   3.941
 2218SOL    HW116653   3.714   2.190   3.966
 2218SOL    HW216654   3.852   2.171   3.879
 2219SOL     OW16655   6.313   2.253   5.824
 2219SOL    HW116656   6.345   2.348   5.835
 2219SOL    HW216657   6.335   2.221   5.732
 2220SOL     OW16658   3.102   4.218   1.396
 2220SOL    HW116659   3.070   4.313   1.403
 2220SOL    HW216660   3.175   4.212   1.328
 2221SOL     OW16661   4.629   6.059   1.987
 2221SOL    HW116662   4.612   6.051   2.086
 2221SOL    HW216663   4.584   6.141   1.952
 2222SOL     OW16664   1.498   4.551   5.674
 2222SOL    HW116665   1.412   4.527   5.720
 2222SOL    HW216666   1.499   4.513   5.582
 2223SOL     OW16667   2.500   3.317   0.883
 2223SOL    HW116668   2.548   3.230   0.892
 2223SOL    HW216669   2.497   3.364   0.972
 2224SOL     OW16670   5.459   1.240   6.484
 2224SOL    HW116671   5.515   1.174   6.434
 2224SOL    HW216672   5.452   1.213   6.580
 2225SOL     OW16673   0.709   5.415   1.943
 2225SOL    HW116674   0.783   5.355   1.911
 2225SOL    HW216675   0.678   5.386   2.033
 2226SOL     OW16676   4.426   3.184   0.134
 2226SOL    HW116677   4.339   3.148   0.098
 2226SOL    HW216678   4.499   3.171   0.067
 2227SOL     OW16679   5.146   1.660   6.333
 2227SOL    HW116680   5.135   1.758   6.350
 2227SOL    HW216681   5.061   1.612   6.354
 2228SOL     OW16682   2.655   4.629   6.925
 2228SOL    HW116683   2.579   4.694   6.935
 2228SOL    HW216684   2.723   4.644   6.997
 2229SOL     OW16685   1.535   7.961   0.969
 2229SOL    HW116686   1.457   7.945   0.908
 2229SOL    HW216687   1.503   7.998   1.056
 2230SOL     OW16688   4.791   3.702   5.929
 2230SOL    HW116689   4.764   3.767   5.858
 2230SOL    HW216690   4.714   3.683   5.990
 2231SOL     OW16691   5.733   5.452   6.615
 2231SOL    HW116692   5.635   5.441   6.628
 2231SOL    HW216693   5.763   5.402   6.534
 2232SOL     OW16694   0.784   3.865   2.504
 2232SOL    HW116695   0.858   3.799   2.515
 2232SOL    HW216696   0.699   3.818   2.481
 2233SOL     OW16697   5.469   1.606   3.282
 2233SOL    HW116698   5.562   1.617   3.246
 2233SOL    HW216699   5.472   1.583   3.379
 2234SOL     OW16700   7.503   4.649   2.171
 2234SOL    HW116701   7.529   4.726   2.229
 2234SOL    HW216702   7.546   4.658   2.081
 2235SOL     OW16703   6.075   2.315   3.031
 2235SOL    HW116704   6.168   2.334   3.063
 2235SOL    HW216705   6.064   2.349   2.938
 2236SOL     OW16706   5.336   6.991   0.775
 2236SOL    HW116707   5.348   6.899   0.813
 2236SOL    HW216708   5.378   6.996   0.684
 2237SOL     OW16709   1.026   5.765   3.707
 2237SOL    HW116710   0.973   5.849   3.691
 2237SOL    HW216711   1.026   5.709   3.624
 2238SOL     OW16712   5.396   3.330   4.627
 2238SOL    HW116713   5.427   3.425   4.625
 2238SOL    HW216714   5.327   3.316   4.556
 2239SOL     OW16715   2.033   1.805   4.405
 2239SOL    HW116716   2.092   1.793   4.486
 2239SOL    HW216717   2.080   1.770   4.324
 2240SOL     OW16718   4.527   4.202   6.452
 2240SOL    HW116719   4.526   4.139   6.529
 2240SOL    HW216720   4.530   4.151   6.366
 2241SOL     OW16721   4.068   4.334   7.667
 2241SOL    HW116722   4.124   4.272   7.612
 2241SOL    HW216723   3.971   4.308   7.660
 2242SOL     OW16724   7.345   0.216   7.089
 2242SOL    HW116725   7.300   0.212   6.999
 2242SOL    HW216726   7.421   0.151   7.092
 2243SOL     OW16727   3.966   0.301   5.128
 2243SOL    HW116728   3.974   0.398   5.106
 2243SOL    HW216729   3.920   0.252   5.054
 2244SOL     OW16730   0.720   7.588   5.216
 2244SOL    HW116731   0.629   7.573   5.256
 2244SOL    HW216732   0.727   7.542   5.128
 2245SOL     OW16733   0.746   7.454   0.803
 2245SOL    HW116734   0.768   7.363   0.767
 2245SOL    HW216735   0.795   7.523   0.751
 2246SOL     OW16736   3.850   5.127   5.238
 2246SOL    HW116737   3.785   5.078   5.297
 2246SOL    HW216738   3.838   5.097   5.143
 2247SOL     OW16739   5.448   1.028   0.216
 2247SOL    HW116740   5.377   1.070   0.159
 2247SOL    HW216741   5.523   0.994   0.159
 2248SOL     OW16742   3.917   6.523   1.053
 2248SOL    HW116743   3.832   6.476   1.030
 2248SOL    HW216744   3.910   6.562   1.145
 2249SOL     OW16745   0.547   2.767   3.319
 2249SOL    HW116746   0.589   2.687   3.361
 2249SOL    HW216747   0.587   2.783   3.228
 2250SOL     OW16748   3.552   0.155   1.970
 2250SOL    HW116749   3.606   0.096   1.910
 2250SOL    HW216750   3.457   0.157   1.939
 2251SOL     OW16751   0.528   2.949   4.433
 2251SOL    HW116752   0.547   3.041   4.468
 2251SOL    HW216753   0.613   2.896   4.430
 2252SOL     OW16754   4.235   2.764   3.625
 2252SOL    HW116755   4.180   2.760   3.542
 2252SOL    HW216756   4.280   2.853   3.632
 2253SOL     OW16757   3.525   4.820   5.665
 2253SOL    HW116758   3.499   4.837   5.761
 2253SOL    HW216759   3.476   4.741   5.630
 2254SOL     OW16760   6.367   1.196   6.308
 2254SOL    HW116761   6.435   1.269   6.320
 2254SOL    HW216762   6.323   1.205   6.219
 2255SOL     OW16763   6.794   6.755   1.890
 2255SOL    HW116764   6.808   6.808   1.975
 2255SOL    HW216765   6.791   6.817   1.812
 2256SOL     OW16766   0.812   6.239   2.929
 2256SOL    HW116767   0.851   6.154   2.964
 2256SOL    HW216768   0.730   6.220   2.874
 2257SOL     OW16769   0.885   1.198   2.141
 2257SOL    HW116770   0.966   1.193   2.199
 2257SOL    HW216771   0.910   1.231   2.050
 2258SOL     OW16772   5.163   5.340   6.519
 2258SOL    HW116773   5.116   5.422   6.554
 2258SOL    HW216774   5.129   5.318   6.428
 2259SOL     OW16775   0.740   1.474   3.248
 2259SOL    HW116776   0.705   1.518   3.331
 2259SOL    HW216777   0.664   1.443   3.191
 2260SOL     OW16778   5.753   3.708   7.520
 2260SOL    HW116779   5.808   3.727   7.602
 2260SOL    HW216780   5.681   3.776   7.510
 2261SOL     OW16781   0.789   6.626   6.939
 2261SOL    HW116782   0.888   6.635   6.944
 2261SOL    HW216783   0.753   6.587   7.024
 2262SOL     OW16784   2.578   6.611   6.742
 2262SOL    HW116785   2.519   6.569   6.674
 2262SOL    HW216786   2.530   6.619   6.829
 2263SOL     OW16787   1.952   3.712   6.675
 2263SOL    HW116788   1.872   3.667   6.714
 2263SOL    HW216789   1.978   3.791   6.732
 2264SOL     OW16790   0.305   0.093   6.236
 2264SOL    HW116791   0.218   0.142   6.229
 2264SOL    HW216792   0.353   0.120   6.319
 2265SOL     OW16793   5.637   7.221   3.329
 2265SOL    HW116794   5.691   7.305   3.318
 2265SOL    HW216795   5.696   7.141   3.325
 2266SOL     OW16796   1.259   1.926   2.848
 2266SOL    HW116797   1.221   1.855   2.789
 2266SOL    HW216798   1.354   1.944   2.823
 2267SOL     OW16799   4.744   0.676   5.721
 2267SOL    HW116800   4.693   0.689   5.636
 2267SOL    HW216801   4.685   0.631   5.788
 2268SOL     OW16802   5.628   5.727   1.275
 2268SOL    HW116803   5.678   5.766   1.352
 2268SOL    HW216804   5.647   5.629   1.268
 2269SOL     OW16805   5.291   1.608   0.207
 2269SOL    HW116806   5.271   1.539   0.277
 2269SOL    HW216807   5.381   1.590   0.167
 2270SOL     OW16808   6.382   2.984   6.534
 2270SOL    HW116809   6.407   2.894   6.496
 2270SOL    HW216810   6.329   3.035   6.467
 2271SOL     OW16811   6.288   7.970   1.418
 2271SOL    HW116812   6.360   7.913   1.458
 2271SOL    HW216813   6.260   7.933   1.330
 2272SOL     OW16814   5.265   4.287   2.808
 2272SOL    HW116815   5.359   4.296   2.774
 2272SOL    HW216816   5.248   4.194   2.840
 2273SOL     OW16817   2.986   3.555   5.270
 2273SOL    HW116818   2.964   3.512   5.182
 2273SOL    HW216819   2.912   3.539   5.335
 2274SOL     OW16820   2.265   0.361   0.337
 2274SOL    HW116821   2.343   0.350   0.399
 2274SOL    HW216822   2.265   0.288   0.269
 2275SOL     OW16823   4.378   4.215   0.052
 2275SOL    HW116824   4.376   4.130  -0.000
 2275SOL    HW216825   4.338   4.201   0.143
 2276SOL     OW16826   2.938   5.862   5.823
 2276SOL    HW116827   2.891   5.889   5.739
 2276SOL    HW216828   3.023   5.915   5.832
 2277SOL     OW16829   5.228   6.669   6.072
 2277SOL    HW116830   5.248   6.697   5.978
 2277SOL    HW216831   5.148   6.720   6.106
 2278SOL     OW16832   5.461   5.042   5.553
 2278SOL    HW116833   5.439   4.946   5.572
 2278SOL    HW216834   5.391   5.101   5.592
 2279SOL     OW16835   2.608   5.132   7.523
 2279SOL    HW116836   2.635   5.143   7.427
 2279SOL    HW216837   2.619   5.218   7.571
 2280SOL     OW16838   6.020   6.179   7.903
 2280SOL    HW116839   5.932   6.204   7.862
 2280SOL    HW216840   6.085   6.155   7.831
 2281SOL     OW16841   4.332   1.606   2.079
 2281SOL    HW116842   4.276   1.677   2.124
 2281SOL    HW216843   4.296   1.587   1.988
 2282SOL     OW16844   4.252   2.667   5.589
 2282SOL    HW116845   4.264   2.615   5.504
 2282SOL    HW216846   4.176   2.731   5.578
 2283SOL     OW16847   6.611   6.648   5.819
 2283SOL    HW116848   6.539   6.657   5.889
 2283SOL    HW216849   6.597   6.715   5.747
 2284SOL     OW16850   7.904   2.128   2.793
 2284SOL    HW116851   7.853   2.178   2.722
 2284SOL    HW216852   8.000   2.156   2.791
 2285SOL     OW16853   4.217   4.992   4.783
 2285SOL    HW116854   4.288   4.971   4.715
 2285SOL    HW216855   4.144   4.924   4.778
 2286SOL     OW16856   4.893   6.938   6.762
 2286SOL    HW116857   4.925   7.033   6.757
 2286SOL    HW216858   4.920   6.897   6.848
 2287SOL     OW16859   3.520   6.624   4.427
 2287SOL    HW116860   3.425   6.630   4.395
 2287SOL    HW216861   3.530   6.674   4.513
 2288SOL     OW16862   0.350   3.664   5.514
 2288SOL    HW116863   0.281   3.593   5.505
 2288SOL    HW216864   0.357   3.693   5.610
 2289SOL     OW16865   0.612   5.808   4.324
 2289SOL    HW116866   0.676   5.743   4.367
 2289SOL    HW216867   0.534   5.823   4.384
 2290SOL     OW16868   0.258   4.788   4.696
 2290SOL    HW116869   0.290   4.703   4.655
 2290SOL    HW216870   0.220   4.771   4.787
 2291SOL     OW16871   1.390   7.288   7.887
 2291SOL    HW116872   1.456   7.357   7.857
 2291SOL    HW216873   1.413   7.256   7.979
 2292SOL     OW16874   6.187   0.873   2.545
 2292SOL    HW116875   6.168   0.964   2.583
 2292SOL    HW216876   6.126   0.855   2.468
 2293SOL     OW16877   2.546   5.067   5.121
 2293SOL    HW116878   2.459   5.062   5.169
 2293SOL    HW216879   2.551   4.995   5.051
 2294SOL     OW16880   5.762   6.127   7.371
 2294SOL    HW116881   5.833   6.177   7.421
 2294SOL    HW216882   5.804   6.077   7.295
 2295SOL     OW16883   4.478   6.515   0.555
 2295SOL    HW116884   4.418   6.448   0.598
 2295SOL    HW216885   4.506   6.583   0.623
 2296SOL     OW16886   0.333   3.839   0.204
 2296SOL    HW116887   0.233   3.838   0.207
 2296SOL    HW216888   0.370   3.778   0.274
 2297SOL     OW16889   1.570   7.502   4.135
 2297SOL    HW116890   1.610   7.577   4.186
 2297SOL    HW216891   1.624   7.484   4.052
 2298SOL     OW16892   7.997   6.873   3.788
 2298SOL    HW116893   7.955   6.784   3.773
 2298SOL    HW216894   7.967   6.911   3.875
 2299SOL     OW16895   1.818   7.391   5.368
 2299SOL    HW116896   1.791   7.330   5.443
 2299SOL    HW216897   1.855   7.476   5.405
 2300SOL     OW16898   4.737   7.266   2.195
 2300SOL    HW116899   4.729   7.317   2.281
 2300SOL    HW216900   4.649   7.264   2.148
 2301SOL     OW16901   6.132   7.945   4.290
 2301SOL    HW116902   6.040   7.956   4.328
 2301SOL    HW216903   6.128   7.896   4.203
 2302SOL     OW16904   1.551   6.495   6.273
 2302SOL    HW116905   1.636   6.462   6.233
 2302SOL    HW216906   1.496   6.419   6.307
 2303SOL     OW16907   6.640   4.972   6.323
 2303SOL    HW116908   6.694   4.938   6.400
 2303SOL    HW216909   6.699   5.022   6.259
 2304SOL     OW16910   0.048   1.187   3.354
 2304SOL    HW116911  -0.000   1.259   3.405
 2304SOL    HW216912   0.031   1.197   3.256
 2305SOL     OW16913   2.081   6.063   1.781
 2305SOL    HW116914   2.172   6.057   1.822
 2305SOL    HW216915   2.065   6.155   1.747
 2306SOL     OW16916   4.499   6.488   0.911
 2306SOL    HW116917   4.523   6.585   0.924
 2306SOL    HW216918   4.455   6.476   0.822
 2307SOL     OW16919   5.451   6.493   6.800
 2307SOL    HW116920   5.522   6.493   6.871
 2307SOL    HW216921   5.479   6.552   6.724
 2308SOL     OW16922   5.344   1.795   2.020
 2308SOL    HW116923   5.382   1.719   2.074
 2308SOL    HW216924   5.388   1.798   1.931
 2309SOL     OW16925   3.177   3.058   1.167
 2309SOL    HW116926   3.140   2.983   1.223
 2309SOL    HW216927   3.126   3.065   1.081
 2310SOL     OW16928   6.971   3.576   0.538
 2310SOL    HW116929   7.014   3.648   0.593
 2310SOL    HW216930   6.906   3.616   0.474
 2311SOL     OW16931   2.141   3.702   3.734
 2311SOL    HW116932   2.057   3.692   3.680
 2311SOL    HW216933   2.160   3.799   3.751
 2312SOL     OW16934   4.310   1.538   1.462
 2312SOL    HW116935   4.253   1.513   1.540
 2312SOL    HW216936   4.266   1.509   1.377
 2313SOL     OW16937   5.672   3.343   3.044
 2313SOL    HW116938   5.642   3.303   2.958
 2313SOL    HW216939   5.720   3.275   3.099
 2314SOL     OW16940   3.930   5.862   3.751
 2314SOL    HW116941   3.955   5.845   3.847
 2314SOL    HW216942   3.995   5.925   3.709
 2315SOL     OW16943   0.469   1.033   1.474
 2315SOL    HW116944   0.486   0.990   1.386
 2315SOL    HW216945   0.517   0.984   1.546
 2316SOL     OW16946   7.669   6.757   2.200
 2316SOL    HW116947   7.747   6.694   2.206
 2316SOL    HW216948   7.624   6.747   2.111
 2317SOL     OW16949   4.823   6.078   6.355
 2317SOL    HW116950   4.726   6.101   6.344
 2317SOL    HW216951   4.874   6.110   6.276
 2318SOL     OW16952   0.349   1.264   5.955
 2318SOL    HW116953   0.423   1.196   5.954
 2318SOL    HW216954   0.305   1.265   6.045
 2319SOL     OW16955   1.062   2.011   6.238
 2319SOL    HW116956   1.074   2.105   6.205
 2319SOL    HW216957   1.117   1.996   6.320
 2320SOL     OW16958   0.145   4.602   2.078
 2320SOL    HW116959   0.169   4.630   2.171
 2320SOL    HW216960   0.146   4.682   2.017
 2321SOL     OW16961   4.126   0.436   7.375
 2321SOL    HW116962   4.057   0.386   7.427
 2321SOL    HW216963   4.167   0.376   7.306
 2322SOL     OW16964   6.428   0.370   1.558
 2322SOL    HW116965   6.396   0.404   1.646
 2322SOL    HW216966   6.477   0.442   1.509
 2323SOL     OW16967   1.048   7.818   3.015
 2323SOL    HW116968   1.133   7.796   2.966
 2323SOL    HW216969   1.059   7.798   3.112
 2324SOL     OW16970   4.114   0.094   7.901
 2324SOL    HW116971   4.148   0.074   7.993
 2324SOL    HW216972   4.115   0.010   7.846
 2325SOL     OW16973   5.052   4.621   6.390
 2325SOL    HW116974   4.991   4.676   6.446
 2325SOL    HW216975   5.002   4.578   6.315
 2326SOL     OW16976   1.298   6.237   6.433
 2326SOL    HW116977   1.258   6.212   6.521
 2326SOL    HW216978   1.359   6.315   6.445
 2327SOL     OW16979   2.715   7.286   2.808
 2327SOL    HW116980   2.713   7.360   2.876
 2327SOL    HW216981   2.623   7.266   2.776
 2328SOL     OW16982   6.522   6.002   2.984
 2328SOL    HW116983   6.466   5.965   3.059
 2328SOL    HW216984   6.583   6.072   3.020
 2329SOL     OW16985   6.716   3.102   7.743
 2329SOL    HW116986   6.656   3.028   7.773
 2329SOL    HW216987   6.680   3.144   7.660
 2330SOL     OW16988   1.398   4.386   4.484
 2330SOL    HW116989   1.389   4.479   4.450
 2330SOL    HW216990   1.416   4.324   4.407
 2331SOL     OW16991   3.509   5.843   6.715
 2331SOL    HW116992   3.586   5.817   6.773
 2331SOL    HW216993   3.436   5.882   6.771
 2332SOL     OW16994   4.247   6.519   4.750
 2332SOL    HW116995   4.251   6.420   4.765
 2332SOL    HW216996   4.216   6.564   4.834
 2333SOL     OW16997   1.145   0.781   2.795
 2333SOL    HW116998   1.123   0.684   2.797
 2333SOL    HW216999   1.111   0.826   2.877
 2334SOL     OW17000   2.531   7.912   4.213
 2334SOL    HW117001   2.528   7.877   4.119
 2334SOL    HW217002   2.602   7.982   4.220
 2335SOL     OW17003   6.065   7.508   7.179
 2335SOL    HW117004   6.006   7.509   7.260
 2335SOL    HW217005   6.013   7.536   7.098
 2336SOL     OW17006   4.523   2.203   5.273
 2336SOL    HW117007   4.483   2.141   5.206
 2336SOL    HW217008   4.580   2.151   5.338
 2337SOL     OW17009   5.045   1.453   2.259
 2337SOL    HW117010   4.977   1.433   2.188
 2337SOL    HW217011   4.999   1.464   2.348
 2338SOL     OW17012   5.971   7.090   0.973
 2338SOL    HW117013   5.895   7.034   0.941
 2338SOL    HW217014   6.058   7.049   0.947
 2339SOL     OW17015   2.556   0.502   2.411
 2339SOL    HW117016   2.468   0.456   2.415
 2339SOL    HW217017   2.557   0.580   2.474
 2340SOL     OW17018   7.576   7.629   2.698
 2340SOL    HW117019   7.584   7.529   2.701
 2340SOL    HW217020   7.592   7.667   2.790
 2341SOL     OW17021   1.535   4.650   6.678
 2341SOL    HW117022   1.596   4.645   6.757
 2341SOL    HW217023   1.567   4.589   6.606
 2342SOL     OW17024   6.189   3.204   2.901
 2342SOL    HW117025   6.111   3.152   2.864
 2342SOL    HW217026   6.155   3.281   2.955
 2343SOL     OW17027   1.474   0.118   6.858
 2343SOL    HW117028   1.431   0.041   6.906
 2343SOL    HW217029   1.473   0.101   6.759
 2344SOL     OW17030   5.238   6.481   0.892
 2344SOL    HW117031   5.317   6.445   0.842
 2344SOL    HW217032   5.242   6.453   0.988
 2345SOL     OW17033   6.017   3.467   5.850
 2345SOL    HW117034   5.971   3.443   5.765
 2345SOL    HW217035   6.092   3.530   5.831
 2346SOL     OW17036   6.381   0.568   2.313
 2346SOL    HW117037   6.322   0.557   2.234
 2346SOL    HW217038   6.348   0.645   2.369
 2347SOL     OW17039   4.452   3.842   1.934
 2347SOL    HW117040   4.469   3.911   2.004
 2347SOL    HW217041   4.357   3.845   1.906
 2348SOL     OW17042   6.730   6.089   6.992
 2348SOL    HW117043   6.718   6.170   6.934
 2348SOL    HW217044   6.641   6.048   7.011
 2349SOL     OW17045   1.229   6.676   6.490
 2349SOL    HW117046   1.216   6.761   6.540
 2349SOL    HW217047   1.326   6.655   6.481
 2350SOL     OW17048   2.858   7.756   1.545
 2350SOL    HW117049   2.832   7.803   1.461
 2350SOL    HW217050   2.784   7.696   1.575
 2351SOL     OW17051   4.665   1.987   3.564
 2351SOL    HW117052   4.659   1.887   3.571
 2351SOL    HW217053   4.643   2.029   3.652
 2352SOL     OW17054   6.677   2.958   6.087
 2352SOL    HW117055   6.674   3.053   6.056
 2352SOL    HW217056   6.719   2.954   6.178
 2353SOL     OW17057   7.858   2.650   6.806
 2353SOL    HW117058   7.874   2.733   6.753
 2353SOL    HW217059   7.893   2.662   6.899
 2354SOL     OW17060   1.565   6.863   4.005
 2354SOL    HW117061   1.517   6.806   3.939
 2354SOL    HW217062   1.523   6.854   4.095
 2355SOL     OW17063   6.798   3.571   5.302
 2355SOL    HW117064   6.780   3.639   5.374
 2355SOL    HW217065   6.766   3.481   5.332
 2356SOL     OW17066   7.936   3.385   0.889
 2356SOL    HW117067   8.000   3.460   0.904
 2356SOL    HW217068   7.970   3.325   0.816
 2357SOL     OW17069   7.052   7.977   2.945
 2357SOL    HW117070   6.967   7.955   2.897
 2357SOL    HW217071   7.124   8.000   2.879
 2358SOL     OW17072   4.949   6.815   1.417
 2358SOL    HW117073   4.988   6.752   1.485
 2358SOL    HW217074   5.015   6.831   1.343
 2359SOL     OW17075   4.103   2.126   5.838
 2359SOL    HW117076   4.095   2.187   5.916
 2359SOL    HW217077   4.184   2.068   5.848
 2360SOL     OW17078   1.303   5.978   4.540
 2360SOL    HW117079   1.332   5.938   4.627
 2360SOL    HW217080   1.378   6.028   4.498
 2361SOL     OW17081   7.023   2.260   7.071
 2361SOL    HW117082   7.108   2.209   7.083
 2361SOL    HW217083   7.015   2.291   6.977
 2362SOL     OW17084   3.291   7.371   7.955
 2362SOL    HW117085   3.380   7.363   8.001
 2362SOL    HW217086   3.304   7.378   7.856
 2363SOL     OW17087   4.027   2.443   6.215
 2363SOL    HW117088   4.087   2.365   6.238
 2363SOL    HW217089   4.063   2.492   6.136
 2364SOL     OW17090   1.475   6.676   6.749
 2364SOL    HW117091   1.521   6.756   6.709
 2364SOL    HW217092   1.507   6.663   6.843
 2365SOL     OW17093   0.207   2.405   6.801
 2365SOL    HW117094   0.133   2.392   6.866
 2365SOL    HW217095   0.239   2.500   6.805
 2366SOL     OW17096   4.021   5.067   6.843
 2366SOL    HW117097   3.948   5.080   6.911
 2366SOL    HW217098   4.104   5.035   6.888
 2367SOL     OW17099   5.216   5.955   7.427
 2367SOL    HW117100   5.293   5.902   7.464
 2367SOL    HW217101   5.238   5.986   7.335
 2368SOL     OW17102   6.019   1.291   2.428
 2368SOL    HW117103   6.049   1.380   2.464
 2368SOL    HW217104   6.098   1.240   2.395
 2369SOL     OW17105   1.745   0.045   5.938
 2369SOL    HW117106   1.834  -0.000   5.927
 2369SOL    HW217107   1.693   0.000   6.009
 2370SOL     OW17108   6.529   1.930   5.159
 2370SOL    HW117109   6.558   1.943   5.065
 2370SOL    HW217110   6.430   1.921   5.164
 2371SOL     OW17111   2.408   3.023   1.565
 2371SOL    HW117112   2.350   3.098   1.599
 2371SOL    HW217113   2.355   2.965   1.502
 2372SOL     OW17114   3.193   0.231   7.178
 2372SOL    HW117115   3.234   0.202   7.265
 2372SOL    HW217116   3.243   0.191   7.102
 2373SOL     OW17117   7.202   6.364   2.400
 2373SOL    HW117118   7.211   6.275   2.445
 2373SOL    HW217119   7.145   6.355   2.319
 2374SOL     OW17120   3.831   1.757   2.692
 2374SOL    HW117121   3.833   1.760   2.592
 2374SOL    HW217122   3.907   1.809   2.730
 2375SOL     OW17123   3.987   5.785   1.799
 2375SOL    HW117124   3.985   5.878   1.761
 2375SOL    HW217125   4.082   5.756   1.812
 2376SOL     OW17126   5.089   2.541   3.092
 2376SOL    HW117127   5.130   2.544   3.183
 2376SOL    HW217128   4.990   2.531   3.099
 2377SOL     OW17129   0.769   2.984   3.409
 2377SOL    HW117130   0.784   2.923   3.487
 2377SOL    HW217131   0.672   2.982   3.382
 2378SOL     OW17132   5.284   3.886   5.971
 2378SOL    HW117133   5.299   3.972   5.922
 2378SOL    HW217134   5.205   3.895   6.032
 2379SOL     OW17135   0.818   2.390   0.356
 2379SOL    HW117136   0.862   2.312   0.311
 2379SOL    HW217137   0.857   2.404   0.446
 2380SOL     OW17138   2.257   7.123   0.945
 2380SOL    HW117139   2.209   7.048   0.898
 2380SOL    HW217140   2.216   7.139   1.035
 2381SOL     OW17141   1.196   4.082   6.209
 2381SOL    HW117142   1.120   4.022   6.183
 2381SOL    HW217143   1.194   4.166   6.155
 2382SOL     OW17144   7.096   2.824   7.490
 2382SOL    HW117145   7.092   2.901   7.554
 2382SOL    HW217146   7.035   2.841   7.412
 2383SOL     OW17147   4.851   4.989   1.264
 2383SOL    HW117148   4.933   4.946   1.303
 2383SOL    HW217149   4.868   5.086   1.246
 2384SOL     OW17150   5.162   7.806   7.396
 2384SOL    HW117151   5.143   7.708   7.408
 2384SOL    HW217152   5.139   7.856   7.479
 2385SOL     OW17153   1.041   2.974   0.796
 2385SOL    HW117154   1.060   2.925   0.711
 2385SOL    HW217155   1.041   2.910   0.873
 2386SOL     OW17156   6.979   6.670   1.980
 2386SOL    HW117157   7.063   6.660   1.925
 2386SOL    HW217158   6.997   6.643   2.074
 2387SOL     OW17159   3.833   3.006   0.128
 2387SOL    HW117160   3.742   3.035   0.099
 2387SOL    HW217161   3.898   3.019   0.054
 2388SOL     OW17162   7.882   2.214   3.269
 2388SOL    HW117163   7.955   2.272   3.305
 2388SOL    HW217164   7.874   2.131   3.324
 2389SOL     OW17165   0.063   5.768   1.112
 2389SOL    HW117166   0.000   5.796   1.040
 2389SOL    HW217167   0.157   5.771   1.079
 2390SOL     OW17168   3.964   4.368   6.703
 2390SOL    HW117169   4.051   4.326   6.725
 2390SOL    HW217170   3.909   4.379   6.786
 2391SOL     OW17171   7.004   2.152   3.584
 2391SOL    HW117172   6.957   2.089   3.646
 2391SOL    HW217173   7.071   2.207   3.634
 2392SOL     OW17174   5.904   0.854   6.427
 2392SOL    HW117175   5.969   0.929   6.440
 2392SOL    HW217176   5.910   0.790   6.504
 2393SOL     OW17177   1.701   5.123   6.885
 2393SOL    HW117178   1.685   5.066   6.966
 2393SOL    HW217179   1.727   5.065   6.808
 2394SOL     OW17180   2.305   1.865   5.519
 2394SOL    HW117181   2.355   1.929   5.578
 2394SOL    HW217182   2.239   1.914   5.462
 2395SOL     OW17183   7.490   0.412   6.643
 2395SOL    HW117184   7.501   0.325   6.692
 2395SOL    HW217185   7.574   0.466   6.650
 2396SOL     OW17186   7.439   7.280   3.021
 2396SOL    HW117187   7.371   7.346   2.991
 2396SOL    HW217188   7.505   7.263   2.948
 2397SOL     OW17189   5.803   7.049   4.155
 2397SOL    HW117190   5.786   6.955   4.182
 2397SOL    HW217191   5.898   7.059   4.124
 2398SOL     OW17192   7.469   6.897   1.902
 2398SOL    HW117193   7.491   6.881   1.998
 2398SOL    HW217194   7.370   6.895   1.889
 2399SOL     OW17195   7.368   4.872   2.264
 2399SOL    HW117196   7.338   4.960   2.301
 2399SOL    HW217197   7.331   4.859   2.172
 2400SOL     OW17198   1.171   7.005   5.568
 2400SOL    HW117199   1.247   7.062   5.600
 2400SOL    HW217200   1.147   7.030   5.474
 2401SOL     OW17201   6.946   4.224   7.103
 2401SOL    HW117202   6.975   4.266   7.190
 2401SOL    HW217203   7.010   4.151   7.078
 2402SOL     OW17204   6.610   4.991   3.230
 2402SOL    HW117205   6.619   4.891   3.233
 2402SOL    HW217206   6.627   5.025   3.138
 2403SOL     OW17207   6.974   3.797   3.872
 2403SOL    HW117208   6.923   3.859   3.813
 2403SOL    HW217209   7.005   3.846   3.954
 2404SOL     OW17210   1.166   4.663   3.342
 2404SOL    HW117211   1.153   4.681   3.439
 2404SOL    HW217212   1.179   4.748   3.292
 2405SOL     OW17213   6.744   2.162   3.473
 2405SOL    HW117214   6.748   2.158   3.573
 2405SOL    HW217215   6.781   2.079   3.433
 2406SOL     OW17216   2.523   0.057   1.131
 2406SOL    HW117217   2.545  -0.000   1.051
 2406SOL    HW217218   2.484   0.000   1.204
 2407SOL     OW17219   6.359   3.460   7.905
 2407SOL    HW117220   6.399   3.550   7.923
 2407SOL    HW217221   6.318   3.458   7.814
 2408SOL     OW17222   3.939   5.658   3.018
 2408SOL    HW117223   3.993   5.630   3.098
 2408SOL    HW217224   3.951   5.755   3.001
 2409SOL     OW17225   5.969   6.671   7.296
 2409SOL    HW117226   5.952   6.574   7.313
 2409SOL    HW217227   6.044   6.703   7.354
 2410SOL     OW17228   3.196   0.125   4.531
 2410SOL    HW117229   3.174   0.043   4.477
 2410SOL    HW217230   3.206   0.101   4.627
 2411SOL     OW17231   7.459   3.202   3.155
 2411SOL    HW117232   7.374   3.243   3.188
 2411SOL    HW217233   7.451   3.180   3.058
 2412SOL     OW17234   5.637   2.453   0.762
 2412SOL    HW117235   5.559   2.484   0.817
 2412SOL    HW217236   5.658   2.520   0.692
 2413SOL     OW17237   4.950   2.358   3.320
 2413SOL    HW117238   5.032   2.415   3.332
 2413SOL    HW217239   4.898   2.390   3.241
 2414SOL     OW17240   2.240   7.594   5.681
 2414SOL    HW117241   2.303   7.522   5.651
 2414SOL    HW217242   2.209   7.575   5.774
 2415SOL     OW17243   6.866   4.675   4.453
 2415SOL    HW117244   6.891   4.761   4.409
 2415SOL    HW217245   6.920   4.662   4.536
 2416SOL     OW17246   5.925   2.969   4.027
 2416SOL    HW117247   5.982   3.026   4.085
 2416SOL    HW217248   5.901   3.019   3.943
 2417SOL     OW17249   2.946   7.677   6.129
 2417SOL    HW117250   2.994   7.600   6.171
 2417SOL    HW217251   2.982   7.694   6.037
 2418SOL     OW17252   2.441   4.808   4.415
 2418SOL    HW117253   2.437   4.715   4.379
 2418SOL    HW217254   2.358   4.858   4.390
 2419SOL     OW17255   6.069   7.748   6.882
 2419SOL    HW117256   5.996   7.712   6.940
 2419SOL    HW217257   6.038   7.831   6.835
 2420SOL     OW17258   0.699   3.947   4.450
 2420SOL    HW117259   0.605   3.933   4.479
 2420SOL    HW217260   0.725   3.878   4.382
 2421SOL     OW17261   7.058   1.579   1.615
 2421SOL    HW117262   7.114   1.515   1.562
 2421SOL    HW217263   7.040   1.542   1.705
 2422SOL     OW17264   3.968   2.992   0.415
 2422SOL    HW117265   4.008   3.011   0.325
 2422SOL    HW217266   3.891   2.930   0.406
 2423SOL     OW17267   6.551   2.655   5.915
 2423SOL    HW117268   6.591   2.701   5.995
 2423SOL    HW217269   6.476   2.596   5.943
 2424SOL     OW17270   5.225   5.381   2.638
 2424SOL    HW117271   5.147   5.440   2.616
 2424SOL    HW217272   5.308   5.435   2.646
 2425SOL     OW17273   1.459   4.348   1.178
 2425SOL    HW117274   1.443   4.273   1.113
 2425SOL    HW217275   1.510   4.421   1.133
 2426SOL     OW17276   6.543   0.089   0.144
 2426SOL    HW117277   6.474   0.029   0.184
 2426SOL    HW217278   6.549   0.075   0.045
 2427SOL     OW17279   5.063   7.539   7.877
 2427SOL    HW117280   5.000   7.605   7.835
 2427SOL    HW217281   5.091   7.572   7.967
 2428SOL     OW17282   6.593   2.907   3.296
 2428SOL    HW117283   6.542   2.824   3.271
 2428SOL    HW217284   6.634   2.896   3.386
 2429SOL     OW17285   6.907   1.947   6.561
 2429SOL    HW117286   6.826   1.907   6.519
 2429SOL    HW217287   6.886   1.979   6.653
 2430SOL     OW17288   5.433   2.121   2.161
 2430SOL    HW117289   5.382   2.206   2.154
 2430SOL    HW217290   5.472   2.112   2.253
 2431SOL     OW17291   3.167   6.605   7.767
 2431SOL    HW117292   3.237   6.563   7.709
 2431SOL    HW217293   3.081   6.613   7.717
 2432SOL     OW17294   2.184   3.515   6.283
 2432SOL    HW117295   2.099   3.468   6.260
 2432SOL    HW217296   2.206   3.504   6.380
 2433SOL     OW17297   0.226   6.469   5.758
 2433SOL    HW117298   0.295   6.399   5.775
 2433SOL    HW217299   0.252   6.524   5.679
 2434SOL     OW17300   0.935   0.288   5.961
 2434SOL    HW117301   0.904   0.293   6.056
 2434SOL    HW217302   0.970   0.196   5.942
 2435SOL     OW17303   6.811   6.912   5.801
 2435SOL    HW117304   6.818   7.007   5.772
 2435SOL    HW217305   6.764   6.858   5.731
 2436SOL     OW17306   2.200   3.109   4.070
 2436SOL    HW117307   2.272   3.172   4.042
 2436SOL    HW217308   2.123   3.115   4.006
 2437SOL     OW17309   3.572   5.448   3.608
 2437SOL    HW117310   3.518   5.531   3.597
 2437SOL    HW217311   3.647   5.447   3.541
 2438SOL     OW17312   7.931   2.346   7.768
 2438SOL    HW117313   7.864   2.420   7.775
 2438SOL    HW217314   7.926   2.289   7.850
 2439SOL     OW17315   5.605   1.703   1.833
 2439SOL    HW117316   5.599   1.797   1.867
 2439SOL    HW217317   5.539   1.645   1.882
 2440SOL     OW17318   3.230   1.171   3.434
 2440SOL    HW117319   3.202   1.220   3.517
 2440SOL    HW217320   3.230   1.072   3.452
 2441SOL     OW17321   4.928   5.358   3.090
 2441SOL    HW117322   5.013   5.365   3.142
 2441SOL    HW217323   4.860   5.420   3.128
 2442SOL     OW17324   7.059   1.009   0.107
 2442SOL    HW117325   7.031   0.935   0.046
 2442SOL    HW217326   7.149   0.989   0.147
 2443SOL     OW17327   4.566   6.990   0.194
 2443SOL    HW117328   4.506   7.061   0.158
 2443SOL    HW217329   4.654   7.029   0.221
 2444SOL     OW17330   6.578   6.786   7.170
 2444SOL    HW117331   6.530   6.859   7.122
 2444SOL    HW217332   6.591   6.812   7.266
 2445SOL     OW17333   3.939   4.125   0.642
 2445SOL    HW117334   3.881   4.181   0.582
 2445SOL    HW217335   3.892   4.109   0.729
 2446SOL     OW17336   3.762   1.090   5.443
 2446SOL    HW117337   3.756   1.119   5.538
 2446SOL    HW217338   3.711   1.005   5.429
 2447SOL     OW17339   0.238   3.497   4.427
 2447SOL    HW117340   0.171   3.519   4.357
 2447SOL    HW217341   0.204   3.525   4.517
 2448SOL     OW17342   0.417   5.407   5.615
 2448SOL    HW117343   0.489   5.446   5.673
 2448SOL    HW217344   0.432   5.309   5.605
 2449SOL     OW17345   3.986   7.840   0.103
 2449SOL    HW117346   3.972   7.923   0.157
 2449SOL    HW217347   3.899   7.808   0.067
 2450SOL     OW17348   5.855   3.292   3.430
 2450SOL    HW117349   5.862   3.237   3.513
 2450SOL    HW217350   5.874   3.388   3.451
 2451SOL     OW17351   0.988   6.867   4.210
 2451SOL    HW117352   0.932   6.784   4.205
 2451SOL    HW217353   1.006   6.890   4.306
 2452SOL     OW17354   3.263   0.597   6.307
 2452SOL    HW117355   3.358   0.589   6.275
 2452SOL    HW217356   3.261   0.607   6.406
 2453SOL     OW17357   6.412   7.503   2.975
 2453SOL    HW117358   6.450   7.411   2.972
 2453SOL    HW217359   6.447   7.558   2.899
 2454SOL     OW17360   1.911   0.292   3.634
 2454SOL    HW117361   1.955   0.368   3.584
 2454SOL    HW217362   1.814   0.314   3.650
 2455SOL     OW17363   2.499   1.285   3.719
 2455SOL    HW117364   2.419   1.345   3.716
 2455SOL    HW217365   2.478   1.202   3.772
 2456SOL     OW17366   7.372   7.394   7.001
 2456SOL    HW117367   7.313   7.412   6.922
 2456SOL    HW217368   7.415   7.304   6.992
 2457SOL     OW17369   4.943   3.974   7.674
 2457SOL    HW117370   5.025   4.010   7.629
 2457SOL    HW217371   4.967   3.933   7.762
 2458SOL     OW17372   1.047   2.295   6.627
 2458SOL    HW117373   1.070   2.269   6.533
 2458SOL    HW217374   1.088   2.232   6.692
 2459SOL     OW17375   2.271   6.692   1.429
 2459SOL    HW117376   2.323   6.764   1.475
 2459SOL    HW217377   2.249   6.720   1.336
 2460SOL     OW17378   7.662   1.172   0.890
 2460SOL    HW117379   7.591   1.187   0.959
 2460SOL    HW217380   7.742   1.228   0.910
 2461SOL     OW17381   7.812   1.449   2.322
 2461SOL    HW117382   7.781   1.355   2.335
 2461SOL    HW217383   7.877   1.454   2.245
 2462SOL     OW17384   3.110   4.926   7.500
 2462SOL    HW117385   3.113   4.854   7.430
 2462SOL    HW217386   3.193   4.924   7.554
 2463SOL     OW17387   0.301   3.151   5.963
 2463SOL    HW117388   0.212   3.140   5.917
 2463SOL    HW217389   0.288   3.177   6.058
 2464SOL     OW17390   5.848   1.443   0.695
 2464SOL    HW117391   5.819   1.387   0.773
 2464SOL    HW217392   5.897   1.524   0.727
 2465SOL     OW17393   5.712   0.586   7.711
 2465SOL    HW117394   5.807   0.565   7.732
 2465SOL    HW217395   5.657   0.585   7.795
 2466SOL     OW17396   7.083   3.125   1.777
 2466SOL    HW117397   7.168   3.107   1.727
 2466SOL    HW217398   7.096   3.109   1.875
 2467SOL     OW17399   4.158   4.461   4.769
 2467SOL    HW117400   4.251   4.464   4.807
 2467SOL    HW217401   4.157   4.501   4.678
 2468SOL     OW17402   4.405   2.168   1.731
 2468SOL    HW117403   4.308   2.151   1.717
 2468SOL    HW217404   4.450   2.085   1.764
 2469SOL     OW17405   4.866   5.245   0.340
 2469SOL    HW117406   4.945   5.306   0.353
 2469SOL    HW217407   4.875   5.196   0.253
 2470SOL     OW17408   1.151   5.786   7.054
 2470SOL    HW117409   1.181   5.824   7.142
 2470SOL    HW217410   1.212   5.712   7.027
 2471SOL     OW17411   3.514   7.182   0.165
 2471SOL    HW117412   3.462   7.214   0.245
 2471SOL    HW217413   3.611   7.200   0.179
 2472SOL     OW17414   5.086   0.480   2.567
 2472SOL    HW117415   5.170   0.528   2.591
 2472SOL    HW217416   5.028   0.539   2.511
 2473SOL     OW17417   3.740   7.690   4.255
 2473SOL    HW117418   3.802   7.612   4.267
 2473SOL    HW217419   3.786   7.775   4.281
 2474SOL     OW17420   3.405   3.583   4.666
 2474SOL    HW117421   3.448   3.626   4.746
 2474SOL    HW217422   3.448   3.495   4.647
 2475SOL     OW17423   4.317   4.164   3.879
 2475SOL    HW117424   4.324   4.254   3.836
 2475SOL    HW217425   4.352   4.168   3.973
 2476SOL     OW17426   6.968   2.973   3.681
 2476SOL    HW117427   6.891   2.914   3.654
 2476SOL    HW217428   6.945   3.023   3.764
 2477SOL     OW17429   1.152   3.300   2.559
 2477SOL    HW117430   1.110   3.347   2.481
 2477SOL    HW217431   1.083   3.283   2.629
 2478SOL     OW17432   7.892   1.663   1.219
 2478SOL    HW117433   7.826   1.737   1.210
 2478SOL    HW217434   7.966   1.690   1.281
 2479SOL     OW17435   5.989   2.728   1.299
 2479SOL    HW117436   5.927   2.703   1.374
 2479SOL    HW217437   6.028   2.818   1.316
 2480SOL     OW17438   0.553   2.228   2.391
 2480SOL    HW117439   0.524   2.202   2.483
 2480SOL    HW217440   0.475   2.264   2.340
 2481SOL     OW17441   6.685   2.967   5.034
 2481SOL    HW117442   6.697   3.040   4.966
 2481SOL    HW217443   6.728   2.883   5.001
 2482SOL     OW17444   0.438   7.706   5.017
 2482SOL    HW117445   0.377   7.778   5.051
 2482SOL    HW217446   0.412   7.681   4.923
 2483SOL     OW17447   7.634   7.917   2.215
 2483SOL    HW117448   7.715   7.887   2.165
 2483SOL    HW217449   7.654   8.000   2.267
 2484SOL     OW17450   5.028   4.551   5.402
 2484SOL    HW117451   4.955   4.531   5.468
 2484SOL    HW217452   5.018   4.644   5.367
 2485SOL     OW17453   4.876   0.765   5.160
 2485SOL    HW117454   4.830   0.846   5.123
 2485SOL    HW217455   4.808   0.700   5.193
 2486SOL     OW17456   5.353   3.420   7.493
 2486SOL    HW117457   5.295   3.468   7.426
 2486SOL    HW217458   5.421   3.483   7.530
 2487SOL     OW17459   0.676   4.617   5.227
 2487SOL    HW117460   0.692   4.708   5.266
 2487SOL    HW217461   0.643   4.626   5.133
 2488SOL     OW17462   5.027   3.320   6.300
 2488SOL    HW117463   4.948   3.376   6.326
 2488SOL    HW217464   5.094   3.319   6.375
 2489SOL     OW17465   1.284   0.766   2.316
 2489SOL    HW117466   1.296   0.835   2.388
 2489SOL    HW217467   1.187   0.759   2.292
 2490SOL     OW17468   7.933   3.928   6.845
 2490SOL    HW117469   7.883   4.013   6.825
 2490SOL    HW217470   8.000   3.945   6.918
 2491SOL     OW17471   2.105   3.008   4.831
 2491SOL    HW117472   2.007   3.021   4.846
 2491SOL    HW217473   2.121   2.973   4.739
 2492SOL     OW17474   4.450   1.280   0.704
 2492SOL    HW117475   4.500   1.203   0.664
 2492SOL    HW217476   4.377   1.308   0.642
 2493SOL     OW17477   3.039   4.169   4.909
 2493SOL    HW117478   3.091   4.230   4.849
 2493SOL    HW217479   2.979   4.222   4.968
 2494SOL     OW17480   5.381   7.494   5.165
 2494SOL    HW117481   5.415   7.401   5.150
 2494SOL    HW217482   5.318   7.520   5.092
 2495SOL     OW17483   0.087   2.024   6.815
 2495SOL    HW117484   0.034   2.028   6.730
 2495SOL    HW217485   0.054   2.092   6.880
 2496SOL     OW17486   1.778   5.356   0.350
 2496SOL    HW117487   1.767   5.261   0.320
 2496SOL    HW217488   1.874   5.373   0.374
 2497SOL     OW17489   5.736   3.479   7.307
 2497SOL    HW117490   5.652   3.431   7.334
 2497SOL    HW217491   5.775   3.438   7.226
 2498SOL     OW17492   2.784   3.977   3.463
 2498SOL    HW117493   2.724   4.046   3.423
 2498SOL    HW217494   2.859   3.956   3.400
 2499SOL     OW17495   7.807   5.688   0.568
 2499SOL    HW117496   7.720   5.726   0.602
 2499SOL    HW217497   7.789   5.616   0.502
 2500SOL     OW17498   4.234   6.461   5.198
 2500SOL    HW117499   4.200   6.543   5.152
 2500SOL    HW217500   4.252   6.389   5.131
 2501SOL     OW17501   6.822   7.669   4.885
 2501SOL    HW117502   6.863   7.718   4.807
 2501SOL    HW217503   6.852   7.574   4.885
 2502SOL     OW17504   2.826   0.261   4.698
 2502SOL    HW117505   2.870   0.186   4.748
 2502SOL    HW217506   2.786   0.226   4.614
 2503SOL     OW17507   5.345   5.500   7.528
 2503SOL    HW117508   5.272   5.435   7.509
 2503SOL    HW217509   5.424   5.481   7.468
 2504SOL     OW17510   5.887   6.461   3.947
 2504SOL    HW117511   5.931   6.545   3.914
 2504SOL    HW217512   5.912   6.445   4.042
 2505SOL     OW17513   2.010   5.493   7.792
 2505SOL    HW117514   2.093   5.438   7.789
 2505SOL    HW217515   1.964   5.482   7.880
 2506SOL     OW17516   2.916   3.967   6.899
 2506SOL    HW117517   2.859   4.032   6.949
 2506SOL    HW217518   2.886   3.963   6.803
 2507SOL     OW17519   0.700   4.935   6.540
 2507SOL    HW117520   0.763   5.012   6.535
 2507SOL    HW217521   0.646   4.930   6.456
 2508SOL     OW17522   4.504   4.342   2.816
 2508SOL    HW117523   4.546   4.259   2.779
 2508SOL    HW217524   4.469   4.325   2.908
 2509SOL     OW17525   1.132   5.595   5.393
 2509SOL    HW117526   1.170   5.514   5.348
 2509SOL    HW217527   1.196   5.672   5.385
 2510SOL     OW17528   5.281   2.298   7.063
 2510SOL    HW117529   5.226   2.371   7.024
 2510SOL    HW217530   5.375   2.328   7.075
 2511SOL     OW17531   0.871   6.009   1.973
 2511SOL    HW117532   0.931   6.086   1.995
 2511SOL    HW217533   0.776   6.040   1.965
 2512SOL     OW17534   6.674   2.127   6.457
 2512SOL    HW117535   6.743   2.172   6.514
 2512SOL    HW217536   6.630   2.193   6.397
 2513SOL     OW17537   4.960   6.530   7.002
 2513SOL    HW117538   5.051   6.493   6.985
 2513SOL    HW217539   4.918   6.483   7.079
 2514SOL     OW17540   1.465   3.348   1.699
 2514SOL    HW117541   1.546   3.299   1.666
 2514SOL    HW217542   1.385   3.322   1.645
 2515SOL     OW17543   7.954   7.920   4.090
 2515SOL    HW117544   8.000   7.993   4.141
 2515SOL    HW217545   8.000   7.833   4.107
 2516SOL     OW17546   2.105   0.758   3.554
 2516SOL    HW117547   2.012   0.743   3.585
 2516SOL    HW217548   2.104   0.800   3.463
 2517SOL     OW17549   5.875   3.088   2.139
 2517SOL    HW117550   5.974   3.076   2.155
 2517SOL    HW217551   5.824   3.019   2.190
 2518SOL     OW17552   0.022   5.752   3.947
 2518SOL    HW117553   0.093   5.784   3.884
 2518SOL    HW217554   0.064   5.725   4.034
 2519SOL     OW17555   1.496   3.186   7.369
 2519SOL    HW117556   1.535   3.095   7.387
 2519SOL    HW217557   1.417   3.178   7.307
 2520SOL     OW17558   4.838   5.475   2.835
 2520SOL    HW117559   4.753   5.464   2.888
 2520SOL    HW217560   4.914   5.430   2.882
 2521SOL     OW17561   3.781   7.307   1.069
 2521SOL    HW117562   3.847   7.372   1.106
 2521SOL    HW217563   3.804   7.214   1.098
 2522SOL     OW17564   7.325   1.520   1.372
 2522SOL    HW117565   7.328   1.446   1.440
 2522SOL    HW217566   7.336   1.482   1.281
 2523SOL     OW17567   7.793   6.175   4.710
 2523SOL    HW117568   7.734   6.250   4.681
 2523SOL    HW217569   7.754   6.087   4.682
 2524SOL     OW17570   6.487   3.515   1.904
 2524SOL    HW117571   6.411   3.509   1.840
 2524SOL    HW217572   6.453   3.530   1.997
 2525SOL     OW17573   0.334   2.223   0.921
 2525SOL    HW117574   0.409   2.158   0.932
 2525SOL    HW217575   0.300   2.251   1.011
 2526SOL     OW17576   6.369   0.398   0.045
 2526SOL    HW117577   6.357   0.493   0.017
 2526SOL    HW217578   6.417   0.393   0.132
 2527SOL     OW17579   0.784   5.655   7.072
 2527SOL    HW117580   0.754   5.616   7.159
 2527SOL    HW217581   0.875   5.695   7.082
 2528SOL     OW17582   5.944   5.447   2.517
 2528SOL    HW117583   5.923   5.353   2.545
 2528SOL    HW217584   6.034   5.451   2.474
 2529SOL     OW17585   2.509   0.334   7.255
 2529SOL    HW117586   2.559   0.393   7.191
 2529SOL    HW217587   2.564   0.315   7.335
 2530SOL     OW17588   4.223   7.194   2.695
 2530SOL    HW117589   4.313   7.239   2.695
 2530SOL    HW217590   4.177   7.210   2.608
 2531SOL     OW17591   6.218   4.512   4.606
 2531SOL    HW117592   6.221   4.415   4.630
 2531SOL    HW217593   6.260   4.526   4.517
 2532SOL     OW17594   6.056   1.161   4.914
 2532SOL    HW117595   6.068   1.247   4.964
 2532SOL    HW217596   5.990   1.173   4.841
 2533SOL     OW17597   4.696   7.703   2.317
 2533SOL    HW117598   4.647   7.788   2.340
 2533SOL    HW217599   4.648   7.625   2.356
 2534SOL     OW17600   0.657   2.221   2.712
 2534SOL    HW117601   0.573   2.214   2.765
 2534SOL    HW217602   0.662   2.146   2.646
 2535SOL     OW17603   7.809   2.340   4.668
 2535SOL    HW117604   7.876   2.401   4.710
 2535SOL    HW217605   7.781   2.270   4.734
 2536SOL     OW17606   5.208   7.501   2.778
 2536SOL    HW117607   5.157   7.574   2.733
 2536SOL    HW217608   5.228   7.527   2.873
 2537SOL     OW17609   4.526   3.932   6.409
 2537SOL    HW117610   4.470   3.926   6.491
 2537SOL    HW217611   4.469   3.938   6.328
 2538SOL     OW17612   0.296   4.860   0.677
 2538SOL    HW117613   0.273   4.947   0.721
 2538SOL    HW217614   0.390   4.862   0.644
 2539SOL     OW17615   0.045   5.178   2.938
 2539SOL    HW117616   0.145   5.173   2.934
 2539SOL    HW217617   0.017   5.240   3.011
 2540SOL     OW17618   4.065   6.403   5.798
 2540SOL    HW117619   4.057   6.503   5.787
 2540SOL    HW217620   4.098   6.381   5.889
 2541SOL     OW17621   6.863   5.723   6.065
 2541SOL    HW117622   6.948   5.688   6.104
 2541SOL    HW217623   6.883   5.771   5.979
 2542SOL     OW17624   5.505   2.177   6.665
 2542SOL    HW117625   5.485   2.080   6.646
 2542SOL    HW217626   5.459   2.206   6.748
 2543SOL     OW17627   0.884   7.312   4.000
 2543SOL    HW117628   0.800   7.267   3.967
 2543SOL    HW217629   0.928   7.255   4.068
 2544SOL     OW17630   4.792   3.817   0.463
 2544SOL    HW117631   4.873   3.862   0.500
 2544SOL    HW217632   4.770   3.853   0.373
 2545SOL     OW17633   6.518   0.980   2.238
 2545SOL    HW117634   6.426   1.016   2.221
 2545SOL    HW217635   6.513   0.901   2.299
 2546SOL     OW17636   4.653   4.289   0.857
 2546SOL    HW117637   4.665   4.255   0.950
 2546SOL    HW217638   4.722   4.250   0.796
 2547SOL     OW17639   4.748   4.641   6.321
 2547SOL    HW117640   4.691   4.567   6.355
 2547SOL    HW217641   4.781   4.621   6.229
 2548SOL     OW17642   6.944   3.936   7.863
 2548SOL    HW117643   6.893   3.873   7.805
 2548SOL    HW217644   7.041   3.913   7.861
 2549SOL     OW17645   6.636   0.855   7.708
 2549SOL    HW117646   6.538   0.861   7.726
 2549SOL    HW217647   6.654   0.794   7.631
 2550SOL     OW17648   7.602   0.539   7.491
 2550SOL    HW117649   7.636   0.463   7.435
 2550SOL    HW217650   7.610   0.516   7.588
 2551SOL     OW17651   4.062   5.731   6.626
 2551SOL    HW117652   4.121   5.655   6.652
 2551SOL    HW217653   4.093   5.772   6.541
 2552SOL     OW17654   5.575   4.968   2.030
 2552SOL    HW117655   5.495   4.915   2.000
 2552SOL    HW217656   5.623   4.920   2.103
 2553SOL     OW17657   0.095   2.447   2.138
 2553SOL    HW117658   0.108   2.386   2.217
 2553SOL    HW217659   0.038   2.525   2.165
 2554SOL     OW17660   0.855   3.287   3.306
 2554SOL    HW117661   0.868   3.282   3.405
 2554SOL    HW217662   0.877   3.379   3.273
 2555SOL     OW17663   1.667   4.860   4.607
 2555SOL    HW117664   1.708   4.770   4.591
 2555SOL    HW217665   1.650   4.905   4.519
 2556SOL     OW17666   3.267   6.998   0.351
 2556SOL    HW117667   3.314   6.991   0.263
 2556SOL    HW217668   3.332   7.024   0.423
 2557SOL     OW17669   3.977   7.890   1.134
 2557SOL    HW117670   4.042   7.963   1.111
 2557SOL    HW217671   4.019   7.826   1.198
 2558SOL     OW17672   3.514   7.381   3.769
 2558SOL    HW117673   3.606   7.389   3.732
 2558SOL    HW217674   3.510   7.427   3.858
 2559SOL     OW17675   5.089   7.466   3.424
 2559SOL    HW117676   5.094   7.412   3.508
 2559SOL    HW217677   5.039   7.551   3.442
 2560SOL     OW17678   0.573   3.648   3.389
 2560SOL    HW117679   0.638   3.574   3.408
 2560SOL    HW217680   0.489   3.633   3.441
 2561SOL     OW17681   7.789   2.573   2.142
 2561SOL    HW117682   7.831   2.664   2.141
 2561SOL    HW217683   7.712   2.572   2.205
 2562SOL     OW17684   5.415   3.651   4.906
 2562SOL    HW117685   5.411   3.712   4.985
 2562SOL    HW217686   5.496   3.671   4.851
 2563SOL     OW17687   0.743   1.525   6.913
 2563SOL    HW117688   0.648   1.530   6.946
 2563SOL    HW217689   0.754   1.444   6.857
 2564SOL     OW17690   0.161   0.942   1.184
 2564SOL    HW117691   0.142   1.040   1.181
 2564SOL    HW217692   0.213   0.920   1.266
 2565SOL     OW17693   5.687   4.488   3.026
 2565SOL    HW117694   5.768   4.428   3.021
 2565SOL    HW217695   5.701   4.558   3.096
 2566SOL     OW17696   7.893   0.532   4.347
 2566SOL    HW117697   7.926   0.438   4.351
 2566SOL    HW217698   7.795   0.534   4.364
 2567SOL     OW17699   1.389   5.060   3.247
 2567SOL    HW117700   1.422   5.154   3.236
 2567SOL    HW217701   1.291   5.060   3.264
 2568SOL     OW17702   5.222   7.255   5.987
 2568SOL    HW117703   5.278   7.212   6.058
 2568SOL    HW217704   5.239   7.213   5.898
 2569SOL     OW17705   3.233   5.553   1.658
 2569SOL    HW117706   3.320   5.588   1.692
 2569SOL    HW217707   3.224   5.570   1.560
 2570SOL     OW17708   5.148   7.476   5.857
 2570SOL    HW117709   5.204   7.448   5.778
 2570SOL    HW217710   5.053   7.452   5.840
 2571SOL     OW17711   0.444   1.296   3.617
 2571SOL    HW117712   0.375   1.355   3.575
 2571SOL    HW217713   0.471   1.224   3.552
 2572SOL     OW17714   2.398   2.279   3.326
 2572SOL    HW117715   2.385   2.290   3.425
 2572SOL    HW217716   2.336   2.340   3.277
 2573SOL     OW17717   2.355   1.829   0.310
 2573SOL    HW117718   2.371   1.765   0.235
 2573SOL    HW217719   2.359   1.781   0.398
 2574SOL     OW17720   5.035   1.672   4.908
 2574SOL    HW117721   5.049   1.611   4.830
 2574SOL    HW217722   4.957   1.732   4.891
 2575SOL     OW17723   3.184   4.307   1.101
 2575SOL    HW117724   3.124   4.361   1.161
 2575SOL    HW217725   3.231   4.367   1.037
 2576SOL     OW17726   7.672   2.539   3.291
 2576SOL    HW117727   7.667   2.443   3.266
 2576SOL    HW217728   7.627   2.554   3.379
 2577SOL     OW17729   3.158   3.821   0.234
 2577SOL    HW117730   3.062   3.841   0.255
 2577SOL    HW217731   3.217   3.894   0.269
 2578SOL     OW17732   4.239   4.790   2.771
 2578SOL    HW117733   4.139   4.781   2.771
 2578SOL    HW217734   4.277   4.741   2.849
 2579SOL     OW17735   2.452   3.526   5.734
 2579SOL    HW117736   2.362   3.523   5.778
 2579SOL    HW217737   2.455   3.602   5.668
 2580SOL     OW17738   2.635   2.493   7.090
 2580SOL    HW117739   2.705   2.421   7.084
 2580SOL    HW217740   2.556   2.469   7.035
 2581SOL     OW17741   2.523   0.953   1.149
 2581SOL    HW117742   2.561   0.861   1.140
 2581SOL    HW217743   2.461   0.956   1.227
 2582SOL     OW17744   5.290   6.808   2.114
 2582SOL    HW117745   5.342   6.890   2.136
 2582SOL    HW217746   5.345   6.727   2.132
 2583SOL     OW17747   0.119   2.872   5.530
 2583SOL    HW117748   0.204   2.922   5.512
 2583SOL    HW217749   0.124   2.828   5.620
 2584SOL     OW17750   4.958   7.312   0.434
 2584SOL    HW117751   4.991   7.379   0.500
 2584SOL    HW217752   4.903   7.243   0.480
 2585SOL     OW17753   3.306   6.658   2.188
 2585SOL    HW117754   3.276   6.745   2.149
 2585SOL    HW217755   3.329   6.670   2.285
 2586SOL     OW17756   4.982   3.990   2.434
 2586SOL    HW117757   4.937   4.031   2.513
 2586SOL    HW217758   4.914   3.946   2.375
 2587SOL     OW17759   4.679   5.332   2.364
 2587SOL    HW117760   4.591   5.381   2.370
 2587SOL    HW217761   4.706   5.323   2.269
 2588SOL     OW17762   1.737   2.570   2.413
 2588SOL    HW117763   1.666   2.562   2.343
 2588SOL    HW217764   1.703   2.623   2.490
 2589SOL     OW17765   1.501   0.266   5.205
 2589SOL    HW117766   1.592   0.278   5.245
 2589SOL    HW217767   1.509   0.237   5.109
 2590SOL     OW17768   7.772   7.096   6.763
 2590SOL    HW117769   7.814   7.181   6.795
 2590SOL    HW217770   7.758   7.033   6.839
 2591SOL     OW17771   1.034   3.836   4.822
 2591SOL    HW117772   1.096   3.795   4.889
 2591SOL    HW217773   0.978   3.907   4.867
 2592SOL     OW17774   6.597   6.850   2.428
 2592SOL    HW117775   6.544   6.935   2.434
 2592SOL    HW217776   6.590   6.812   2.336
 2593SOL     OW17777   6.991   1.224   6.209
 2593SOL    HW117778   7.048   1.218   6.292
 2593SOL    HW217779   6.896   1.241   6.234
 2594SOL     OW17780   0.608   5.949   5.693
 2594SOL    HW117781   0.566   6.032   5.658
 2594SOL    HW217782   0.603   5.946   5.793
 2595SOL     OW17783   1.145   2.113   6.868
 2595SOL    HW117784   1.120   2.036   6.809
 2595SOL    HW217785   1.097   2.106   6.955
 2596SOL     OW17786   1.956   4.044   7.297
 2596SOL    HW117787   1.883   4.100   7.258
 2596SOL    HW217788   1.947   3.950   7.265
 2597SOL     OW17789   7.590   7.422   7.932
 2597SOL    HW117790   7.521   7.447   8.000
 2597SOL    HW217791   7.614   7.502   7.877
 2598SOL     OW17792   4.038   2.623   4.893
 2598SOL    HW117793   4.135   2.597   4.902
 2598SOL    HW217794   4.029   2.696   4.825
 2599SOL     OW17795   0.430   2.820   4.596
 2599SOL    HW117796   0.521   2.802   4.635
 2599SOL    HW217797   0.369   2.744   4.615
 2600SOL     OW17798   1.786   3.301   2.123
 2600SOL    HW117799   1.719   3.286   2.051
 2600SOL    HW217800   1.742   3.300   2.213
 2601SOL     OW17801   7.827   1.879   1.382
 2601SOL    HW117802   7.926   1.886   1.387
 2601SOL    HW217803   7.793   1.830   1.462
 2602SOL     OW17804   6.331   6.432   5.188
 2602SOL    HW117805   6.377   6.345   5.206
 2602SOL    HW217806   6.349   6.461   5.094
 2603SOL     OW17807   1.748   0.222   4.678
 2603SOL    HW117808   1.845   0.244   4.691
 2603SOL    HW217809   1.709   0.281   4.608
 2604SOL     OW17810   1.773   3.253   6.580
 2604SOL    HW117811   1.678   3.244   6.550
 2604SOL    HW217812   1.780   3.236   6.678
 2605SOL     OW17813   3.412   6.168   5.673
 2605SOL    HW117814   3.379   6.135   5.761
 2605SOL    HW217815   3.390   6.265   5.663
 2606SOL     OW17816   4.582   2.368   4.700
 2606SOL    HW117817   4.581   2.339   4.605
 2606SOL    HW217818   4.578   2.468   4.705
 2607SOL     OW17819   2.779   4.591   2.640
 2607SOL    HW117820   2.707   4.530   2.672
 2607SOL    HW217821   2.809   4.563   2.549
 2608SOL     OW17822   7.231   0.035   2.675
 2608SOL    HW117823   7.290   0.028   2.756
 2608SOL    HW217824   7.140  -0.000   2.697
 2609SOL     OW17825   7.402   0.968   2.474
 2609SOL    HW117826   7.444   0.993   2.387
 2609SOL    HW217827   7.383   0.870   2.476
 2610SOL     OW17828   1.021   3.424   5.767
 2610SOL    HW117829   0.973   3.380   5.691
 2610SOL    HW217830   1.035   3.358   5.841
 2611SOL     OW17831   4.135   3.568   3.888
 2611SOL    HW117832   4.043   3.534   3.867
 2611SOL    HW217833   4.180   3.600   3.805
 2612SOL     OW17834   0.292   4.627   6.963
 2612SOL    HW117835   0.193   4.641   6.966
 2612SOL    HW217836   0.334   4.659   7.048
 2613SOL     OW17837   0.687   7.519   4.192
 2613SOL    HW117838   0.631   7.441   4.166
 2613SOL    HW217839   0.714   7.512   4.288
 2614SOL     OW17840   4.699   6.053   3.160
 2614SOL    HW117841   4.703   5.955   3.141
 2614SOL    HW217842   4.787   6.096   3.139
 2615SOL     OW17843   3.221   0.369   7.612
 2615SOL    HW117844   3.251   0.339   7.703
 2615SOL    HW217845   3.234   0.467   7.603
 2616SOL     OW17846   3.585   0.652   6.916
 2616SOL    HW117847   3.654   0.581   6.922
 2616SOL    HW217848   3.628   0.742   6.909
 2617SOL     OW17849   7.402   2.432   2.154
 2617SOL    HW117850   7.323   2.493   2.155
 2617SOL    HW217851   7.486   2.484   2.170
 2618SOL     OW17852   4.543   2.612   2.121
 2618SOL    HW117853   4.561   2.679   2.193
 2618SOL    HW217854   4.471   2.549   2.150
 2619SOL     OW17855   3.508   5.272   3.241
 2619SOL    HW117856   3.556   5.191   3.275
 2619SOL    HW217857   3.536   5.291   3.147
 2620SOL     OW17858   1.116   4.020   4.719
 2620SOL    HW117859   1.211   4.035   4.691
 2620SOL    HW217860   1.087   4.091   4.783
 2621SOL     OW17861   0.929   3.636   2.295
 2621SOL    HW117862   0.977   3.694   2.229
 2621SOL    HW217863   0.992   3.610   2.369
 2622SOL     OW17864   5.890   6.665   5.088
 2622SOL    HW117865   5.883   6.646   4.990
 2622SOL    HW217866   5.813   6.623   5.137
 2623SOL     OW17867   1.023   3.914   6.466
 2623SOL    HW117868   1.077   3.830   6.478
 2623SOL    HW217869   1.008   3.958   6.555
 2624SOL     OW17870   7.201   4.466   0.193
 2624SOL    HW117871   7.283   4.431   0.239
 2624SOL    HW217872   7.224   4.499   0.102
 2625SOL     OW17873   6.355   5.068   1.992
 2625SOL    HW117874   6.315   5.131   2.058
 2625SOL    HW217875   6.284   5.029   1.934
 2626SOL     OW17876   5.993   0.297   1.797
 2626SOL    HW117877   5.923   0.314   1.867
 2626SOL    HW217878   6.008   0.199   1.787
 2627SOL     OW17879   1.822   3.137   4.882
 2627SOL    HW117880   1.878   3.169   4.959
 2627SOL    HW217881   1.731   3.177   4.886
 2628SOL     OW17882   6.666   4.448   0.352
 2628SOL    HW117883   6.684   4.380   0.423
 2628SOL    HW217884   6.614   4.407   0.277
 2629SOL     OW17885   7.389   0.335   2.241
 2629SOL    HW117886   7.387   0.419   2.296
 2629SOL    HW217887   7.296   0.306   2.220
 2630SOL     OW17888   1.296   1.298   6.313
 2630SOL    HW117889   1.303   1.206   6.352
 2630SOL    HW217890   1.360   1.308   6.237
 2631SOL     OW17891   3.599   4.579   3.454
 2631SOL    HW117892   3.693   4.547   3.464
 2631SOL    HW217893   3.537   4.501   3.446
 2632SOL     OW17894   4.784   4.409   2.929
 2632SOL    HW117895   4.710   4.354   2.891
 2632SOL    HW217896   4.754   4.453   3.014
 2633SOL     OW17897   3.660   3.308   3.184
 2633SOL    HW117898   3.659   3.211   3.159
 2633SOL    HW217899   3.641   3.318   3.282
 2634SOL     OW17900   0.546   1.045   0.700
 2634SOL    HW117901   0.559   1.144   0.692
 2634SOL    HW217902   0.451   1.021   0.680
 2635SOL     OW17903   2.896   2.061   3.550
 2635SOL    HW117904   2.857   2.103   3.468
 2635SOL    HW217905   2.848   2.094   3.632
 2636SOL     OW17906   5.343   2.138   6.402
 2636SOL    HW117907   5.352   2.039   6.412
 2636SOL    HW217908   5.387   2.185   6.479
 2637SOL     OW17909   7.446   5.199   6.921
 2637SOL    HW117910   7.461   5.105   6.953
 2637SOL    HW217911   7.419   5.258   6.997
 2638SOL     OW17912   1.611   0.103   6.276
 2638SOL    HW117913   1.525   0.054   6.263
 2638SOL    HW217914   1.672   0.050   6.334
 2639SOL     OW17915   2.226   0.730   0.991
 2639SOL    HW117916   2.277   0.811   0.960
 2639SOL    HW217917   2.164   0.700   0.919
 2640SOL     OW17918   5.788   0.150   1.742
 2640SOL    HW117919   5.842   0.132   1.659
 2640SOL    HW217920   5.766   0.064   1.788
 2641SOL     OW17921   0.235   5.981   1.891
 2641SOL    HW117922   0.292   6.043   1.836
 2641SOL    HW217923   0.144   6.021   1.903
 2642SOL     OW17924   4.278   6.575   6.704
 2642SOL    HW117925   4.308   6.541   6.615
 2642SOL    HW217926   4.321   6.663   6.723
 2643SOL     OW17927   5.294   0.203   7.065
 2643SOL    HW117928   5.260   0.146   6.990
 2643SOL    HW217929   5.276   0.299   7.047
 2644SOL     OW17930   7.032   8.000   5.336
 2644SOL    HW117931   7.130   7.989   5.318
 2644SOL    HW217932   7.004   7.940   5.410
 2645SOL     OW17933   3.859   0.369   6.779
 2645SOL    HW117934   3.941   0.314   6.795
 2645SOL    HW217935   3.876   0.433   6.704
 2646SOL     OW17936   7.681   0.857   5.991
 2646SOL    HW117937   7.615   0.916   5.944
 2646SOL    HW217938   7.695   0.888   6.085
 2647SOL     OW17939   0.028   7.657   4.767
 2647SOL    HW117940   0.049   7.678   4.862
 2647SOL    HW217941   0.109   7.621   4.721
 2648SOL     OW17942   3.633   0.599   5.337
 2648SOL    HW117943   3.591   0.513   5.366
 2648SOL    HW217944   3.651   0.598   5.239
 2649SOL     OW17945   5.025   7.806   2.426
 2649SOL    HW117946   5.001   7.805   2.329
 2649SOL    HW217947   5.085   7.729   2.447
 2650SOL     OW17948   3.763   2.964   4.717
 2650SOL    HW117949   3.853   2.965   4.671
 2650SOL    HW217950   3.754   3.044   4.776
 2651SOL     OW17951   5.503   7.435   2.683
 2651SOL    HW117952   5.482   7.372   2.607
 2651SOL    HW217953   5.419   7.458   2.731
 2652SOL     OW17954   5.253   6.926   0.416
 2652SOL    HW117955   5.237   6.926   0.515
 2652SOL    HW217956   5.236   6.834   0.379
 2653SOL     OW17957   1.560   0.544   7.815
 2653SOL    HW117958   1.569   0.450   7.782
 2653SOL    HW217959   1.645   0.573   7.858
 2654SOL     OW17960   3.497   2.823   2.595
 2654SOL    HW117961   3.442   2.788   2.671
 2654SOL    HW217962   3.470   2.779   2.510
 2655SOL     OW17963   2.212   2.921   6.981
 2655SOL    HW117964   2.289   2.973   7.019
 2655SOL    HW217965   2.221   2.915   6.881
 2656SOL     OW17966   5.235   5.033   7.386
 2656SOL    HW117967   5.208   5.058   7.479
 2656SOL    HW217968   5.159   4.989   7.338
 2657SOL     OW17969   0.195   4.195   1.133
 2657SOL    HW117970   0.226   4.101   1.118
 2657SOL    HW217971   0.108   4.210   1.087
 2658SOL     OW17972   5.472   0.749   3.183
 2658SOL    HW117973   5.384   0.754   3.137
 2658SOL    HW217974   5.465   0.786   3.276
 2659SOL     OW17975   6.923   3.077   0.608
 2659SOL    HW117976   6.870   3.048   0.688
 2659SOL    HW217977   6.911   3.010   0.534
 2660SOL     OW17978   7.391   6.688   3.307
 2660SOL    HW117979   7.410   6.598   3.268
 2660SOL    HW217980   7.378   6.681   3.406
 2661SOL     OW17981   5.255   2.908   3.559
 2661SOL    HW117982   5.329   2.967   3.592
 2661SOL    HW217983   5.220   2.941   3.472
 2662SOL     OW17984   6.379   4.273   5.586
 2662SOL    HW117985   6.460   4.255   5.642
 2662SOL    HW217986   6.299   4.287   5.644
 2663SOL     OW17987   2.452   2.472   4.462
 2663SOL    HW117988   2.386   2.401   4.439
 2663SOL    HW217989   2.539   2.454   4.417
 2664SOL     OW17990   2.650   1.230   0.530
 2664SOL    HW117991   2.737   1.204   0.573
 2664SOL    HW217992   2.598   1.288   0.593
 2665SOL     OW17993   2.708   3.426   5.211
 2665SOL    HW117994   2.784   3.387   5.159
 2665SOL    HW217995   2.707   3.525   5.199
 2666SOL     OW17996   2.236   3.207   3.162
 2666SOL    HW117997   2.258   3.114   3.191
 2666SOL    HW217998   2.147   3.234   3.199
 2667SOL     OW17999   5.553   7.016   6.341
 2667SOL    HW118000   5.484   7.014   6.414
 2667SOL    HW218001   5.638   7.055   6.377
 2668SOL     OW18002   3.099   5.734   3.171
 2668SOL    HW118003   3.159   5.747   3.092
 2668SOL    HW218004   3.154   5.715   3.253
 2669SOL     OW18005   6.512   3.807   5.878
 2669SOL    HW118006   6.590   3.749   5.854
 2669SOL    HW218007   6.464   3.835   5.796
 2670SOL     OW18008   0.415   5.916   7.839
 2670SOL    HW118009   0.342   5.847   7.839
 2670SOL    HW218010   0.446   5.932   7.746
 2671SOL     OW18011   0.745   2.184   1.594
 2671SOL    HW118012   0.810   2.246   1.548
 2671SOL    HW218013   0.775   2.169   1.688
 2672SOL     OW18014   4.615   4.553   5.858
 2672SOL    HW118015   4.528   4.529   5.814
 2672SOL    HW218016   4.616   4.650   5.881
 2673SOL     OW18017   1.645   7.598   2.716
 2673SOL    HW118018   1.566   7.594   2.654
 2673SOL    HW218019   1.672   7.505   2.743
 2674SOL     OW18020   6.432   6.111   7.462
 2674SOL    HW118021   6.396   6.109   7.368
 2674SOL    HW218022   6.358   6.132   7.526
 2675SOL     OW18023   4.659   2.842   7.401
 2675SOL    HW118024   4.652   2.862   7.303
 2675SOL    HW218025   4.654   2.744   7.416
 2676SOL     OW18026   5.701   4.280   7.197
 2676SOL    HW118027   5.782   4.321   7.157
 2676SOL    HW218028   5.624   4.344   7.190
 2677SOL     OW18029   1.484   1.413   7.575
 2677SOL    HW118030   1.431   1.328   7.572
 2677SOL    HW218031   1.452   1.476   7.504
 2678SOL     OW18032   6.714   0.661   7.205
 2678SOL    HW118033   6.688   0.752   7.173
 2678SOL    HW218034   6.686   0.592   7.138
 2679SOL     OW18035   3.319   0.485   4.209
 2679SOL    HW118036   3.392   0.543   4.172
 2679SOL    HW218037   3.344   0.455   4.301
 2680SOL     OW18038   7.286   3.759   1.204
 2680SOL    HW118039   7.347   3.759   1.124
 2680SOL    HW218040   7.332   3.801   1.282
 2681SOL     OW18041   0.965   3.247   1.488
 2681SOL    HW118042   0.946   3.209   1.579
 2681SOL    HW218043   1.039   3.195   1.445
 2682SOL     OW18044   5.096   1.335   1.533
 2682SOL    HW118045   5.128   1.331   1.628
 2682SOL    HW218046   5.044   1.419   1.518
 2683SOL     OW18047   4.943   6.022   2.220
 2683SOL    HW118048   5.015   6.043   2.286
 2683SOL    HW218049   4.856   6.008   2.267
 2684SOL     OW18050   2.495   7.686   2.458
 2684SOL    HW118051   2.440   7.697   2.375
 2684SOL    HW218052   2.450   7.733   2.534
 2685SOL     OW18053   6.727   1.154   2.343
 2685SOL    HW118054   6.659   1.155   2.417
 2685SOL    HW218055   6.818   1.169   2.382
 2686SOL     OW18056   0.292   2.939   0.679
 2686SOL    HW118057   0.199   2.959   0.709
 2686SOL    HW218058   0.350   2.920   0.758
 2687SOL     OW18059   5.068   3.464   5.700
 2687SOL    HW118060   5.120   3.435   5.780
 2687SOL    HW218061   5.106   3.423   5.618
 2688SOL     OW18062   1.716   0.646   1.351
 2688SOL    HW118063   1.635   0.587   1.350
 2688SOL    HW218064   1.769   0.631   1.268
 2689SOL     OW18065   3.400   6.960   1.690
 2689SOL    HW118066   3.339   6.994   1.618
 2689SOL    HW218067   3.473   6.905   1.651
 2690SOL     OW18068   3.967   2.654   5.458
 2690SOL    HW118069   3.957   2.753   5.452
 2690SOL    HW218070   3.984   2.627   5.553
 2691SOL     OW18071   4.677   0.058   4.009
 2691SOL    HW118072   4.669   0.112   4.093
 2691SOL    HW218073   4.625   0.103   3.936
 2692SOL     OW18074   5.826   7.588   3.736
 2692SOL    HW118075   5.858   7.496   3.710
 2692SOL    HW218076   5.780   7.583   3.825
 2693SOL     OW18077   4.252   6.291   6.710
 2693SOL    HW118078   4.340   6.252   6.734
 2693SOL    HW218079   4.190   6.288   6.788
 2694SOL     OW18080   2.698   1.043   1.684
 2694SOL    HW118081   2.678   1.134   1.646
 2694SOL    HW218082   2.682   0.973   1.614
 2695SOL     OW18083   2.193   5.898   2.636
 2695SOL    HW118084   2.094   5.891   2.622
 2695SOL    HW218085   2.213   5.939   2.725
 2696SOL     OW18086   7.136   2.901   3.532
 2696SOL    HW118087   7.051   2.851   3.512
 2696SOL    HW218088   7.168   2.879   3.624
 2697SOL     OW18089   7.039   5.148   6.916
 2697SOL    HW118090   6.972   5.108   6.854
 2697SOL    HW218091   7.131   5.134   6.881
 2698SOL     OW18092   0.874   4.196   1.579
 2698SOL    HW118093   0.903   4.105   1.548
 2698SOL    HW218094   0.858   4.194   1.677
 2699SOL     OW18095   4.666   4.059   3.337
 2699SOL    HW118096   4.646   4.146   3.293
 2699SOL    HW218097   4.743   4.069   3.400
 2700SOL     OW18098   7.761   2.136   5.716
 2700SOL    HW118099   7.695   2.086   5.772
 2700SOL    HW218100   7.770   2.094   5.626
 2701SOL     OW18101   3.427   1.112   6.220
 2701SOL    HW118102   3.366   1.033   6.230
 2701SOL    HW218103   3.419   1.171   6.301
 2702SOL     OW18104   7.689   4.744   6.597
 2702SOL    HW118105   7.604   4.761   6.547
 2702SOL    HW218106   7.670   4.737   6.695
 2703SOL     OW18107   5.391   0.446   6.402
 2703SOL    HW118108   5.476   0.476   6.445
 2703SOL    HW218109   5.320   0.433   6.471
 2704SOL     OW18110   3.696   6.317   0.960
 2704SOL    HW118111   3.650   6.230   0.980
 2704SOL    HW218112   3.661   6.356   0.875
 2705SOL     OW18113   5.328   1.637   0.612
 2705SOL    HW118114   5.303   1.544   0.582
 2705SOL    HW218115   5.248   1.682   0.652
 2706SOL     OW18116   7.690   1.662   6.789
 2706SOL    HW118117   7.682   1.597   6.713
 2706SOL    HW218118   7.669   1.617   6.875
 2707SOL     OW18119   4.988   5.161   4.140
 2707SOL    HW118120   4.921   5.191   4.072
 2707SOL    HW218121   5.005   5.063   4.130
 2708SOL     OW18122   2.184   2.806   2.854
 2708SOL    HW118123   2.131   2.836   2.774
 2708SOL    HW218124   2.140   2.728   2.897
 2709SOL     OW18125   1.799   4.709   6.703
 2709SOL    HW118126   1.743   4.746   6.628
 2709SOL    HW218127   1.804   4.775   6.778
 2710SOL     OW18128   4.091   0.066   6.130
 2710SOL    HW118129   4.172   0.103   6.085
 2710SOL    HW218130   4.113   0.034   6.222
 2711SOL     OW18131   5.242   4.940   4.108
 2711SOL    HW118132   5.171   4.951   4.038
 2711SOL    HW218133   5.302   5.020   4.108
 2712SOL     OW18134   0.956   4.575   6.885
 2712SOL    HW118135   0.971   4.530   6.796
 2712SOL    HW218136   0.968   4.509   6.959
 2713SOL     OW18137   5.553   6.914   7.750
 2713SOL    HW118138   5.609   6.941   7.672
 2713SOL    HW218139   5.595   6.838   7.798
 2714SOL     OW18140   0.578   7.455   2.455
 2714SOL    HW118141   0.671   7.460   2.491
 2714SOL    HW218142   0.574   7.496   2.364
 2715SOL     OW18143   3.895   3.019   7.268
 2715SOL    HW118144   3.974   2.957   7.264
 2715SOL    HW218145   3.921   3.109   7.233
 2716SOL     OW18146   2.153   2.396   0.798
 2716SOL    HW118147   2.087   2.329   0.765
 2716SOL    HW218148   2.125   2.430   0.888
 2717SOL     OW18149   1.941   5.256   7.940
 2717SOL    HW118150   1.852   5.302   7.939
 2717SOL    HW218151   1.954   5.205   7.856
 2718SOL     OW18152   4.455   1.763   2.805
 2718SOL    HW118153   4.526   1.829   2.778
 2718SOL    HW218154   4.393   1.806   2.871
 2719SOL     OW18155   1.657   0.806   5.068
 2719SOL    HW118156   1.724   0.732   5.077
 2719SOL    HW218157   1.583   0.793   5.134
 2720SOL     OW18158   4.701   5.793   2.231
 2720SOL    HW118159   4.727   5.837   2.318
 2720SOL    HW218160   4.725   5.853   2.155
 2721SOL     OW18161   2.596   1.090   0.782
 2721SOL    HW118162   2.644   1.176   0.804
 2721SOL    HW218163   2.546   1.101   0.696
 2722SOL     OW18164   3.951   4.395   3.070
 2722SOL    HW118165   4.046   4.420   3.052
 2722SOL    HW218166   3.889   4.452   3.016
 2723SOL     OW18167   2.528   1.659   3.829
 2723SOL    HW118168   2.491   1.568   3.808
 2723SOL    HW218169   2.626   1.662   3.808
 2724SOL     OW18170   4.230   6.488   2.798
 2724SOL    HW118171   4.150   6.451   2.750
 2724SOL    HW218172   4.205   6.514   2.891
 2725SOL     OW18173   6.729   7.799   3.408
 2725SOL    HW118174   6.782   7.733   3.353
 2725SOL    HW218175   6.726   7.770   3.503
 2726SOL     OW18176   7.590   0.316   3.933
 2726SOL    HW118177   7.492   0.332   3.928
 2726SOL    HW218178   7.638   0.401   3.956
 2727SOL     OW18179   0.648   5.819   4.572
 2727SOL    HW118180   0.651   5.918   4.564
 2727SOL    HW218181   0.652   5.791   4.668
 2728SOL     OW18182   5.025   4.443   2.048
 2728SOL    HW118183   5.120   4.464   2.025
 2728SOL    HW218184   5.021   4.401   2.139
 2729SOL     OW18185   0.683   3.103   4.636
 2729SOL    HW118186   0.653   3.199   4.636
 2729SOL    HW218187   0.751   3.088   4.564
 2730SOL     OW18188   6.465   6.589   2.493
 2730SOL    HW118189   6.539   6.622   2.435
 2730SOL    HW218190   6.454   6.490   2.481
 2731SOL     OW18191   5.591   4.378   1.245
 2731SOL    HW118192   5.605   4.371   1.146
 2731SOL    HW218193   5.500   4.347   1.270
 2732SOL     OW18194   5.618   3.594   7.745
 2732SOL    HW118195   5.615   3.682   7.698
 2732SOL    HW218196   5.547   3.589   7.815
 2733SOL     OW18197   4.424   2.008   3.650
 2733SOL    HW118198   4.361   1.931   3.647
 2733SOL    HW218199   4.387   2.081   3.707
 2734SOL     OW18200   7.801   7.888   4.245
 2734SOL    HW118201   7.729   7.956   4.256
 2734SOL    HW218202   7.769   7.814   4.185
 2735SOL     OW18203   1.592   6.346   7.958
 2735SOL    HW118204   1.615   6.287   7.880
 2735SOL    HW218205   1.496   6.371   7.955
 2736SOL     OW18206   3.257   7.720   4.872
 2736SOL    HW118207   3.316   7.663   4.815
 2736SOL    HW218208   3.189   7.663   4.919
 2737SOL     OW18209   1.635   0.679   4.447
 2737SOL    HW118210   1.664   0.692   4.542
 2737SOL    HW218211   1.708   0.708   4.385
 2738SOL     OW18212   0.678   4.988   3.345
 2738SOL    HW118213   0.604   4.923   3.328
 2738SOL    HW218214   0.671   5.024   3.438
 2739SOL     OW18215   5.814   6.582   4.682
 2739SOL    HW118216   5.862   6.664   4.650
 2739SOL    HW218217   5.796   6.588   4.780
 2740SOL     OW18218   5.514   3.692   5.529
 2740SOL    HW118219   5.485   3.601   5.499
 2740SOL    HW218220   5.562   3.739   5.455
 2741SOL     OW18221   3.911   0.813   2.700
 2741SOL    HW118222   3.859   0.746   2.647
 2741SOL    HW218223   3.884   0.906   2.673
 2742SOL     OW18224   1.481   7.645   2.113
 2742SOL    HW118225   1.556   7.675   2.053
 2742SOL    HW218226   1.410   7.600   2.059
 2743SOL     OW18227   6.318   1.508   2.758
 2743SOL    HW118228   6.265   1.562   2.824
 2743SOL    HW218229   6.258   1.469   2.689
 2744SOL     OW18230   6.784   2.593   5.675
 2744SOL    HW118231   6.834   2.515   5.638
 2744SOL    HW218232   6.763   2.577   5.772
 2745SOL     OW18233   6.678   2.086   1.421
 2745SOL    HW118234   6.676   2.166   1.481
 2745SOL    HW218235   6.767   2.080   1.375
 2746SOL     OW18236   1.381   5.231   4.560
 2746SOL    HW118237   1.416   5.159   4.500
 2746SOL    HW218238   1.309   5.194   4.620
 2747SOL     OW18239   0.284   7.784   6.203
 2747SOL    HW118240   0.220   7.809   6.275
 2747SOL    HW218241   0.234   7.748   6.124
 2748SOL     OW18242   1.595   1.097   3.482
 2748SOL    HW118243   1.633   1.171   3.537
 2748SOL    HW218244   1.528   1.134   3.418
 2749SOL     OW18245   0.761   4.963   4.030
 2749SOL    HW118246   0.722   4.887   4.082
 2749SOL    HW218247   0.860   4.950   4.020
 2750SOL     OW18248   4.434   5.724   4.504
 2750SOL    HW118249   4.420   5.636   4.550
 2750SOL    HW218250   4.356   5.745   4.445
 2751SOL     OW18251   2.415   1.943   6.994
 2751SOL    HW118252   2.512   1.947   7.016
 2751SOL    HW218253   2.368   1.879   7.055
 2752SOL     OW18254   0.290   5.895   2.193
 2752SOL    HW118255   0.337   5.869   2.108
 2752SOL    HW218256   0.296   5.821   2.260
 2753SOL     OW18257   3.700   3.596   1.144
 2753SOL    HW118258   3.629   3.565   1.081
 2753SOL    HW218259   3.670   3.680   1.190
 2754SOL     OW18260   6.298   0.106   6.390
 2754SOL    HW118261   6.284   0.194   6.343
 2754SOL    HW218262   6.376   0.113   6.452
 2755SOL     OW18263   1.910   1.253   1.727
 2755SOL    HW118264   1.876   1.162   1.754
 2755SOL    HW218265   1.912   1.261   1.628
 2756SOL     OW18266   1.310   4.508   1.197
 2756SOL    HW118267   1.336   4.600   1.229
 2756SOL    HW218268   1.302   4.507   1.098
 2757SOL     OW18269   7.966   4.141   6.228
 2757SOL    HW118270   7.918   4.225   6.255
 2757SOL    HW218271   7.969   4.077   6.305
 2758SOL     OW18272   2.314   2.330   5.701
 2758SOL    HW118273   2.332   2.303   5.796
 2758SOL    HW218274   2.400   2.348   5.654
 2759SOL     OW18275   3.318   6.865   7.221
 2759SOL    HW118276   3.357   6.777   7.196
 2759SOL    HW218277   3.223   6.854   7.251
 2760SOL     OW18278   1.777   4.620   4.446
 2760SOL    HW118279   1.816   4.536   4.485
 2760SOL    HW218280   1.814   4.635   4.354
 2761SOL     OW18281   0.461   2.546   1.886
 2761SOL    HW118282   0.528   2.481   1.921
 2761SOL    HW218283   0.445   2.619   1.952
 2762SOL     OW18284   4.887   7.213   0.144
 2762SOL    HW118285   4.935   7.249   0.224
 2762SOL    HW218286   4.855   7.288   0.087
 2763SOL     OW18287   7.810  -0.002   7.013
 2763SOL    HW118288   7.907  -0.001   7.034
 2763SOL    HW218289   7.794   0.030   6.920
 2764SOL     OW18290   1.830   7.448   1.827
 2764SOL    HW118291   1.774   7.514   1.778
 2764SOL    HW218292   1.888   7.494   1.894
 2765SOL     OW18293   2.829   7.949   6.047
 2765SOL    HW118294   2.874   7.893   6.117
 2765SOL    HW218295   2.789   7.891   5.977
 2766SOL     OW18296   2.817   4.905   6.716
 2766SOL    HW118297   2.836   4.973   6.786
 2766SOL    HW218298   2.727   4.865   6.732
 2767SOL     OW18299   5.885   4.450   2.256
 2767SOL    HW118300   5.941   4.488   2.183
 2767SOL    HW218301   5.892   4.350   2.257
 2768SOL     OW18302   2.629   3.793   0.540
 2768SOL    HW118303   2.638   3.824   0.635
 2768SOL    HW218304   2.707   3.737   0.515
 2769SOL     OW18305   2.177   4.962   6.170
 2769SOL    HW118306   2.102   4.913   6.215
 2769SOL    HW218307   2.264   4.937   6.213
 2770SOL     OW18308   4.515   2.635   4.553
 2770SOL    HW118309   4.614   2.618   4.547
 2770SOL    HW218310   4.497   2.731   4.569
 2771SOL     OW18311   2.332   5.311   7.845
 2771SOL    HW118312   2.410   5.263   7.885
 2771SOL    HW218313   2.358   5.348   7.756
 2772SOL     OW18314   7.226   7.654   5.503
 2772SOL    HW118315   7.150   7.634   5.565
 2772SOL    HW218316   7.287   7.575   5.497
 2773SOL     OW18317   5.126   7.906   5.737
 2773SOL    HW118318   5.155   8.000   5.757
 2773SOL    HW218319   5.097   7.898   5.642
 2774SOL     OW18320   4.130   0.815   7.334
 2774SOL    HW118321   4.204   0.812   7.402
 2774SOL    HW218322   4.137   0.736   7.273
 2775SOL     OW18323   6.714   7.900   6.002
 2775SOL    HW118324   6.798   7.850   5.979
 2775SOL    HW218325   6.652   7.840   6.053
 2776SOL     OW18326   1.321   7.199   0.138
 2776SOL    HW118327   1.416   7.206   0.105
 2776SOL    HW218328   1.268   7.143   0.074
 2777SOL     OW18329   2.571   4.741   5.033
 2777SOL    HW118330   2.490   4.695   4.996
 2777SOL    HW218331   2.551   4.775   5.125
 2778SOL     OW18332   7.977   3.477   4.610
 2778SOL    HW118333   7.999   3.543   4.681
 2778SOL    HW218334   7.884   3.491   4.577
 2779SOL     OW18335   4.785   6.391   5.079
 2779SOL    HW118336   4.692   6.401   5.043
 2779SOL    HW218337   4.792   6.438   5.167
 2780SOL     OW18338   6.036   4.928   7.467
 2780SOL    HW118339   6.036   5.027   7.481
 2780SOL    HW218340   5.942   4.893   7.469
 2781SOL     OW18341   1.802   1.464   5.386
 2781SOL    HW118342   1.877   1.531   5.396
 2781SOL    HW218343   1.737   1.495   5.317
 2782SOL     OW18344   1.709   6.769   3.745
 2782SOL    HW118345   1.706   6.834   3.821
 2782SOL    HW218346   1.798   6.771   3.700
 2783SOL     OW18347   2.491   0.751   3.934
 2783SOL    HW118348   2.476   0.667   3.987
 2783SOL    HW218349   2.525   0.728   3.843
 2784SOL     OW18350   4.837   5.946   0.991
 2784SOL    HW118351   4.851   5.981   1.084
 2784SOL    HW218352   4.831   6.022   0.927
 2785SOL     OW18353   4.227   7.522   1.096
 2785SOL    HW118354   4.232   7.543   0.998
 2785SOL    HW218355   4.310   7.553   1.142
 2786SOL     OW18356   3.393   1.905   6.369
 2786SOL    HW118357   3.399   1.834   6.299
 2786SOL    HW218358   3.364   1.865   6.456
 2787SOL     OW18359   1.121   4.351   0.104
 2787SOL    HW118360   1.109   4.262   0.060
 2787SOL    HW218361   1.205   4.351   0.157
 2788SOL     OW18362   3.053   5.656   7.448
 2788SOL    HW118363   3.060   5.705   7.535
 2788SOL    HW218364   3.142   5.657   7.402
 2789SOL     OW18365   6.242   0.929   6.307
 2789SOL    HW118366   6.289   0.842   6.325
 2789SOL    HW218367   6.300   0.988   6.252
 2790SOL     OW18368   2.197   5.683   6.246
 2790SOL    HW118369   2.170   5.776   6.223
 2790SOL    HW218370   2.223   5.677   6.343
 2791SOL     OW18371   0.508   6.912   4.630
 2791SOL    HW118372   0.506   6.845   4.555
 2791SOL    HW218373   0.431   6.896   4.692
 2792SOL     OW18374   3.280   4.951   5.918
 2792SOL    HW118375   3.360   4.984   5.968
 2792SOL    HW218376   3.241   5.025   5.864
 2793SOL     OW18377   1.607   7.087   2.111
 2793SOL    HW118378   1.611   6.989   2.091
 2793SOL    HW218379   1.604   7.100   2.210
 2794SOL     OW18380   4.378   3.074   7.909
 2794SOL    HW118381   4.477   3.082   7.896
 2794SOL    HW218382   4.358   3.039   8.000
 2795SOL     OW18383   2.162   6.347   7.997
 2795SOL    HW118384   2.109   6.432   8.000
 2795SOL    HW218385   2.129   6.289   7.923
 2796SOL     OW18386   3.477   6.781   4.982
 2796SOL    HW118387   3.570   6.786   5.018
 2796SOL    HW218388   3.479   6.796   4.883
 2797SOL     OW18389   4.012   7.916   3.974
 2797SOL    HW118390   3.966   8.000   3.946
 2797SOL    HW218391   4.106   7.916   3.940
 2798SOL     OW18392   2.029   0.231   2.591
 2798SOL    HW118393   1.931   0.218   2.611
 2798SOL    HW218394   2.081   0.223   2.676
 2799SOL     OW18395   5.452   6.031   2.728
 2799SOL    HW118396   5.421   6.121   2.759
 2799SOL    HW218397   5.483   6.036   2.633
 2800SOL     OW18398   1.008   3.584   0.846
 2800SOL    HW118399   0.971   3.616   0.759
 2800SOL    HW218400   0.984   3.648   0.919
 2801SOL     OW18401   1.376   5.400   0.046
 2801SOL    HW118402   1.326   5.476   0.005
 2801SOL    HW218403   1.392   5.417   0.143
 2802SOL     OW18404   7.713   4.300   3.360
 2802SOL    HW118405   7.768   4.230   3.315
 2802SOL    HW218406   7.712   4.285   3.459
 2803SOL     OW18407   6.191   0.529   1.886
 2803SOL    HW118408   6.244   0.605   1.849
 2803SOL    HW218409   6.215   0.514   1.981
 2804SOL     OW18410   1.847   4.201   0.340
 2804SOL    HW118411   1.938   4.241   0.351
 2804SOL    HW218412   1.849   4.105   0.365
 2805SOL     OW18413   1.382   2.862   7.470
 2805SOL    HW118414   1.477   2.836   7.487
 2805SOL    HW218415   1.329   2.782   7.441
 2806SOL     OW18416   0.090   2.908   3.332
 2806SOL    HW118417  -0.000   2.873   3.305
 2806SOL    HW218418   0.084   2.950   3.423
 2807SOL     OW18419   3.637   2.964   5.274
 2807SOL    HW118420   3.570   3.030   5.242
 2807SOL    HW218421   3.675   2.993   5.362
 2808SOL     OW18422   0.178   1.321   7.086
 2808SOL    HW118423   0.215   1.246   7.031
 2808SOL    HW218424   0.156   1.287   7.178
 2809SOL     OW18425   6.963   0.536   1.567
 2809SOL    HW118426   6.871   0.507   1.594
 2809SOL    HW218427   6.971   0.536   1.467
 2810SOL     OW18428   7.874   4.426   6.165
 2810SOL    HW118429   7.902   4.429   6.069
 2810SOL    HW218430   7.776   4.442   6.172
 2811SOL     OW18431   1.954   2.571   5.341
 2811SOL    HW118432   2.052   2.552   5.357
 2811SOL    HW218433   1.941   2.604   5.247
 2812SOL     OW18434   6.323   4.946   1.684
 2812SOL    HW118435   6.352   5.033   1.724
 2812SOL    HW218436   6.277   4.963   1.597
 2813SOL     OW18437   1.430   5.643   3.161
 2813SOL    HW118438   1.486   5.713   3.206
 2813SOL    HW218439   1.402   5.676   3.070
 2814SOL     OW18440   0.405   5.585   2.936
 2814SOL    HW118441   0.468   5.556   2.864
 2814SOL    HW218442   0.450   5.580   3.025
 2815SOL     OW18443   3.311   1.010   2.429
 2815SOL    HW118444   3.361   1.091   2.461
 2815SOL    HW218445   3.275   0.959   2.507
 2816SOL     OW18446   1.609   3.429   5.521
 2816SOL    HW118447   1.538   3.500   5.523
 2816SOL    HW218448   1.690   3.461   5.570
 2817SOL     OW18449   7.607   1.980   1.453
 2817SOL    HW118450   7.575   1.991   1.547
 2817SOL    HW218451   7.564   1.901   1.410
 2818SOL     OW18452   6.298   7.543   5.333
 2818SOL    HW118453   6.274   7.446   5.336
 2818SOL    HW218454   6.341   7.565   5.246
 2819SOL     OW18455   7.816   6.836   0.852
 2819SOL    HW118456   7.870   6.768   0.802
 2819SOL    HW218457   7.719   6.826   0.829
 2820SOL     OW18458   7.813   5.815   5.081
 2820SOL    HW118459   7.879   5.876   5.124
 2820SOL    HW218460   7.760   5.767   5.150
 2821SOL     OW18461   6.828   5.501   5.434
 2821SOL    HW118462   6.753   5.447   5.471
 2821SOL    HW218463   6.866   5.457   5.352
 2822SOL     OW18464   2.505   7.418   0.360
 2822SOL    HW118465   2.451   7.340   0.329
 2822SOL    HW218466   2.599   7.410   0.326
 2823SOL     OW18467   3.018   4.985   3.428
 2823SOL    HW118468   3.096   4.923   3.442
 2823SOL    HW218469   3.032   5.041   3.347
 2824SOL     OW18470   2.664   2.971   0.091
 2824SOL    HW118471   2.696   2.914   0.015
 2824SOL    HW218472   2.565   2.960   0.102
 2825SOL     OW18473   3.318   1.414   4.989
 2825SOL    HW118474   3.359   1.487   4.934
 2825SOL    HW218475   3.375   1.395   5.068
 2826SOL     OW18476   3.887   4.661   4.574
 2826SOL    HW118477   3.982   4.649   4.544
 2826SOL    HW218478   3.849   4.575   4.606
 2827SOL     OW18479   0.461   5.507   5.220
 2827SOL    HW118480   0.387   5.556   5.173
 2827SOL    HW218481   0.501   5.439   5.159
 2828SOL     OW18482   1.064   2.397   2.614
 2828SOL    HW118483   1.052   2.421   2.710
 2828SOL    HW218484   1.067   2.297   2.603
 2829SOL     OW18485   4.249   6.902   1.499
 2829SOL    HW118486   4.166   6.958   1.487
 2829SOL    HW218487   4.227   6.819   1.551
 2830SOL     OW18488   0.659   2.343   1.412
 2830SOL    HW118489   0.619   2.435   1.406
 2830SOL    HW218490   0.710   2.323   1.329
 2831SOL     OW18491   1.991   0.920   4.206
 2831SOL    HW118492   1.973   0.964   4.294
 2831SOL    HW218493   2.082   0.944   4.173
 2832SOL     OW18494   1.458   4.589   3.731
 2832SOL    HW118495   1.468   4.594   3.632
 2832SOL    HW218496   1.479   4.677   3.773
 2833SOL     OW18497   6.310   7.589   0.434
 2833SOL    HW118498   6.392   7.627   0.391
 2833SOL    HW218499   6.335   7.531   0.511
 2834SOL     OW18500   2.019   7.390   6.681
 2834SOL    HW118501   2.015   7.474   6.734
 2834SOL    HW218502   1.942   7.386   6.617
 2835SOL     OW18503   3.792   6.020   3.685
 2835SOL    HW118504   3.788   6.089   3.612
 2835SOL    HW218505   3.831   6.060   3.768
 2836SOL     OW18506   1.262   1.048   4.767
 2836SOL    HW118507   1.263   1.039   4.668
 2836SOL    HW218508   1.325   1.120   4.796
 2837SOL     OW18509   6.434   3.944   2.195
 2837SOL    HW118510   6.458   3.932   2.099
 2837SOL    HW218511   6.517   3.947   2.251
 2838SOL     OW18512   0.717   0.355   7.085
 2838SOL    HW118513   0.802   0.368   7.137
 2838SOL    HW218514   0.722   0.403   6.998
 2839SOL     OW18515   1.166   2.569   5.496
 2839SOL    HW118516   1.113   2.488   5.521
 2839SOL    HW218517   1.211   2.555   5.407
 2840SOL     OW18518   2.468   4.295   3.472
 2840SOL    HW118519   2.545   4.334   3.421
 2840SOL    HW218520   2.455   4.200   3.447
 2841SOL     OW18521   2.395   4.538   1.712
 2841SOL    HW118522   2.459   4.602   1.670
 2841SOL    HW218523   2.419   4.525   1.809
 2842SOL     OW18524   0.816   4.819   2.990
 2842SOL    HW118525   0.764   4.870   3.060
 2842SOL    HW218526   0.753   4.767   2.933
 2843SOL     OW18527   0.204   1.745   0.314
 2843SOL    HW118528   0.137   1.671   0.326
 2843SOL    HW218529   0.257   1.728   0.231
 2844SOL     OW18530   2.224   5.794   5.055
 2844SOL    HW118531   2.135   5.837   5.038
 2844SOL    HW218532   2.237   5.716   4.993
 2845SOL     OW18533   3.772   1.537   6.188
 2845SOL    HW118534   3.862   1.556   6.149
 2845SOL    HW218535   3.770   1.444   6.225
 2846SOL     OW18536   4.525   1.287   5.555
 2846SOL    HW118537   4.491   1.207   5.506
 2846SOL    HW218538   4.504   1.278   5.653
 2847SOL     OW18539   2.394   0.769   2.989
 2847SOL    HW118540   2.296   0.775   3.007
 2847SOL    HW218541   2.413   0.798   2.895
 2848SOL     OW18542   4.103   4.896   3.233
 2848SOL    HW118543   4.152   4.975   3.197
 2848SOL    HW218544   4.024   4.876   3.175
 2849SOL     OW18545   1.441   7.436   0.276
 2849SOL    HW118546   1.404   7.524   0.308
 2849SOL    HW218547   1.388   7.404   0.197
 2850SOL     OW18548   0.521   4.546   1.791
 2850SOL    HW118549   0.524   4.608   1.712
 2850SOL    HW218550   0.470   4.588   1.865
 2851SOL     OW18551   5.822   6.703   6.054
 2851SOL    HW118552   5.876   6.779   6.017
 2851SOL    HW218553   5.854   6.680   6.146
 2852SOL     OW18554   5.036   7.124   4.397
 2852SOL    HW118555   5.120   7.098   4.445
 2852SOL    HW218556   5.046   7.213   4.354
 2853SOL     OW18557   1.959   1.048   3.278
 2853SOL    HW118558   1.959   0.948   3.282
 2853SOL    HW218559   1.987   1.078   3.187
 2854SOL     OW18560   6.717   0.897   2.432
 2854SOL    HW118561   6.746   0.808   2.466
 2854SOL    HW218562   6.758   0.915   2.343
 2855SOL     OW18563   1.622   1.813   3.251
 2855SOL    HW118564   1.581   1.903   3.266
 2855SOL    HW218565   1.578   1.767   3.174
 2856SOL     OW18566   3.148   2.552   3.752
 2856SOL    HW118567   3.139   2.474   3.813
 2856SOL    HW218568   3.062   2.567   3.703
 2857SOL     OW18569   3.442   7.125   0.749
 2857SOL    HW118570   3.363   7.072   0.780
 2857SOL    HW218571   3.498   7.152   0.828
 2858SOL     OW18572   3.359   0.116   3.474
 2858SOL    HW118573   3.332   0.059   3.552
 2858SOL    HW218574   3.452   0.150   3.488
 2859SOL     OW18575   1.421   2.465   4.258
 2859SOL    HW118576   1.407   2.399   4.184
 2859SOL    HW218577   1.402   2.421   4.346
 2860SOL     OW18578   2.162   2.696   4.918
 2860SOL    HW118579   2.105   2.677   4.998
 2860SOL    HW218580   2.245   2.639   4.921
 2861SOL     OW18581   5.933   1.884   3.115
 2861SOL    HW118582   5.844   1.930   3.117
 2861SOL    HW218583   5.992   1.923   3.185
 2862SOL     OW18584   5.174   3.305   1.734
 2862SOL    HW118585   5.093   3.314   1.791
 2862SOL    HW218586   5.255   3.293   1.792
 2863SOL     OW18587   3.811   4.472   0.662
 2863SOL    HW118588   3.838   4.450   0.755
 2863SOL    HW218589   3.771   4.392   0.618
 2864SOL     OW18590   2.275   0.925   3.217
 2864SOL    HW118591   2.346   0.856   3.205
 2864SOL    HW218592   2.255   0.938   3.314
 2865SOL     OW18593   3.210   1.615   1.830
 2865SOL    HW118594   3.300   1.633   1.790
 2865SOL    HW218595   3.163   1.544   1.778
 2866SOL     OW18596   6.231   6.675   4.972
 2866SOL    HW118597   6.320   6.632   4.959
 2866SOL    HW218598   6.220   6.702   5.068
 2867SOL     OW18599   4.103   0.004   4.619
 2867SOL    HW118600   4.061   0.029   4.706
 2867SOL    HW218601   4.188   0.055   4.605
 2868SOL     OW18602   5.196   5.922   2.547
 2868SOL    HW118603   5.269   5.949   2.609
 2868SOL    HW218604   5.168   5.828   2.566
 2869SOL     OW18605   6.174   2.383   0.858
 2869SOL    HW118606   6.155   2.292   0.894
 2869SOL    HW218607   6.208   2.442   0.930
 2870SOL     OW18608   3.716   5.950   3.440
 2870SOL    HW118609   3.801   5.898   3.443
 2870SOL    HW218610   3.659   5.927   3.520
 2871SOL     OW18611   1.199   2.306   7.909
 2871SOL    HW118612   1.130   2.369   7.873
 2871SOL    HW218613   1.228   2.336   8.000
 2872SOL     OW18614   4.142   1.501   6.142
 2872SOL    HW118615   4.068   1.521   6.077
 2872SOL    HW218616   4.228   1.538   6.107
 2873SOL     OW18617   3.319   5.531   7.682
 2873SOL    HW118618   3.221   5.545   7.668
 2873SOL    HW218619   3.340   5.523   7.779
 2874SOL     OW18620   7.019   5.314   7.200
 2874SOL    HW118621   7.038   5.292   7.104
 2874SOL    HW218622   6.950   5.252   7.236
 2875SOL     OW18623   3.217   4.031   7.115
 2875SOL    HW118624   3.285   3.970   7.155
 2875SOL    HW218625   3.253   4.073   7.032
 2876SOL     OW18626   2.477   6.874   1.972
 2876SOL    HW118627   2.383   6.872   1.940
 2876SOL    HW218628   2.481   6.911   2.065
 2877SOL     OW18629   4.841   3.289   7.880
 2877SOL    HW118630   4.877   3.238   7.959
 2877SOL    HW218631   4.887   3.260   7.797
 2878SOL     OW18632   7.221   5.386   3.038
 2878SOL    HW118633   7.319   5.365   3.043
 2878SOL    HW218634   7.173   5.339   3.112
 2879SOL     OW18635   2.644   1.067   2.271
 2879SOL    HW118636   2.570   1.036   2.332
 2879SOL    HW218637   2.632   1.026   2.181
 2880SOL     OW18638   5.278   7.830   1.889
 2880SOL    HW118639   5.312   7.778   1.810
 2880SOL    HW218640   5.336   7.813   1.968
 2881SOL     OW18641   2.450   0.429   4.099
 2881SOL    HW118642   2.382   0.358   4.118
 2881SOL    HW218643   2.538   0.386   4.077
 2882SOL     OW18644   4.151   2.253   6.677
 2882SOL    HW118645   4.224   2.208   6.730
 2882SOL    HW218646   4.190   2.300   6.598
 2883SOL     OW18647   1.189   6.266   2.970
 2883SOL    HW118648   1.235   6.254   2.882
 2883SOL    HW218649   1.114   6.201   2.978
 2884SOL     OW18650   3.453   3.412   3.138
 2884SOL    HW118651   3.487   3.461   3.218
 2884SOL    HW218652   3.456   3.471   3.058
 2885SOL     OW18653   4.148   7.092   4.471
 2885SOL    HW118654   4.163   7.178   4.521
 2885SOL    HW218655   4.216   7.024   4.499
 2886SOL     OW18656   5.438   4.513   3.195
 2886SOL    HW118657   5.381   4.519   3.277
 2886SOL    HW218658   5.411   4.433   3.141
 2887SOL     OW18659   6.711   3.111   4.248
 2887SOL    HW118660   6.809   3.115   4.267
 2887SOL    HW218661   6.691   3.158   4.161
 2888SOL     OW18662   1.981   6.457   5.958
 2888SOL    HW118663   2.019   6.546   5.982
 2888SOL    HW218664   1.930   6.463   5.872
 2889SOL     OW18665   6.609   7.345   6.469
 2889SOL    HW118666   6.658   7.329   6.554
 2889SOL    HW218667   6.554   7.429   6.477
 2890SOL     OW18668   4.284   0.607   3.272
 2890SOL    HW118669   4.215   0.676   3.252
 2890SOL    HW218670   4.292   0.594   3.371
 2891SOL     OW18671   3.614   1.512   7.920
 2891SOL    HW118672   3.603   1.584   7.990
 2891SOL    HW218673   3.534   1.453   7.920
 2892SOL     OW18674   7.210   6.836   6.178
 2892SOL    HW118675   7.119   6.819   6.217
 2892SOL    HW218676   7.215   6.797   6.086
 2893SOL     OW18677   4.734   6.239   3.473
 2893SOL    HW118678   4.722   6.313   3.408
 2893SOL    HW218679   4.736   6.275   3.566
 2894SOL     OW18680   6.554   7.687   1.025
 2894SOL    HW118681   6.630   7.628   1.051
 2894SOL    HW218682   6.498   7.642   0.955
 2895SOL     OW18683   7.184   1.447   7.870
 2895SOL    HW118684   7.092   1.482   7.856
 2895SOL    HW218685   7.191   1.354   7.833
 2896SOL     OW18686   7.638   5.522   2.035
 2896SOL    HW118687   7.558   5.478   1.992
 2896SOL    HW218688   7.721   5.496   1.986
 2897SOL     OW18689   7.202   5.681   7.762
 2897SOL    HW118690   7.162   5.773   7.763
 2897SOL    HW218691   7.132   5.613   7.785
 2898SOL     OW18692   7.177   2.762   2.148
 2898SOL    HW118693   7.235   2.694   2.193
 2898SOL    HW218694   7.132   2.722   2.068
 2899SOL     OW18695   5.822   1.339   2.183
 2899SOL    HW118696   5.868   1.294   2.259
 2899SOL    HW218697   5.848   1.296   2.097
 2900SOL     OW18698   2.005   0.722   5.553
 2900SOL    HW118699   1.954   0.805   5.529
 2900SOL    HW218700   2.039   0.729   5.647
 2901SOL     OW18701   1.712   3.263   3.901
 2901SOL    HW118702   1.656   3.180   3.908
 2901SOL    HW218703   1.692   3.323   3.978
 2902SOL     OW18704   5.027   4.027   0.647
 2902SOL    HW118705   5.048   3.936   0.612
 2902SOL    HW218706   4.990   4.020   0.740
 2903SOL     OW18707   3.270   6.520   6.276
 2903SOL    HW118708   3.349   6.564   6.317
 2903SOL    HW218709   3.298   6.463   6.199
 2904SOL     OW18710   1.503   5.125   2.980
 2904SOL    HW118711   1.564   5.051   3.008
 2904SOL    HW218712   1.554   5.195   2.931
 2905SOL     OW18713   0.883   1.604   6.483
 2905SOL    HW118714   0.843   1.512   6.493
 2905SOL    HW218715   0.977   1.597   6.451
 2906SOL     OW18716   6.298   5.569   0.815
 2906SOL    HW118717   6.284   5.662   0.782
 2906SOL    HW218718   6.250   5.504   0.756
 2907SOL     OW18719   2.321   3.214   2.469
 2907SOL    HW118720   2.290   3.294   2.418
 2907SOL    HW218721   2.392   3.166   2.417
 2908SOL     OW18722   2.547   1.652   1.880
 2908SOL    HW118723   2.597   1.565   1.881
 2908SOL    HW218724   2.483   1.656   1.956
 2909SOL     OW18725   6.114   6.878   7.600
 2909SOL    HW118726   6.204   6.901   7.564
 2909SOL    HW218727   6.081   6.793   7.560
 2910SOL     OW18728   2.484   3.491   5.176
 2910SOL    HW118729   2.415   3.489   5.103
 2910SOL    HW218730   2.450   3.546   5.253
 2911SOL     OW18731   5.534   3.942   5.033
 2911SOL    HW118732   5.484   4.017   5.076
 2911SOL    HW218733   5.492   3.920   4.944
 2912SOL     OW18734   7.250   6.205   5.251
 2912SOL    HW118735   7.332   6.217   5.308
 2912SOL    HW218736   7.269   6.237   5.159
 2913SOL     OW18737   7.452   0.684   6.853
 2913SOL    HW118738   7.372   0.732   6.890
 2913SOL    HW218739   7.428   0.636   6.769
 2914SOL     OW18740   0.911   2.384   4.569
 2914SOL    HW118741   0.940   2.478   4.556
 2914SOL    HW218742   0.955   2.346   4.651
 2915SOL     OW18743   7.310   7.945   2.326
 2915SOL    HW118744   7.366   7.872   2.288
 2915SOL    HW218745   7.215   7.914   2.336
 2916SOL     OW18746   0.672   4.845   2.477
 2916SOL    HW118747   0.700   4.907   2.404
 2916SOL    HW218748   0.644   4.897   2.558
 2917SOL     OW18749   0.075   1.173   6.174
 2917SOL    HW118750   0.113   1.264   6.156
 2917SOL    HW218751   0.121   1.133   6.253
 2918SOL     OW18752   0.361   6.151   4.577
 2918SOL    HW118753   0.434   6.107   4.525
 2918SOL    HW218754   0.272   6.114   4.550
 2919SOL     OW18755   6.313   1.401   0.704
 2919SOL    HW118756   6.307   1.455   0.620
 2919SOL    HW218757   6.307   1.461   0.784
 2920SOL     OW18758   3.231   3.816   1.174
 2920SOL    HW118759   3.141   3.781   1.147
 2920SOL    HW218760   3.230   3.847   1.268
 2921SOL     OW18761   0.668   1.080   7.882
 2921SOL    HW118762   0.725   0.999   7.896
 2921SOL    HW218763   0.680   1.115   7.789
 2922SOL     OW18764   2.259   0.445   7.734
 2922SOL    HW118765   2.167   0.417   7.760
 2922SOL    HW218766   2.272   0.436   7.635
 2923SOL     OW18767   2.961   3.578   3.552
 2923SOL    HW118768   2.955   3.616   3.644
 2923SOL    HW218769   2.941   3.648   3.484
 2924SOL     OW18770   7.309   1.465   7.029
 2924SOL    HW118771   7.267   1.411   7.102
 2924SOL    HW218772   7.304   1.416   6.942
 2925SOL     OW18773   4.800   2.905   2.085
 2925SOL    HW118774   4.740   2.968   2.036
 2925SOL    HW218775   4.867   2.866   2.023
 2926SOL     OW18776   7.889   1.431   5.773
 2926SOL    HW118777   7.888   1.338   5.810
 2926SOL    HW218778   7.929   1.430   5.681
 2927SOL     OW18779   0.936   1.713   6.193
 2927SOL    HW118780   0.915   1.622   6.155
 2927SOL    HW218781   0.899   1.720   6.285
 2928SOL     OW18782   1.947   3.331   3.366
 2928SOL    HW118783   2.011   3.400   3.402
 2928SOL    HW218784   1.954   3.327   3.267
 2929SOL     OW18785   6.208   6.964   6.314
 2929SOL    HW118786   6.152   6.934   6.391
 2929SOL    HW218787   6.202   6.899   6.239
 2930SOL     OW18788   0.294   6.726   2.323
 2930SOL    HW118789   0.385   6.736   2.281
 2930SOL    HW218790   0.304   6.707   2.420
 2931SOL     OW18791   6.569   1.528   1.008
 2931SOL    HW118792   6.628   1.597   1.051
 2931SOL    HW218793   6.551   1.554   0.914
 2932SOL     OW18794   0.624   0.742   7.303
 2932SOL    HW118795   0.613   0.831   7.348
 2932SOL    HW218796   0.579   0.743   7.214
 2933SOL     OW18797   0.198   3.606   6.896
 2933SOL    HW118798   0.112   3.578   6.853
 2933SOL    HW218799   0.200   3.577   6.991
 2934SOL     OW18800   5.730   4.865   4.442
 2934SOL    HW118801   5.644   4.832   4.482
 2934SOL    HW218802   5.714   4.951   4.394
 2935SOL     OW18803   5.907   7.816   1.734
 2935SOL    HW118804   5.906   7.906   1.690
 2935SOL    HW218805   5.831   7.760   1.701
 2936SOL     OW18806   0.555   1.752   5.385
 2936SOL    HW118807   0.654   1.735   5.386
 2936SOL    HW218808   0.508   1.679   5.435
 2937SOL     OW18809   0.988   4.251   7.291
 2937SOL    HW118810   0.893   4.274   7.273
 2937SOL    HW218811   1.012   4.274   7.385
 2938SOL     OW18812   1.265   3.931   4.989
 2938SOL    HW118813   1.181   3.967   5.030
 2938SOL    HW218814   1.269   3.958   4.893
 2939SOL     OW18815   0.659   1.470   6.660
 2939SOL    HW118816   0.712   1.555   6.665
 2939SOL    HW218817   0.579   1.483   6.602
 2940SOL     OW18818   7.624   6.466   0.991
 2940SOL    HW118819   7.526   6.457   0.974
 2940SOL    HW218820   7.640   6.518   1.075
 2941SOL     OW18821   4.051   5.009   4.996
 2941SOL    HW118822   3.976   5.011   4.930
 2941SOL    HW218823   4.089   4.917   5.002
 2942SOL     OW18824   4.672   5.975   0.385
 2942SOL    HW118825   4.709   5.992   0.293
 2942SOL    HW218826   4.718   5.896   0.425
 2943SOL     OW18827   1.161   0.451   3.920
 2943SOL    HW118828   1.105   0.369   3.907
 2943SOL    HW218829   1.119   0.511   3.988
 2944SOL     OW18830   2.028   4.754   1.987
 2944SOL    HW118831   2.078   4.830   2.030
 2944SOL    HW218832   1.970   4.789   1.913
 2945SOL     OW18833   1.085   6.660   1.566
 2945SOL    HW118834   1.181   6.652   1.590
 2945SOL    HW218835   1.076   6.688   1.470
 2946SOL     OW18836   7.519   2.628   6.432
 2946SOL    HW118837   7.497   2.700   6.366
 2946SOL    HW218838   7.435   2.591   6.472
 2947SOL     OW18839   0.084   0.761   7.797
 2947SOL    HW118840   0.096   0.728   7.891
 2947SOL    HW218841   0.105   0.858   7.793
 2948SOL     OW18842   2.645   0.174   4.402
 2948SOL    HW118843   2.584   0.151   4.326
 2948SOL    HW218844   2.608   0.251   4.454
 2949SOL     OW18845   4.453   1.756   4.775
 2949SOL    HW118846   4.536   1.710   4.743
 2949SOL    HW218847   4.444   1.845   4.731
 2950SOL     OW18848   7.433   5.089   3.175
 2950SOL    HW118849   7.437   5.171   3.118
 2950SOL    HW218850   7.523   5.072   3.216
 2951SOL     OW18851   6.541   1.313   1.847
 2951SOL    HW118852   6.520   1.388   1.909
 2951SOL    HW218853   6.634   1.280   1.864
 2952SOL     OW18854   0.571   4.947   7.801
 2952SOL    HW118855   0.669   4.933   7.786
 2952SOL    HW218856   0.543   4.904   7.887
 2953SOL     OW18857   5.134   5.725   2.090
 2953SOL    HW118858   5.186   5.781   2.155
 2953SOL    HW218859   5.039   5.719   2.119
 2954SOL     OW18860   7.879   6.494   6.870
 2954SOL    HW118861   7.832   6.526   6.788
 2954SOL    HW218862   7.856   6.398   6.886
 2955SOL     OW18863   3.896   5.341   5.225
 2955SOL    HW118864   3.959   5.342   5.147
 2955SOL    HW218865   3.943   5.373   5.307
 2956SOL     OW18866   2.124   7.984   0.072
 2956SOL    HW118867   2.066   7.946  -0.000
 2956SOL    HW218868   2.101   7.941   0.160
 2957SOL     OW18869   2.043   5.766   7.083
 2957SOL    HW118870   2.053   5.846   7.142
 2957SOL    HW218871   2.093   5.780   6.998
 2958SOL     OW18872   1.512   5.922   1.384
 2958SOL    HW118873   1.610   5.912   1.368
 2958SOL    HW218874   1.479   6.008   1.346
 2959SOL     OW18875   2.353   2.721   1.478
 2959SOL    HW118876   2.395   2.638   1.514
 2959SOL    HW218877   2.269   2.699   1.428
 2960SOL     OW18878   0.070   5.738   1.414
 2960SOL    HW118879  -0.000   5.805   1.436
 2960SOL    HW218880   0.032   5.666   1.356
 2961SOL     OW18881   3.781   4.371   3.792
 2961SOL    HW118882   3.859   4.385   3.731
 2961SOL    HW218883   3.811   4.327   3.877
 2962SOL     OW18884   0.590   2.419   6.780
 2962SOL    HW118885   0.502   2.399   6.738
 2962SOL    HW218886   0.576   2.461   6.870
 2963SOL     OW18887   2.306   7.660   1.320
 2963SOL    HW118888   2.285   7.757   1.325
 2963SOL    HW218889   2.371   7.635   1.392
 2964SOL     OW18890   4.890   7.309   3.338
 2964SOL    HW118891   4.888   7.409   3.343
 2964SOL    HW218892   4.971   7.275   3.386
 2965SOL     OW18893   6.085   3.839   6.077
 2965SOL    HW118894   5.987   3.843   6.096
 2965SOL    HW218895   6.103   3.768   6.009
 2966SOL     OW18896   2.295   0.175   1.820
 2966SOL    HW118897   2.215   0.115   1.815
 2966SOL    HW218898   2.320   0.190   1.916
 2967SOL     OW18899   5.132   3.909   2.796
 2967SOL    HW118900   5.199   3.856   2.745
 2967SOL    HW218901   5.103   3.988   2.743
 2968SOL     OW18902   4.220   4.653   2.526
 2968SOL    HW118903   4.297   4.633   2.587
 2968SOL    HW218904   4.135   4.653   2.578
 2969SOL     OW18905   4.867   5.484   1.959
 2969SOL    HW118906   4.905   5.568   1.998
 2969SOL    HW218907   4.846   5.419   2.032
 2970SOL     OW18908   3.833   6.393   6.125
 2970SOL    HW118909   3.846   6.338   6.042
 2970SOL    HW218910   3.795   6.482   6.102
 2971SOL     OW18911   5.957   3.756   7.005
 2971SOL    HW118912   5.905   3.829   6.960
 2971SOL    HW218913   5.897   3.679   7.026
 2972SOL     OW18914   7.014   2.253   2.592
 2972SOL    HW118915   7.064   2.284   2.511
 2972SOL    HW218916   7.077   2.207   2.655
 2973SOL     OW18917   6.379   1.658   7.344
 2973SOL    HW118918   6.400   1.570   7.386
 2973SOL    HW218919   6.335   1.718   7.411
 2974SOL     OW18920   5.599   5.396   6.317
 2974SOL    HW118921   5.689   5.353   6.329
 2974SOL    HW218922   5.574   5.446   6.400
 2975SOL     OW18923   6.784   2.088   4.996
 2975SOL    HW118924   6.871   2.046   4.968
 2975SOL    HW218925   6.767   2.069   5.092
 2976SOL     OW18926   4.741   0.701   6.831
 2976SOL    HW118927   4.793   0.714   6.915
 2976SOL    HW218928   4.683   0.780   6.814
 2977SOL     OW18929   5.519   5.551   6.933
 2977SOL    HW118930   5.514   5.649   6.914
 2977SOL    HW218931   5.511   5.499   6.848
 2978SOL     OW18932   5.596   0.537   4.064
 2978SOL    HW118933   5.632   0.450   4.097
 2978SOL    HW218934   5.614   0.547   3.967
 2979SOL     OW18935   1.310   1.230  -0.000
 2979SOL    HW118936   1.280   1.136   0.016
 2979SOL    HW218937   1.394   1.249   0.050
 2980SOL     OW18938   5.787   4.185   3.345
 2980SOL    HW118939   5.690   4.160   3.347
 2980SOL    HW218940   5.836   4.139   3.419
 2981SOL     OW18941   0.827   2.105   7.333
 2981SOL    HW118942   0.744   2.139   7.378
 2981SOL    HW218943   0.817   2.112   7.234
 2982SOL     OW18944   0.072   0.228   1.266
 2982SOL    HW118945  -0.000   0.241   1.335
 2982SOL    HW218946   0.158   0.266   1.299
 2983SOL     OW18947   6.094   6.699   6.944
 2983SOL    HW118948   6.155   6.736   6.874
 2983SOL    HW218949   6.129   6.612   6.978
 2984SOL     OW18950   5.930   7.546   5.240
 2984SOL    HW118951   5.994   7.591   5.177
 2984SOL    HW218952   5.971   7.539   5.331
 2985SOL     OW18953   5.561   5.224   0.754
 2985SOL    HW118954   5.643   5.280   0.739
 2985SOL    HW218955   5.585   5.127   0.752
 2986SOL     OW18956   1.399   4.771   6.169
 2986SOL    HW118957   1.306   4.797   6.141
 2986SOL    HW218958   1.449   4.735   6.090
 2987SOL     OW18959   5.775   0.574   6.699
 2987SOL    HW118960   5.695   0.619   6.658
 2987SOL    HW218961   5.797   0.616   6.787
 2988SOL     OW18962   0.523   1.086  -0.000
 2988SOL    HW118963   0.561   1.097   0.092
 2988SOL    HW218964   0.423   1.090   0.004
 2989SOL     OW18965   0.586   0.184   7.648
 2989SOL    HW118966   0.564   0.094   7.685
 2989SOL    HW218967   0.623   0.176   7.556
 2990SOL     OW18968   0.740   5.510   7.678
 2990SOL    HW118969   0.746   5.410   7.681
 2990SOL    HW218970   0.778   5.544   7.592
 2991SOL     OW18971   0.812   4.258   0.325
 2991SOL    HW118972   0.748   4.191   0.287
 2991SOL    HW218973   0.782   4.286   0.417
 2992SOL     OW18974   2.239   2.668   3.110
 2992SOL    HW118975   2.257   2.576   3.075
 2992SOL    HW218976   2.140   2.684   3.114
 2993SOL     OW18977   7.347   7.958   7.535
 2993SOL    HW118978   7.423   7.987   7.593
 2993SOL    HW218979   7.365   7.983   7.440
 2994SOL     OW18980   3.889   1.752   1.428
 2994SOL    HW118981   3.933   1.716   1.345
 2994SOL    HW218982   3.917   1.699   1.508
 2995SOL     OW18983   7.170   5.102   7.435
 2995SOL    HW118984   7.159   5.199   7.411
 2995SOL    HW218985   7.265   5.084   7.461
 2996SOL     OW18986   2.999   5.140   4.842
 2996SOL    HW118987   3.017   5.118   4.938
 2996SOL    HW218988   2.901   5.136   4.824
 2997SOL     OW18989   7.324   4.146   3.460
 2997SOL    HW118990   7.364   4.057   3.437
 2997SOL    HW218991   7.393   4.206   3.500
 2998SOL     OW18992   6.687   3.399   6.515
 2998SOL    HW118993   6.640   3.409   6.427
 2998SOL    HW218994   6.628   3.350   6.580
 2999SOL     OW18995   1.982   2.750   1.926
 2999SOL    HW118996   1.896   2.738   1.876
 2999SOL    HW218997   2.034   2.664   1.924
 3000SOL     OW18998   1.338   7.502   5.206
 3000SOL    HW118999   1.319   7.597   5.182
 3000SOL    HW219000   1.253   7.455   5.233
 3001SOL     OW19001   5.929   4.934   6.407
 3001SOL    HW119002   5.922   5.013   6.346
 3001SOL    HW219003   5.994   4.953   6.480
 3002SOL     OW19004   7.771   3.823   6.216
 3002SOL    HW119005   7.861   3.831   6.174
 3002SOL    HW219006   7.776   3.767   6.298
 3003SOL     OW19007   4.546   2.786   2.580
 3003SOL    HW119008   4.468   2.828   2.534
 3003SOL    HW219009   4.600   2.856   2.626
 3004SOL     OW19010   6.376   4.469   2.065
 3004SOL    HW119011   6.326   4.545   2.106
 3004SOL    HW219012   6.344   4.453   1.972
 3005SOL     OW19013   2.802   2.184   0.956
 3005SOL    HW119014   2.869   2.256   0.938
 3005SOL    HW219015   2.777   2.139   0.870
 3006SOL     OW19016   1.878   2.168   4.848
 3006SOL    HW119017   1.925   2.088   4.811
 3006SOL    HW219018   1.807   2.140   4.912
 3007SOL     OW19019   3.404   0.504   7.895
 3007SOL    HW119020   3.330   0.545   7.842
 3007SOL    HW219021   3.464   0.452   7.834
 3008SOL     OW19022   5.039   4.230   1.530
 3008SOL    HW119023   5.036   4.328   1.508
 3008SOL    HW219024   4.955   4.187   1.498
 3009SOL     OW19025   5.264   7.006   6.418
 3009SOL    HW119026   5.229   6.971   6.331
 3009SOL    HW219027   5.218   6.962   6.495
 3010SOL     OW19028   2.448   4.190   3.812
 3010SOL    HW119029   2.352   4.182   3.841
 3010SOL    HW219030   2.495   4.257   3.870
 3011SOL     OW19031   4.544   4.386   3.165
 3011SOL    HW119032   4.488   4.463   3.133
 3011SOL    HW219033   4.545   4.383   3.264
 3012SOL     OW19034   4.646   6.738   7.612
 3012SOL    HW119035   4.653   6.643   7.643
 3012SOL    HW219036   4.727   6.762   7.560
 3013SOL     OW19037   4.526   0.124   4.409
 3013SOL    HW119038   4.574   0.137   4.496
 3013SOL    HW219039   4.582   0.157   4.333
 3014SOL     OW19040   5.274   7.611   2.402
 3014SOL    HW119041   5.367   7.608   2.365
 3014SOL    HW219042   5.273   7.575   2.495
 3015SOL     OW19043   1.955   4.767   4.603
 3015SOL    HW119044   1.914   4.845   4.556
 3015SOL    HW219045   2.037   4.796   4.653
 3016SOL     OW19046   4.705   0.460   4.618
 3016SOL    HW119047   4.640   0.440   4.545
 3016SOL    HW219048   4.770   0.530   4.588
 3017SOL     OW19049   4.005   1.918   5.277
 3017SOL    HW119050   4.070   1.860   5.228
 3017SOL    HW219051   4.010   1.899   5.375
 3018SOL     OW19052   3.495   4.218   7.785
 3018SOL    HW119053   3.589   4.184   7.795
 3018SOL    HW219054   3.486   4.269   7.699
 3019SOL     OW19055   3.399   1.830   1.799
 3019SOL    HW119056   3.462   1.898   1.760
 3019SOL    HW219057   3.412   1.824   1.898
 3020SOL     OW19058   6.827   7.401   5.348
 3020SOL    HW119059   6.791   7.477   5.402
 3020SOL    HW219060   6.752   7.355   5.301
 3021SOL     OW19061   5.551   4.086   4.369
 3021SOL    HW119062   5.528   4.177   4.405
 3021SOL    HW219063   5.509   4.073   4.280
 3022SOL     OW19064   1.061   0.216   3.526
 3022SOL    HW119065   1.135   0.159   3.563
 3022SOL    HW219066   1.079   0.239   3.431
 3023SOL     OW19067   0.489   1.531   4.983
 3023SOL    HW119068   0.532   1.457   5.035
 3023SOL    HW219069   0.430   1.492   4.912
 3024SOL     OW19070   5.099   4.549   2.861
 3024SOL    HW119071   5.187   4.548   2.908
 3024SOL    HW219072   5.096   4.626   2.797
 3025SOL     OW19073   3.691   5.457   3.230
 3025SOL    HW119074   3.706   5.365   3.265
 3025SOL    HW219075   3.727   5.465   3.138
 3026SOL     OW19076   3.820   4.681   3.321
 3026SOL    HW119077   3.893   4.666   3.388
 3026SOL    HW219078   3.797   4.595   3.276
 3027SOL     OW19079   4.718   5.012   4.817
 3027SOL    HW119080   4.633   5.049   4.853
 3027SOL    HW219081   4.722   4.913   4.833
 3028SOL     OW19082   6.250   3.814   3.562
 3028SOL    HW119083   6.335   3.779   3.523
 3028SOL    HW219084   6.240   3.784   3.657
 3029SOL     OW19085   7.258   7.506   0.805
 3029SOL    HW119086   7.316   7.432   0.841
 3029SOL    HW219087   7.293   7.536   0.716
 3030SOL     OW19088   7.461   4.667   0.092
 3030SOL    HW119089   7.423   4.583   0.053
 3030SOL    HW219090   7.390   4.717   0.141
 3031SOL     OW19091   4.319   7.127   6.334
 3031SOL    HW119092   4.274   7.207   6.295
 3031SOL    HW219093   4.384   7.089   6.268
 3032SOL     OW19094   3.323   3.124   6.318
 3032SOL    HW119095   3.224   3.133   6.325
 3032SOL    HW219096   3.359   3.078   6.399
 3033SOL     OW19097   1.743   6.235   2.238
 3033SOL    HW119098   1.739   6.136   2.251
 3033SOL    HW219099   1.652   6.271   2.218
 3034SOL     OW19100   6.649   2.179   5.838
 3034SOL    HW119101   6.595   2.126   5.772
 3034SOL    HW219102   6.725   2.123   5.873
 3035SOL     OW19103   5.561   5.155   4.355
 3035SOL    HW119104   5.487   5.149   4.288
 3035SOL    HW219105   5.559   5.244   4.401
 3036SOL     OW19106   3.096   0.650   2.076
 3036SOL    HW119107   3.125   0.598   1.996
 3036SOL    HW219108   3.136   0.742   2.073
 3037SOL     OW19109   2.398   3.150   1.089
 3037SOL    HW119110   2.362   3.186   1.003
 3037SOL    HW219111   2.453   3.069   1.071
 3038SOL     OW19112   4.899   0.891   1.824
 3038SOL    HW119113   4.957   0.899   1.742
 3038SOL    HW219114   4.870   0.982   1.854
 3039SOL     OW19115   1.705   7.702   4.787
 3039SOL    HW119116   1.756   7.779   4.747
 3039SOL    HW219117   1.732   7.690   4.882
 3040SOL     OW19118   0.947   4.919   3.728
 3040SOL    HW119119   0.961   5.018   3.730
 3040SOL    HW219120   0.902   4.890   3.813
 3041SOL     OW19121   5.821   2.898   5.783
 3041SOL    HW119122   5.827   2.978   5.723
 3041SOL    HW219123   5.733   2.852   5.770
 3042SOL     OW19124   6.369   5.834   5.940
 3042SOL    HW119125   6.368   5.760   5.872
 3042SOL    HW219126   6.317   5.806   6.020
 3043SOL     OW19127   1.135   2.690   5.154
 3043SOL    HW119128   1.130   2.748   5.236
 3043SOL    HW219129   1.076   2.727   5.082
 3044SOL     OW19130   2.787   7.052   6.974
 3044SOL    HW119131   2.884   7.029   6.964
 3044SOL    HW219132   2.730   6.975   6.947
 3045SOL     OW19133   3.237   1.555   3.047
 3045SOL    HW119134   3.307   1.605   3.098
 3045SOL    HW219135   3.234   1.588   2.952
 3046SOL     OW19136   2.857   1.487   1.565
 3046SOL    HW119137   2.899   1.542   1.493
 3046SOL    HW219138   2.763   1.465   1.540
 3047SOL     OW19139   1.752   0.537   4.728
 3047SOL    HW119140   1.786   0.451   4.765
 3047SOL    HW219141   1.809   0.566   4.651
 3048SOL     OW19142   1.906   3.009   5.279
 3048SOL    HW119143   1.866   3.033   5.367
 3048SOL    HW219144   1.885   2.913   5.257
 3049SOL     OW19145   1.737   1.130   2.388
 3049SOL    HW119146   1.673   1.117   2.464
 3049SOL    HW219147   1.688   1.126   2.301
 3050SOL     OW19148   4.653   2.902   3.013
 3050SOL    HW119149   4.637   2.822   3.072
 3050SOL    HW219150   4.730   2.885   2.952
 3051SOL     OW19151   4.337   3.567   0.128
 3051SOL    HW119152   4.316   3.613   0.041
 3051SOL    HW219153   4.388   3.483   0.110
 3052SOL     OW19154   7.363   1.171   8.000
 3052SOL    HW119155   7.336   1.107   7.927
 3052SOL    HW219156   7.324   1.261   7.982
 3053SOL     OW19157   0.687   3.941   0.624
 3053SOL    HW119158   0.738   3.857   0.641
 3053SOL    HW219159   0.748   4.012   0.589
 3054SOL     OW19160   7.734   6.457   7.059
 3054SOL    HW119161   7.718   6.545   7.104
 3054SOL    HW219162   7.652   6.430   7.008
 3055SOL     OW19163   0.565   1.705   0.570
 3055SOL    HW119164   0.635   1.730   0.503
 3055SOL    HW219165   0.492   1.652   0.526
 3056SOL     OW19166   1.798   5.321   3.533
 3056SOL    HW119167   1.819   5.308   3.630
 3056SOL    HW219168   1.754   5.240   3.496
 3057SOL     OW19169   2.621   5.292   3.089
 3057SOL    HW119170   2.569   5.244   3.019
 3057SOL    HW219171   2.716   5.305   3.059
 3058SOL     OW19172   0.979   7.608   0.592
 3058SOL    HW119173   0.972   7.508   0.597
 3058SOL    HW219174   0.963   7.648   0.682
 3059SOL     OW19175   5.990   7.429   0.234
 3059SOL    HW119176   5.965   7.471   0.321
 3059SOL    HW219177   5.942   7.342   0.223
 3060SOL     OW19178   4.659   2.840   7.666
 3060SOL    HW119179   4.740   2.889   7.633
 3060SOL    HW219180   4.679   2.795   7.752
 3061SOL     OW19181   1.148   0.454   3.504
 3061SOL    HW119182   1.201   0.384   3.552
 3061SOL    HW219183   1.178   0.461   3.409
 3062SOL     OW19184   2.218   5.519   1.936
 3062SOL    HW119185   2.136   5.474   1.970
 3062SOL    HW219186   2.238   5.488   1.843
 3063SOL     OW19187   3.755   7.036   7.304
 3063SOL    HW119188   3.835   7.011   7.250
 3063SOL    HW219189   3.730   6.960   7.364
 3064SOL     OW19190   5.717   1.597   6.109
 3064SOL    HW119191   5.781   1.521   6.109
 3064SOL    HW219192   5.722   1.646   6.022
 3065SOL     OW19193   0.548   1.592   0.321
 3065SOL    HW119194   0.495   1.512   0.347
 3065SOL    HW219195   0.503   1.640   0.246
 3066SOL     OW19196   3.593   2.986   1.136
 3066SOL    HW119197   3.496   2.968   1.120
 3066SOL    HW219198   3.604   3.050   1.212
 3067SOL     OW19199   4.956   2.884   6.142
 3067SOL    HW119200   5.046   2.902   6.181
 3067SOL    HW219201   4.965   2.853   6.047
 3068SOL     OW19202   6.059   2.499   5.957
 3068SOL    HW119203   6.068   2.436   5.880
 3068SOL    HW219204   6.149   2.523   5.993
 3069SOL     OW19205   2.122   0.996   2.196
 3069SOL    HW119206   2.128   1.095   2.211
 3069SOL    HW219207   2.143   0.947   2.281
 3070SOL     OW19208   5.579   5.390   3.503
 3070SOL    HW119209   5.661   5.424   3.550
 3070SOL    HW219210   5.605   5.315   3.442
 3071SOL     OW19211   1.444   1.377   6.000
 3071SOL    HW119212   1.363   1.414   6.044
 3071SOL    HW219213   1.423   1.353   5.905
 3072SOL     OW19214   6.785   2.967   0.262
 3072SOL    HW119215   6.731   2.957   0.179
 3072SOL    HW219216   6.744   3.036   0.321
 3073SOL     OW19217   1.783   0.510   6.385
 3073SOL    HW119218   1.852   0.579   6.408
 3073SOL    HW219219   1.701   0.555   6.351
 3074SOL     OW19220   5.822   2.454   7.884
 3074SOL    HW119221   5.742   2.509   7.911
 3074SOL    HW219222   5.807   2.358   7.907
 3075SOL     OW19223   2.862   6.885   4.267
 3075SOL    HW119224   2.814   6.916   4.184
 3075SOL    HW219225   2.953   6.851   4.243
 3076SOL     OW19226   6.085   0.598   7.601
 3076SOL    HW119227   6.048   0.691   7.590
 3076SOL    HW219228   6.175   0.592   7.559
 3077SOL     OW19229   5.532   3.997   3.324
 3077SOL    HW119230   5.494   3.907   3.303
 3077SOL    HW219231   5.554   4.003   3.421
 3078SOL     OW19232   3.751   4.603   6.807
 3078SOL    HW119233   3.742   4.518   6.755
 3078SOL    HW219234   3.662   4.648   6.817
 3079SOL     OW19235   7.540   3.445   4.080
 3079SOL    HW119236   7.466   3.483   4.026
 3079SOL    HW219237   7.503   3.388   4.154
 3080SOL     OW19238   3.968   4.247   4.373
 3080SOL    HW119239   3.895   4.200   4.323
 3080SOL    HW219240   3.937   4.272   4.465
 3081SOL     OW19241   2.646   2.877   6.307
 3081SOL    HW119242   2.610   2.790   6.274
 3081SOL    HW219243   2.612   2.895   6.399
 3082SOL     OW19244   3.772   0.372   4.762
 3082SOL    HW119245   3.801   0.426   4.841
 3082SOL    HW219246   3.787   0.275   4.780
 3083SOL     OW19247   7.194   3.722   5.232
 3083SOL    HW119248   7.207   3.635   5.184
 3083SOL    HW219249   7.113   3.717   5.291
 3084SOL     OW19250   0.647   3.151   5.472
 3084SOL    HW119251   0.601   3.069   5.507
 3084SOL    HW219252   0.742   3.131   5.451
 3085SOL     OW19253   1.395   2.462   0.027
 3085SOL    HW119254   1.458   2.384   0.024
 3085SOL    HW219255   1.316   2.440   0.085
 3086SOL     OW19256   3.364   3.559   1.160
 3086SOL    HW119257   3.405   3.644   1.192
 3086SOL    HW219258   3.316   3.574   1.074
 3087SOL     OW19259   3.339   2.352   6.185
 3087SOL    HW119260   3.254   2.310   6.151
 3087SOL    HW219261   3.407   2.282   6.203
 3088SOL     OW19262   0.339   4.381   0.591
 3088SOL    HW119263   0.242   4.377   0.568
 3088SOL    HW219264   0.373   4.290   0.614
 3089SOL     OW19265   4.649   6.314   5.613
 3089SOL    HW119266   4.641   6.288   5.709
 3089SOL    HW219267   4.622   6.238   5.554
 3090SOL     OW19268   4.814   6.628   5.773
 3090SOL    HW119269   4.738   6.578   5.815
 3090SOL    HW219270   4.898   6.573   5.779
 3091SOL     OW19271   2.456   2.757   5.258
 3091SOL    HW119272   2.368   2.769   5.304
 3091SOL    HW219273   2.442   2.715   5.168
 3092SOL     OW19274   1.097   0.146   6.116
 3092SOL    HW119275   1.123   0.228   6.167
 3092SOL    HW219276   1.176   0.085   6.107
 3093SOL     OW19277   4.847   3.004   0.697
 3093SOL    HW119278   4.928   2.956   0.663
 3093SOL    HW219279   4.824   2.971   0.789
 3094SOL     OW19280   5.285   5.939   2.964
 3094SOL    HW119281   5.360   5.994   2.929
 3094SOL    HW219282   5.204   5.996   2.976
 3095SOL     OW19283   3.078   6.909   4.072
 3095SOL    HW119284   3.144   6.980   4.044
 3095SOL    HW219285   3.126   6.824   4.092
 3096SOL     OW19286   4.035   5.418   2.576
 3096SOL    HW119287   4.084   5.427   2.489
 3096SOL    HW219288   3.965   5.490   2.583
 3097SOL     OW19289   5.829   6.773   7.956
 3097SOL    HW119290   5.753   6.722   7.916
 3097SOL    HW219291   5.795   6.856   8.000
 3098SOL     OW19292   7.943   1.898   1.981
 3098SOL    HW119293   7.870   1.938   2.037
 3098SOL    HW219294   7.968   1.808   2.018
 3099SOL     OW19295   3.055   5.923   7.478
 3099SOL    HW119296   3.045   5.931   7.378
 3099SOL    HW219297   2.974   5.959   7.523
 3100SOL     OW19298   4.300   2.557   6.720
 3100SOL    HW119299   4.335   2.472   6.681
 3100SOL    HW219300   4.271   2.541   6.814
 3101SOL     OW19301   3.849   5.214   5.961
 3101SOL    HW119302   3.785   5.181   6.030
 3101SOL    HW219303   3.827   5.174   5.872
 3102SOL     OW19304   5.754   2.596   5.478
 3102SOL    HW119305   5.777   2.693   5.465
 3102SOL    HW219306   5.813   2.539   5.421
 3103SOL     OW19307   2.973   3.439   2.070
 3103SOL    HW119308   3.057   3.403   2.028
 3103SOL    HW219309   2.930   3.369   2.126
 3104SOL     OW19310   5.387   4.732   5.170
 3104SOL    HW119311   5.469   4.715   5.224
 3104SOL    HW219312   5.412   4.752   5.075
 3105SOL     OW19313   2.516   6.849   6.656
 3105SOL    HW119314   2.517   6.945   6.629
 3105SOL    HW219315   2.609   6.815   6.667
 3106SOL     OW19316   5.355   3.601   7.036
 3106SOL    HW119317   5.306   3.652   6.965
 3106SOL    HW219318   5.408   3.527   6.994
 3107SOL     OW19319   4.311   5.811   2.259
 3107SOL    HW119320   4.240   5.876   2.232
 3107SOL    HW219321   4.353   5.838   2.345
 3108SOL     OW19322   6.033   5.843   6.044
 3108SOL    HW119323   5.969   5.789   5.989
 3108SOL    HW219324   5.983   5.904   6.105
 3109SOL     OW19325   6.525   1.005   6.753
 3109SOL    HW119326   6.557   1.093   6.718
 3109SOL    HW219327   6.495   1.014   6.847
 3110SOL     OW19328   7.560   2.361   0.758
 3110SOL    HW119329   7.657   2.361   0.735
 3110SOL    HW219330   7.522   2.269   0.747
 3111SOL     OW19331   1.663   5.363   6.662
 3111SOL    HW119332   1.620   5.446   6.698
 3111SOL    HW219333   1.676   5.297   6.736
 3112SOL     OW19334   3.896   7.339   2.404
 3112SOL    HW119335   3.994   7.319   2.407
 3112SOL    HW219336   3.853   7.289   2.329
 3113SOL     OW19337   0.665   4.039   5.027
 3113SOL    HW119338   0.589   4.044   4.961
 3113SOL    HW219339   0.715   3.953   5.015
 3114SOL     OW19340   0.193   0.466   6.318
 3114SOL    HW119341   0.103   0.486   6.356
 3114SOL    HW219342   0.183   0.425   6.227
 3115SOL     OW19343   7.490   7.353   6.328
 3115SOL    HW119344   7.420   7.392   6.388
 3115SOL    HW219345   7.481   7.254   6.326
 3116SOL     OW19346   3.123   4.606   1.022
 3116SOL    HW119347   3.057   4.645   1.087
 3116SOL    HW219348   3.170   4.680   0.973
 3117SOL     OW19349   2.294   3.415   0.249
 3117SOL    HW119350   2.372   3.352   0.250
 3117SOL    HW219351   2.234   3.395   0.172
 3118SOL     OW19352   5.967   3.771   4.228
 3118SOL    HW119353   6.046   3.724   4.188
 3118SOL    HW219354   5.964   3.755   4.326
 3119SOL     OW19355   6.019   7.218   4.894
 3119SOL    HW119356   6.037   7.120   4.888
 3119SOL    HW219357   5.966   7.239   4.976
 3120SOL     OW19358   0.533   6.038   6.043
 3120SOL    HW119359   0.606   5.982   6.083
 3120SOL    HW219360   0.567   6.084   5.961
 3121SOL     OW19361   4.948   1.026   6.413
 3121SOL    HW119362   5.010   0.959   6.372
 3121SOL    HW219363   4.933   1.006   6.510
 3122SOL     OW19364   7.756   5.544   0.727
 3122SOL    HW119365   7.851   5.517   0.711
 3122SOL    HW219366   7.696   5.499   0.661
 3123SOL     OW19367   7.866   5.863   1.090
 3123SOL    HW119368   7.939   5.929   1.073
 3123SOL    HW219369   7.792   5.876   1.025
 3124SOL     OW19370   5.454   6.662   3.496
 3124SOL    HW119371   5.470   6.731   3.425
 3124SOL    HW219372   5.464   6.570   3.456
 3125SOL     OW19373   4.759   3.951   6.529
 3125SOL    HW119374   4.712   4.027   6.483
 3125SOL    HW219375   4.709   3.865   6.512
 3126SOL     OW19376   5.862   7.085   5.102
 3126SOL    HW119377   5.875   7.163   5.162
 3126SOL    HW219378   5.769   7.049   5.112
 3127SOL     OW19379   4.091   1.606   7.281
 3127SOL    HW119380   4.000   1.621   7.242
 3127SOL    HW219381   4.096   1.644   7.373
 3128SOL     OW19382   1.046   7.297   5.412
 3128SOL    HW119383   1.140   7.276   5.442
 3128SOL    HW219384   1.048   7.339   5.321
 3129SOL     OW19385   1.484   1.254   6.561
 3129SOL    HW119386   1.561   1.235   6.500
 3129SOL    HW219387   1.500   1.212   6.650
 3130SOL     OW19388   1.776   4.483   7.959
 3130SOL    HW119389   1.832   4.541   7.898
 3130SOL    HW219390   1.685   4.470   7.920
 3131SOL     OW19391   2.589   4.905   7.692
 3131SOL    HW119392   2.537   4.842   7.751
 3131SOL    HW219393   2.667   4.942   7.742
 3132SOL     OW19394   5.791   3.528   0.701
 3132SOL    HW119395   5.707   3.478   0.720
 3132SOL    HW219396   5.854   3.470   0.649
 3133SOL     OW19397   4.332   5.536   2.151
 3133SOL    HW119398   4.236   5.541   2.179
 3133SOL    HW219399   4.385   5.608   2.195
 3134SOL     OW19400   3.055   1.842   0.155
 3134SOL    HW119401   3.014   1.752   0.170
 3134SOL    HW219402   3.135   1.854   0.214
 3135SOL     OW19403   3.139   4.483   2.024
 3135SOL    HW119404   3.161   4.392   1.987
 3135SOL    HW219405   3.101   4.473   2.116
 3136SOL     OW19406   2.300   7.022   3.538
 3136SOL    HW119407   2.328   7.116   3.558
 3136SOL    HW219408   2.234   6.991   3.606
 3137SOL     OW19409   3.681   8.000   5.234
 3137SOL    HW119410   3.613   7.988   5.307
 3137SOL    HW219411   3.679   7.921   5.173
 3138SOL     OW19412   4.114   3.496   7.830
 3138SOL    HW119413   4.180   3.421   7.836
 3138SOL    HW219414   4.036   3.478   7.890
 3139SOL     OW19415   5.187   4.315   6.067
 3139SOL    HW119416   5.214   4.227   6.028
 3139SOL    HW219417   5.175   4.382   5.994
 3140SOL     OW19418   1.658   1.131   1.744
 3140SOL    HW119419   1.625   1.223   1.764
 3140SOL    HW219420   1.610   1.093   1.665
 3141SOL     OW19421   5.050   4.483   4.146
 3141SOL    HW119422   5.053   4.397   4.197
 3141SOL    HW219423   5.086   4.468   4.053
 3142SOL     OW19424   4.311   1.513   4.683
 3142SOL    HW119425   4.407   1.514   4.658
 3142SOL    HW219426   4.300   1.502   4.782
 3143SOL     OW19427   1.944   7.603   1.637
 3143SOL    HW119428   1.982   7.527   1.689
 3143SOL    HW219429   1.991   7.612   1.550
 3144SOL     OW19430   1.108   7.088   0.641
 3144SOL    HW119431   1.092   7.076   0.739
 3144SOL    HW219432   1.145   7.004   0.601
 3145SOL     OW19433   6.095   1.686   3.080
 3145SOL    HW119434   6.083   1.609   3.017
 3145SOL    HW219435   6.192   1.711   3.086
 3146SOL     OW19436   7.116   4.306   5.366
 3146SOL    HW119437   7.184   4.379   5.361
 3146SOL    HW219438   7.050   4.326   5.438
 3147SOL     OW19439   2.812   1.957   4.498
 3147SOL    HW119440   2.781   2.053   4.496
 3147SOL    HW219441   2.836   1.931   4.591
 3148SOL     OW19442   1.801   4.455   1.869
 3148SOL    HW119443   1.722   4.515   1.888
 3148SOL    HW219444   1.829   4.409   1.953
 3149SOL     OW19445   1.880   0.782   6.150
 3149SOL    HW119446   1.960   0.723   6.140
 3149SOL    HW219447   1.829   0.757   6.233
 3150SOL     OW19448   2.153   4.262   6.457
 3150SOL    HW119449   2.209   4.295   6.533
 3150SOL    HW219450   2.082   4.201   6.491
 3151SOL     OW19451   2.402   0.570   2.874
 3151SOL    HW119452   2.440   0.485   2.838
 3151SOL    HW219453   2.357   0.553   2.962
 3152SOL     OW19454   4.558   6.429   1.819
 3152SOL    HW119455   4.586   6.340   1.857
 3152SOL    HW219456   4.600   6.441   1.729
 3153SOL     OW19457   7.383   2.200   6.894
 3153SOL    HW119458   7.459   2.179   6.832
 3153SOL    HW219459   7.412   2.267   6.962
 3154SOL     OW19460   1.900   3.302   5.423
 3154SOL    HW119461   1.819   3.285   5.367
 3154SOL    HW219462   1.880   3.282   5.518
 3155SOL     OW19463   1.164   3.806   0.808
 3155SOL    HW119464   1.256   3.831   0.779
 3155SOL    HW219465   1.166   3.770   0.901
 3156SOL     OW19466   0.496   7.916   4.891
 3156SOL    HW119467   0.578   7.877   4.933
 3156SOL    HW219468   0.518   7.949   4.799
 3157SOL     OW19469   5.839   4.317   7.413
 3157SOL    HW119470   5.887   4.360   7.490
 3157SOL    HW219471   5.760   4.373   7.387
 3158SOL     OW19472   5.526   5.659   3.227
 3158SOL    HW119473   5.610   5.614   3.260
 3158SOL    HW219474   5.544   5.705   3.141
 3159SOL     OW19475   6.442   3.177   1.937
 3159SOL    HW119476   6.418   3.184   2.034
 3159SOL    HW219477   6.529   3.129   1.926
 3160SOL     OW19478   2.003   4.935   2.605
 3160SOL    HW119479   1.966   5.012   2.553
 3160SOL    HW219480   2.053   4.874   2.544
 3161SOL     OW19481   7.490   5.191   6.160
 3161SOL    HW119482   7.457   5.190   6.255
 3161SOL    HW219483   7.496   5.097   6.125
 3162SOL     OW19484   5.788   6.101   4.802
 3162SOL    HW119485   5.732   6.024   4.835
 3162SOL    HW219486   5.817   6.084   4.708
 3163SOL     OW19487   6.916   3.129   7.236
 3163SOL    HW119488   6.820   3.105   7.222
 3163SOL    HW219489   6.928   3.169   7.327
 3164SOL     OW19490   3.989   2.466   3.486
 3164SOL    HW119491   3.987   2.566   3.499
 3164SOL    HW219492   3.899   2.433   3.461
 3165SOL     OW19493   7.149   6.949   4.713
 3165SOL    HW119494   7.164   6.939   4.812
 3165SOL    HW219495   7.218   7.011   4.674
 3166SOL     OW19496   3.886   2.660   0.134
 3166SOL    HW119497   3.966   2.705   0.175
 3166SOL    HW219498   3.886   2.563   0.157
 3167SOL     OW19499   7.814   6.257   6.188
 3167SOL    HW119500   7.754   6.327   6.227
 3167SOL    HW219501   7.782   6.232   6.097
 3168SOL     OW19502   1.997   1.584   5.133
 3168SOL    HW119503   2.025   1.678   5.154
 3168SOL    HW219504   1.963   1.578   5.039
 3169SOL     OW19505   7.326   3.432   2.291
 3169SOL    HW119506   7.269   3.504   2.251
 3169SOL    HW219507   7.352   3.456   2.385
 3170SOL     OW19508   2.756   5.025   1.102
 3170SOL    HW119509   2.835   5.000   1.156
 3170SOL    HW219510   2.747   4.964   1.023
 3171SOL     OW19511   0.694   5.467   4.446
 3171SOL    HW119512   0.653   5.383   4.409
 3171SOL    HW219513   0.793   5.460   4.445
 3172SOL     OW19514   2.812   4.561   0.647
 3172SOL    HW119515   2.878   4.585   0.577
 3172SOL    HW219516   2.821   4.465   0.672
 3173SOL     OW19517   4.209   7.555   4.168
 3173SOL    HW119518   4.206   7.465   4.210
 3173SOL    HW219519   4.231   7.547   4.071
 3174SOL     OW19520   1.579   0.921   6.343
 3174SOL    HW119521   1.562   0.948   6.248
 3174SOL    HW219522   1.598   1.002   6.398
 3175SOL     OW19523   2.701   7.906   4.902
 3175SOL    HW119524   2.732   7.827   4.955
 3175SOL    HW219525   2.736   7.990   4.942
 3176SOL     OW19526   3.634   7.781   3.335
 3176SOL    HW119527   3.651   7.872   3.298
 3176SOL    HW219528   3.703   7.717   3.299
 3177SOL     OW19529   0.545   3.035   4.836
 3177SOL    HW119530   0.486   3.030   4.755
 3177SOL    HW219531   0.553   3.130   4.866
 3178SOL     OW19532   5.722   6.801   5.041
 3178SOL    HW119533   5.658   6.859   4.990
 3178SOL    HW219534   5.724   6.829   5.137
 3179SOL     OW19535   4.666   6.307   2.381
 3179SOL    HW119536   4.573   6.294   2.347
 3179SOL    HW219537   4.664   6.364   2.464
 3180SOL     OW19538   2.894   6.944   4.478
 3180SOL    HW119539   2.905   6.958   4.577
 3180SOL    HW219540   2.854   7.025   4.436
 3181SOL     OW19541   1.994   3.013   3.306
 3181SOL    HW119542   2.015   3.059   3.220
 3181SOL    HW219543   1.992   3.079   3.381
 3182SOL     OW19544   1.673   7.088   5.119
 3182SOL    HW119545   1.696   7.160   5.053
 3182SOL    HW219546   1.746   7.079   5.186
 3183SOL     OW19547   0.145   2.254   4.447
 3183SOL    HW119548   0.060   2.301   4.420
 3183SOL    HW219549   0.194   2.224   4.366
 3184SOL     OW19550   4.732   6.776   4.997
 3184SOL    HW119551   4.813   6.816   4.956
 3184SOL    HW219552   4.675   6.847   5.038
 3185SOL     OW19553   3.851   1.919   6.206
 3185SOL    HW119554   3.826   1.978   6.129
 3185SOL    HW219555   3.866   1.974   6.288
 3186SOL     OW19556   5.955   3.591   6.490
 3186SOL    HW119557   6.019   3.518   6.514
 3186SOL    HW219558   5.981   3.631   6.402
 3187SOL     OW19559   6.863   2.388   5.995
 3187SOL    HW119560   6.789   2.330   6.028
 3187SOL    HW219561   6.892   2.358   5.905
 3188SOL     OW19562   7.142   7.063   6.365
 3188SOL    HW119563   7.099   7.029   6.448
 3188SOL    HW219564   7.207   6.995   6.330
 3189SOL     OW19565   4.188   2.982   0.183
 3189SOL    HW119566   4.268   2.943   0.135
 3189SOL    HW219567   4.104   2.958   0.134
 3190SOL     OW19568   6.028   5.193   2.027
 3190SOL    HW119569   6.086   5.119   1.995
 3190SOL    HW219570   6.054   5.279   1.981
 3191SOL     OW19571   1.145   1.781   6.370
 3191SOL    HW119572   1.131   1.692   6.326
 3191SOL    HW219573   1.113   1.777   6.465
 3192SOL     OW19574   5.346   3.913   6.899
 3192SOL    HW119575   5.344   3.837   6.835
 3192SOL    HW219576   5.397   3.887   6.981
 3193SOL     OW19577   4.435   7.533   0.429
 3193SOL    HW119578   4.445   7.470   0.506
 3193SOL    HW219579   4.472   7.492   0.346
 3194SOL     OW19580   3.656   0.276   6.253
 3194SOL    HW119581   3.580   0.211   6.250
 3194SOL    HW219582   3.667   0.311   6.346
 3195SOL     OW19583   2.177   5.517   5.433
 3195SOL    HW119584   2.178   5.498   5.335
 3195SOL    HW219585   2.170   5.432   5.485
 3196SOL     OW19586   4.554   1.954   4.121
 3196SOL    HW119587   4.602   1.964   4.034
 3196SOL    HW219588   4.613   1.983   4.196
 3197SOL     OW19589   3.321   5.381   4.817
 3197SOL    HW119590   3.380   5.454   4.851
 3197SOL    HW219591   3.257   5.417   4.749
 3198SOL     OW19592   6.106   2.299   1.905
 3198SOL    HW119593   6.170   2.316   1.980
 3198SOL    HW219594   6.148   2.323   1.818
 3199SOL     OW19595   2.148   1.005   3.554
 3199SOL    HW119596   2.235   0.963   3.531
 3199SOL    HW219597   2.111   1.054   3.475
 3200SOL     OW19598   7.312   1.389   2.627
 3200SOL    HW119599   7.243   1.442   2.677
 3200SOL    HW219600   7.285   1.293   2.624
 3201SOL     OW19601   7.518   6.852   3.007
 3201SOL    HW119602   7.511   6.783   3.080
 3201SOL    HW219603   7.527   6.807   2.918
 3202SOL     OW19604   0.286   2.584   7.788
 3202SOL    HW119605   0.202   2.532   7.773
 3202SOL    HW219606   0.271   2.652   7.860
 3203SOL     OW19607   1.972   7.046   7.355
 3203SOL    HW119608   2.019   7.127   7.390
 3203SOL    HW219609   1.936   7.065   7.264
 3204SOL     OW19610   5.198   3.788   3.366
 3204SOL    HW119611   5.170   3.758   3.457
 3204SOL    HW219612   5.163   3.880   3.348
 3205SOL     OW19613   7.738   1.472   3.958
 3205SOL    HW119614   7.781   1.532   4.025
 3205SOL    HW219615   7.684   1.402   4.005
 3206SOL     OW19616   3.607   0.990   3.409
 3206SOL    HW119617   3.686   0.953   3.360
 3206SOL    HW219618   3.627   0.996   3.507
 3207SOL     OW19619   4.413   1.676   6.144
 3207SOL    HW119620   4.398   1.629   6.231
 3207SOL    HW219621   4.333   1.730   6.121
 3208SOL     OW19622   4.714   5.004   0.293
 3208SOL    HW119623   4.645   5.068   0.329
 3208SOL    HW219624   4.690   4.976   0.200
 3209SOL     OW19625   0.859   6.437   4.522
 3209SOL    HW119626   0.890   6.343   4.513
 3209SOL    HW219627   0.816   6.451   4.611
 3210SOL     OW19628   5.587   6.986   7.198
 3210SOL    HW119629   5.544   7.028   7.279
 3210SOL    HW219630   5.681   7.018   7.189
 3211SOL     OW19631   7.376   7.888   5.970
 3211SOL    HW119632   7.280   7.875   5.946
 3211SOL    HW219633   7.384   7.943   6.053
 3212SOL     OW19634   1.563   0.495   5.220
 3212SOL    HW119635   1.517   0.479   5.308
 3212SOL    HW219636   1.532   0.582   5.182
 3213SOL     OW19637   3.972   6.550   1.577
 3213SOL    HW119638   4.065   6.577   1.550
 3213SOL    HW219639   3.918   6.630   1.600
 3214SOL     OW19640   2.000   7.960   6.906
 3214SOL    HW119641   1.911   8.000   6.928
 3214SOL    HW219642   2.028   7.989   6.814
 3215SOL     OW19643   2.189   4.106   5.032
 3215SOL    HW119644   2.289   4.109   5.041
 3215SOL    HW219645   2.164   4.043   4.959
 3216SOL     OW19646   4.138   0.060   5.196
 3216SOL    HW119647   4.215   0.116   5.228
 3216SOL    HW219648   4.096   0.103   5.116
 3217SOL     OW19649   3.266   6.371   7.949
 3217SOL    HW119650   3.362   6.343   7.936
 3217SOL    HW219651   3.253   6.465   7.920
 3218SOL     OW19652   6.537   5.162   0.308
 3218SOL    HW119653   6.626   5.199   0.280
 3218SOL    HW219654   6.542   5.129   0.402
 3219SOL     OW19655   4.108   1.801   0.087
 3219SOL    HW119656   4.120   1.708   0.051
 3219SOL    HW219657   4.076   1.797   0.182
 3220SOL     OW19658   4.155   0.336   1.200
 3220SOL    HW119659   4.204   0.280   1.133
 3220SOL    HW219660   4.057   0.331   1.184
 3221SOL     OW19661   5.070   7.455   0.087
 3221SOL    HW119662   5.148   7.516   0.101
 3221SOL    HW219663   4.994   7.505   0.046
 3222SOL     OW19664   7.143   3.160   5.351
 3222SOL    HW119665   7.220   3.220   5.329
 3222SOL    HW219666   7.061   3.191   5.302
 3223SOL     OW19667   2.554   1.608   7.616
 3223SOL    HW119668   2.499   1.532   7.654
 3223SOL    HW219669   2.587   1.584   7.525
 3224SOL     OW19670   6.910   6.561   4.026
 3224SOL    HW119671   6.877   6.558   3.932
 3224SOL    HW219672   6.833   6.577   4.089
 3225SOL     OW19673   6.322   3.726   7.723
 3225SOL    HW119674   6.270   3.802   7.685
 3225SOL    HW219675   6.355   3.749   7.815
 3226SOL     OW19676   6.799   3.938   3.433
 3226SOL    HW119677   6.763   3.845   3.425
 3226SOL    HW219678   6.827   3.957   3.527
 3227SOL     OW19679   0.207   5.129   3.795
 3227SOL    HW119680   0.134   5.191   3.768
 3227SOL    HW219681   0.228   5.140   3.891
 3228SOL     OW19682   1.689   5.970   0.580
 3228SOL    HW119683   1.598   5.928   0.578
 3228SOL    HW219684   1.697   6.031   0.658
 3229SOL     OW19685   4.780   0.068   6.550
 3229SOL    HW119686   4.699   0.011   6.562
 3229SOL    HW219687   4.858   0.012   6.525
 3230SOL     OW19688   5.400   0.066   6.689
 3230SOL    HW119689   5.489   0.100   6.657
 3230SOL    HW219690   5.329   0.091   6.623
 3231SOL     OW19691   1.149   5.549   2.615
 3231SOL    HW119692   1.072   5.577   2.558
 3231SOL    HW219693   1.147   5.597   2.702
 3232SOL     OW19694   7.006   3.774   6.761
 3232SOL    HW119695   7.095   3.729   6.767
 3232SOL    HW219696   7.018   3.873   6.750
 3233SOL     OW19697   4.641   5.050   3.880
 3233SOL    HW119698   4.582   4.976   3.913
 3233SOL    HW219699   4.675   5.029   3.788
 3234SOL     OW19700   7.598   6.263   0.896
 3234SOL    HW119701   7.624   6.320   0.818
 3234SOL    HW219702   7.605   6.166   0.872
 3235SOL     OW19703   2.484   1.708   7.139
 3235SOL    HW119704   2.498   1.612   7.163
 3235SOL    HW219705   2.528   1.727   7.051
 3236SOL     OW19706   1.123   2.120   4.500
 3236SOL    HW119707   1.091   2.208   4.467
 3236SOL    HW219708   1.135   2.122   4.599
 3237SOL     OW19709   1.625   3.654   4.483
 3237SOL    HW119710   1.647   3.573   4.537
 3237SOL    HW219711   1.566   3.715   4.536
 3238SOL     OW19712   3.882   4.622   7.736
 3238SOL    HW119713   3.806   4.678   7.771
 3238SOL    HW219714   3.857   4.584   7.647
 3239SOL     OW19715   6.058   6.686   4.170
 3239SOL    HW119716   5.997   6.658   4.095
 3239SOL    HW219717   6.152   6.696   4.135
 3240SOL     OW19718   4.715   4.841   2.432
 3240SOL    HW119719   4.770   4.766   2.395
 3240SOL    HW219720   4.681   4.818   2.523
 3241SOL     OW19721   1.681   1.801   3.658
 3241SOL    HW119722   1.712   1.806   3.562
 3241SOL    HW219723   1.694   1.708   3.693
 3242SOL     OW19724   4.959   4.521   7.601
 3242SOL    HW119725   5.009   4.497   7.685
 3242SOL    HW219726   4.988   4.461   7.526
 3243SOL     OW19727   6.510   2.519   2.830
 3243SOL    HW119728   6.495   2.421   2.818
 3243SOL    HW219729   6.601   2.544   2.797
 3244SOL     OW19730   1.486   6.190   3.844
 3244SOL    HW119731   1.500   6.216   3.940
 3244SOL    HW219732   1.490   6.091   3.835
 3245SOL     OW19733   5.515   1.765   3.621
 3245SOL    HW119734   5.597   1.801   3.666
 3245SOL    HW219735   5.540   1.727   3.532
 3246SOL     OW19736   7.702   7.038   3.191
 3246SOL    HW119737   7.751   7.123   3.210
 3246SOL    HW219738   7.757   6.979   3.133
 3247SOL     OW19739   4.021   0.948   0.858
 3247SOL    HW119740   4.081   1.015   0.813
 3247SOL    HW219741   4.036   0.858   0.818
 3248SOL     OW19742   5.897   2.357   0.604
 3248SOL    HW119743   5.919   2.338   0.509
 3248SOL    HW219744   5.862   2.450   0.613
 3249SOL     OW19745   3.178   6.152   7.706
 3249SOL    HW119746   3.164   6.190   7.615
 3249SOL    HW219747   3.155   6.220   7.775
 3250SOL     OW19748   1.654   0.301   4.056
 3250SOL    HW119749   1.555   0.288   4.059
 3250SOL    HW219750   1.694   0.246   3.984
 3251SOL     OW19751   3.435   7.296   2.460
 3251SOL    HW119752   3.369   7.240   2.510
 3251SOL    HW219753   3.500   7.237   2.412
 3252SOL     OW19754   0.811   2.097   0.970
 3252SOL    HW119755   0.764   2.180   0.941
 3252SOL    HW219756   0.884   2.120   1.035
 3253SOL     OW19757   4.498   0.867   1.364
 3253SOL    HW119758   4.456   0.814   1.290
 3253SOL    HW219759   4.593   0.889   1.341
 3254SOL     OW19760   0.895   0.656   2.211
 3254SOL    HW119761   0.991   0.674   2.233
 3254SOL    HW219762   0.889   0.602   2.127
 3255SOL     OW19763   2.131   4.148   0.799
 3255SOL    HW119764   2.090   4.072   0.851
 3255SOL    HW219765   2.176   4.211   0.863
 3256SOL     OW19766   1.232   2.531   1.742
 3256SOL    HW119767   1.229   2.603   1.673
 3256SOL    HW219768   1.312   2.473   1.728
 3257SOL     OW19769   4.874   1.452   4.539
 3257SOL    HW119770   4.911   1.540   4.569
 3257SOL    HW219771   4.848   1.397   4.619
 3258SOL     OW19772   0.956   0.910   2.432
 3258SOL    HW119773   0.956   1.007   2.458
 3258SOL    HW219774   0.923   0.899   2.339
 3259SOL     OW19775   0.304   3.020   4.378
 3259SOL    HW119776   0.317   3.017   4.477
 3259SOL    HW219777   0.373   3.079   4.336
 3260SOL     OW19778   2.365   5.520   7.920
 3260SOL    HW119779   2.450   5.475   7.949
 3260SOL    HW219780   2.375   5.556   7.827
 3261SOL     OW19781   0.066   3.822   0.699
 3261SOL    HW119782   0.043   3.904   0.647
 3261SOL    HW219783   0.156   3.833   0.742
 3262SOL     OW19784   6.898   3.071   5.412
 3262SOL    HW119785   6.896   3.047   5.315
 3262SOL    HW219786   6.828   3.139   5.432
 3263SOL     OW19787   3.928   3.043   6.920
 3263SOL    HW119788   3.869   3.075   6.846
 3263SOL    HW219789   4.024   3.056   6.894
 3264SOL     OW19790   2.447   5.218   4.965
 3264SOL    HW119791   2.420   5.277   5.040
 3264SOL    HW219792   2.394   5.240   4.883
 3265SOL     OW19793   0.407   4.954   7.573
 3265SOL    HW119794   0.350   5.027   7.610
 3265SOL    HW219795   0.357   4.902   7.504
 3266SOL     OW19796   6.926   7.556   6.213
 3266SOL    HW119797   6.894   7.464   6.235
 3266SOL    HW219798   6.952   7.561   6.117
 3267SOL     OW19799   4.119   5.130   2.336
 3267SOL    HW119800   4.206   5.178   2.326
 3267SOL    HW219801   4.134   5.038   2.371
 3268SOL     OW19802   1.408   6.713   5.060
 3268SOL    HW119803   1.493   6.674   5.097
 3268SOL    HW219804   1.422   6.742   4.966
 3269SOL     OW19805   2.991   5.400   4.281
 3269SOL    HW119806   3.026   5.327   4.341
 3269SOL    HW219807   3.048   5.406   4.199
 3270SOL     OW19808   7.904   1.167   6.437
 3270SOL    HW119809   7.984   1.127   6.481
 3270SOL    HW219810   7.820   1.131   6.478
 3271SOL     OW19811   5.111   0.731   3.660
 3271SOL    HW119812   5.190   0.782   3.694
 3271SOL    HW219813   5.094   0.754   3.565
 3272SOL     OW19814   0.641   6.835   3.189
 3272SOL    HW119815   0.588   6.757   3.156
 3272SOL    HW219816   0.593   6.880   3.264
 3273SOL     OW19817   5.422   2.122   1.296
 3273SOL    HW119818   5.357   2.046   1.302
 3273SOL    HW219819   5.487   2.106   1.221
 3274SOL     OW19820   7.882   3.237   1.653
 3274SOL    HW119821   7.835   3.296   1.719
 3274SOL    HW219822   7.894   3.146   1.692
 3275SOL     OW19823   3.756   2.256   4.890
 3275SOL    HW119824   3.755   2.160   4.918
 3275SOL    HW219825   3.747   2.261   4.790
 3276SOL     OW19826   5.102   4.096   3.096
 3276SOL    HW119827   5.182   4.070   3.043
 3276SOL    HW219828   5.104   4.052   3.185
 3277SOL     OW19829   7.586   4.483   3.467
 3277SOL    HW119830   7.540   4.427   3.536
 3277SOL    HW219831   7.674   4.514   3.502
 3278SOL     OW19832   3.469   0.581   4.498
 3278SOL    HW119833   3.411   0.658   4.469
 3278SOL    HW219834   3.566   0.604   4.482
 3279SOL     OW19835   0.790   1.523   4.532
 3279SOL    HW119836   0.883   1.555   4.551
 3279SOL    HW219837   0.775   1.516   4.434
 3280SOL     OW19838   3.560   2.257   1.025
 3280SOL    HW119839   3.474   2.208   1.039
 3280SOL    HW219840   3.606   2.223   0.943
 3281SOL     OW19841   4.514   1.618   2.997
 3281SOL    HW119842   4.476   1.542   2.944
 3281SOL    HW219843   4.564   1.583   3.076
 3282SOL     OW19844   1.273   3.253   2.784
 3282SOL    HW119845   1.351   3.231   2.843
 3282SOL    HW219846   1.268   3.188   2.708
 3283SOL     OW19847   3.507   7.248   3.155
 3283SOL    HW119848   3.529   7.274   3.061
 3283SOL    HW219849   3.433   7.180   3.156
 3284SOL     OW19850   5.702   3.818   6.261
 3284SOL    HW119851   5.754   3.743   6.301
 3284SOL    HW219852   5.729   3.831   6.165
 3285SOL     OW19853   1.862   4.045   5.856
 3285SOL    HW119854   1.769   4.011   5.840
 3285SOL    HW219855   1.869   4.080   5.949
 3286SOL     OW19856   1.483   0.205   0.388
 3286SOL    HW119857   1.390   0.171   0.377
 3286SOL    HW219858   1.490   0.260   0.471
 3287SOL     OW19859   2.586   0.169   6.728
 3287SOL    HW119860   2.569   0.258   6.686
 3287SOL    HW219861   2.677   0.137   6.706
 3288SOL     OW19862   1.644   5.920   6.122
 3288SOL    HW119863   1.638   5.820   6.119
 3288SOL    HW219864   1.644   5.951   6.217
 3289SOL     OW19865   1.714   2.723   7.997
 3289SOL    HW119866   1.719   2.757   7.903
 3289SOL    HW219867   1.660   2.639   8.000
 3290SOL     OW19868   1.519   2.884   5.514
 3290SOL    HW119869   1.503   2.949   5.439
 3290SOL    HW219870   1.568   2.929   5.589
 3291SOL     OW19871   1.225   4.247   2.626
 3291SOL    HW119872   1.309   4.283   2.668
 3291SOL    HW219873   1.240   4.152   2.597
 3292SOL     OW19874   0.639   2.238   2.008
 3292SOL    HW119875   0.618   2.310   2.074
 3292SOL    HW219876   0.592   2.154   2.034
 3293SOL     OW19877   2.375   1.506   3.568
 3293SOL    HW119878   2.417   1.433   3.515
 3293SOL    HW219879   2.444   1.574   3.593
 3294SOL     OW19880   1.655   3.167   4.230
 3294SOL    HW119881   1.720   3.098   4.199
 3294SOL    HW219882   1.606   3.133   4.311
 3295SOL     OW19883   3.851   7.396   1.734
 3295SOL    HW119884   3.915   7.358   1.801
 3295SOL    HW219885   3.899   7.460   1.674
 3296SOL     OW19886   7.143   6.045   1.273
 3296SOL    HW119887   7.193   5.958   1.271
 3296SOL    HW219888   7.124   6.071   1.368
 3297SOL     OW19889   3.487   6.957   2.898
 3297SOL    HW119890   3.586   6.947   2.885
 3297SOL    HW219891   3.452   6.880   2.952
 3298SOL     OW19892   7.827   6.606   1.152
 3298SOL    HW119893   7.775   6.679   1.197
 3298SOL    HW219894   7.916   6.641   1.122
 3299SOL     OW19895   6.751   4.492   5.593
 3299SOL    HW119896   6.708   4.549   5.663
 3299SOL    HW219897   6.700   4.499   5.507
 3300SOL     OW19898   2.064   1.100   0.595
 3300SOL    HW119899   2.114   1.037   0.535
 3300SOL    HW219900   1.969   1.070   0.605
 3301SOL     OW19901   1.383   2.749   2.057
 3301SOL    HW119902   1.369   2.794   1.969
 3301SOL    HW219903   1.481   2.738   2.074
 3302SOL     OW19904   2.944   1.202   0.807
 3302SOL    HW119905   2.947   1.106   0.836
 3302SOL    HW219906   2.963   1.209   0.709
 3303SOL     OW19907   7.865   0.465   2.035
 3303SOL    HW119908   7.935   0.429   1.973
 3303SOL    HW219909   7.850   0.562   2.017
 3304SOL     OW19910   5.827   7.056   4.836
 3304SOL    HW119911   5.814   7.155   4.822
 3304SOL    HW219912   5.794   7.006   4.756
 3305SOL     OW19913   0.258   4.592   5.875
 3305SOL    HW119914   0.167   4.570   5.840
 3305SOL    HW219915   0.328   4.557   5.813
 3306SOL     OW19916   0.955   7.964   4.934
 3306SOL    HW119917   1.033   7.921   4.980
 3306SOL    HW219918   0.983   7.999   4.845
 3307SOL     OW19919   5.709   6.521   3.810
 3307SOL    HW119920   5.704   6.549   3.714
 3307SOL    HW219921   5.682   6.596   3.870
 3308SOL     OW19922   1.992   5.011   0.430
 3308SOL    HW119923   1.950   4.940   0.488
 3308SOL    HW219924   2.053   4.968   0.364
 3309SOL     OW19925   6.062   1.391   6.662
 3309SOL    HW119926   6.105   1.442   6.588
 3309SOL    HW219927   6.072   1.293   6.646
 3310SOL     OW19928   4.825   1.290   2.841
 3310SOL    HW119929   4.765   1.249   2.773
 3310SOL    HW219930   4.771   1.341   2.908
 3311SOL     OW19931   3.264   5.971   1.154
 3311SOL    HW119932   3.314   5.889   1.126
 3311SOL    HW219933   3.217   5.954   1.241
 3312SOL     OW19934   1.640   1.502   1.504
 3312SOL    HW119935   1.695   1.441   1.561
 3312SOL    HW219936   1.699   1.545   1.436
 3313SOL     OW19937   3.213   1.318   5.525
 3313SOL    HW119938   3.243   1.373   5.603
 3313SOL    HW219939   3.201   1.376   5.444
 3314SOL     OW19940   7.186   7.605   1.192
 3314SOL    HW119941   7.209   7.692   1.147
 3314SOL    HW219942   7.222   7.604   1.285
 3315SOL     OW19943   0.281   1.062   2.043
 3315SOL    HW119944   0.288   0.969   2.005
 3315SOL    HW219945   0.248   1.058   2.137
 3316SOL     OW19946   6.805   2.610   6.945
 3316SOL    HW119947   6.710   2.602   6.976
 3316SOL    HW219948   6.807   2.623   6.846
 3317SOL     OW19949   2.065   7.284   2.166
 3317SOL    HW119950   1.993   7.215   2.166
 3317SOL    HW219951   2.096   7.302   2.073
 3318SOL     OW19952   2.369   4.461   3.578
 3318SOL    HW119953   2.427   4.421   3.650
 3318SOL    HW219954   2.277   4.422   3.583
 3319SOL     OW19955   5.730   7.688   1.944
 3319SOL    HW119956   5.814   7.656   1.900
 3319SOL    HW219957   5.750   7.720   2.037
 3320SOL     OW19958   0.724   4.005   5.254
 3320SOL    HW119959   0.624   4.000   5.254
 3320SOL    HW219960   0.754   4.086   5.305
 3321SOL     OW19961   5.516   5.195   6.405
 3321SOL    HW119962   5.444   5.246   6.359
 3321SOL    HW219963   5.548   5.245   6.486
 3322SOL     OW19964   4.819   7.356   1.626
 3322SOL    HW119965   4.919   7.349   1.625
 3322SOL    HW219966   4.781   7.293   1.693
 3323SOL     OW19967   6.248   0.826   5.119
 3323SOL    HW119968   6.238   0.865   5.028
 3323SOL    HW219969   6.184   0.751   5.132
 3324SOL     OW19970   0.588   0.076   6.740
 3324SOL    HW119971   0.560   0.044   6.650
 3324SOL    HW219972   0.511   0.119   6.787
 3325SOL     OW19973   0.349   3.266   3.653
 3325SOL    HW119974   0.359   3.356   3.612
 3325SOL    HW219975   0.422   3.250   3.720
 3326SOL     OW19976   7.374   2.960   0.688
 3326SOL    HW119977   7.405   2.866   0.668
 3326SOL    HW219978   7.431   3.026   0.639
 3327SOL     OW19979   6.987   4.620   0.063
 3327SOL    HW119980   7.029   4.545   0.011
 3327SOL    HW219981   6.951   4.689  -0.000
 3328SOL     OW19982   6.298   5.163   6.673
 3328SOL    HW119983   6.395   5.148   6.690
 3328SOL    HW219984   6.244   5.117   6.743
 3329SOL     OW19985   2.402   6.710   3.207
 3329SOL    HW119986   2.339   6.779   3.173
 3329SOL    HW219987   2.442   6.739   3.294
 3330SOL     OW19988   7.628   7.200   2.047
 3330SOL    HW119989   7.689   7.122   2.030
 3330SOL    HW219990   7.602   7.201   2.144
 3331SOL     OW19991   0.054   3.866   2.784
 3331SOL    HW119992   0.064   3.954   2.831
 3331SOL    HW219993  -0.000   3.878   2.701
 3332SOL     OW19994   7.348   1.102   0.364
 3332SOL    HW119995   7.340   1.194   0.404
 3332SOL    HW219996   7.437   1.093   0.318
 3333SOL     OW19997   2.540   0.022   6.259
 3333SOL    HW119998   2.448  -0.000   6.227
 3333SOL    HW219999   2.595   0.059   6.184
 3334SOL     OW20000   6.824   3.351   1.519
 3334SOL    HW120001   6.773   3.410   1.457
 3334SOL    HW220002   6.761   3.296   1.574
 3335SOL     OW20003   4.185   1.270   5.505
 3335SOL    HW120004   4.251   1.314   5.566
 3335SOL    HW220005   4.232   1.234   5.424
 3336SOL     OW20006   2.628   1.219   2.784
 3336SOL    HW120007   2.547   1.182   2.738
 3336SOL    HW220008   2.605   1.245   2.878
 3337SOL     OW20009   6.420   5.182   6.980
 3337SOL    HW120010   6.321   5.189   6.963
 3337SOL    HW220011   6.460   5.113   6.919
 3338SOL     OW20012   4.432   4.689   0.625
 3338SOL    HW120013   4.460   4.777   0.663
 3338SOL    HW220014   4.404   4.700   0.530
 3339SOL     OW20015   1.685   3.606   1.458
 3339SOL    HW120016   1.704   3.509   1.450
 3339SOL    HW220017   1.597   3.621   1.502
 3340SOL     OW20018   3.673   6.408   6.794
 3340SOL    HW120019   3.681   6.487   6.855
 3340SOL    HW220020   3.720   6.427   6.708
 3341SOL     OW20021   1.475   7.843   1.345
 3341SOL    HW120022   1.524   7.909   1.402
 3341SOL    HW220023   1.377   7.852   1.358
 3342SOL     OW20024   0.322   1.441   0.468
 3342SOL    HW120025   0.332   1.470   0.563
 3342SOL    HW220026   0.280   1.513   0.414
 3343SOL     OW20027   6.457   3.709   0.375
 3343SOL    HW120028   6.547   3.682   0.411
 3343SOL    HW220029   6.444   3.672   0.283
 3344SOL     OW20030   7.304   8.000   5.684
 3344SOL    HW120031   7.382   7.937   5.681
 3344SOL    HW220032   7.238   7.970   5.752
 3345SOL     OW20033   6.900   1.691   5.569
 3345SOL    HW120034   6.902   1.759   5.643
 3345SOL    HW220035   6.823   1.629   5.581
 3346SOL     OW20036   0.743   6.867   4.129
 3346SOL    HW120037   0.715   6.773   4.111
 3346SOL    HW220038   0.750   6.918   4.044
 3347SOL     OW20039   6.319   6.867   0.541
 3347SOL    HW120040   6.293   6.956   0.579
 3347SOL    HW220041   6.260   6.795   0.579
 3348SOL     OW20042   0.321   6.083   6.956
 3348SOL    HW120043   0.380   6.107   6.879
 3348SOL    HW220044   0.371   6.091   7.042
 3349SOL     OW20045   3.042   5.372   2.742
 3349SOL    HW120046   3.071   5.303   2.676
 3349SOL    HW220047   2.954   5.347   2.782
 3350SOL     OW20048   6.054   2.516   1.921
 3350SOL    HW120049   6.143   2.534   1.963
 3350SOL    HW220050   5.982   2.559   1.975
 3351SOL     OW20051   0.426   3.630   0.116
 3351SOL    HW120052   0.334   3.598   0.097
 3351SOL    HW220053   0.448   3.709   0.058
 3352SOL     OW20054   3.009   0.131   2.892
 3352SOL    HW120055   3.042   0.125   2.798
 3352SOL    HW220056   3.011   0.041   2.935
 3353SOL     OW20057   7.018   1.734   4.153
 3353SOL    HW120058   7.087   1.684   4.100
 3353SOL    HW220059   6.927   1.697   4.133
 3354SOL     OW20060   7.180   7.714   2.193
 3354SOL    HW120061   7.165   7.704   2.292
 3354SOL    HW220062   7.256   7.656   2.165
 3355SOL     OW20063   4.957   0.647   2.964
 3355SOL    HW120064   4.971   0.650   3.063
 3355SOL    HW220065   4.906   0.565   2.940
 3356SOL     OW20066   6.742   1.021   1.751
 3356SOL    HW120067   6.665   1.079   1.774
 3356SOL    HW220068   6.794   0.998   1.834
 3357SOL     OW20069   0.852   3.669   3.610
 3357SOL    HW120070   0.761   3.655   3.571
 3357SOL    HW220071   0.844   3.702   3.704
 3358SOL     OW20072   7.412   0.831   2.066
 3358SOL    HW120073   7.426   0.732   2.062
 3358SOL    HW220074   7.499   0.876   2.085
 3359SOL     OW20075   4.126   2.342   5.616
 3359SOL    HW120076   4.036   2.299   5.631
 3359SOL    HW220077   4.162   2.314   5.528
 3360SOL     OW20078   4.537   6.449   3.550
 3360SOL    HW120079   4.622   6.469   3.599
 3360SOL    HW220080   4.545   6.475   3.454
 3361SOL     OW20081   4.665   2.641   6.398
 3361SOL    HW120082   4.687   2.714   6.463
 3361SOL    HW220083   4.671   2.675   6.305
 3362SOL     OW20084   1.578   2.228   1.705
 3362SOL    HW120085   1.650   2.165   1.736
 3362SOL    HW220086   1.618   2.297   1.645
 3363SOL     OW20087   0.570   1.330   0.813
 3363SOL    HW120088   0.666   1.327   0.787
 3363SOL    HW220089   0.562   1.353   0.910
 3364SOL     OW20090   7.832   4.372   3.770
 3364SOL    HW120091   7.781   4.436   3.711
 3364SOL    HW220092   7.877   4.423   3.843
 3365SOL     OW20093   2.364   4.732   2.672
 3365SOL    HW120094   2.309   4.773   2.599
 3365SOL    HW220095   2.444   4.686   2.633
 3366SOL     OW20096   5.703   4.877   3.078
 3366SOL    HW120097   5.790   4.830   3.063
 3366SOL    HW220098   5.667   4.910   2.991
 3367SOL     OW20099   4.990   4.826   5.936
 3367SOL    HW120100   5.009   4.923   5.921
 3367SOL    HW220101   4.964   4.811   6.032
 3368SOL     OW20102   3.771   3.863   1.556
 3368SOL    HW120103   3.814   3.928   1.619
 3368SOL    HW220104   3.763   3.905   1.465
 3369SOL     OW20105   5.833   7.038   7.869
 3369SOL    HW120106   5.753   6.991   7.831
 3369SOL    HW220107   5.813   7.072   7.961
 3370SOL     OW20108   2.887   0.301   7.939
 3370SOL    HW120109   2.946   0.353   8.000
 3370SOL    HW220110   2.871   0.352   7.855
 3371SOL     OW20111   3.856   7.902   0.934
 3371SOL    HW120112   3.827   7.990   0.975
 3371SOL    HW220113   3.824   7.896   0.840
 3372SOL     OW20114   0.473   1.816   2.331
 3372SOL    HW120115   0.413   1.855   2.401
 3372SOL    HW220116   0.539   1.754   2.374
 3373SOL     OW20117   6.340   3.680   1.146
 3373SOL    HW120118   6.350   3.662   1.244
 3373SOL    HW220119   6.312   3.596   1.099
 3374SOL     OW20120   6.510   2.423   0.993
 3374SOL    HW120121   6.553   2.457   1.077
 3374SOL    HW220122   6.561   2.345   0.958
 3375SOL     OW20123   5.348   2.907   1.138
 3375SOL    HW120124   5.305   2.820   1.112
 3375SOL    HW220125   5.434   2.919   1.088
 3376SOL     OW20126   3.565   6.259   6.609
 3376SOL    HW120127   3.559   6.181   6.672
 3376SOL    HW220128   3.475   6.278   6.569
 3377SOL     OW20129   5.691   5.459   2.457
 3377SOL    HW120130   5.596   5.431   2.444
 3377SOL    HW220131   5.752   5.393   2.413
 3378SOL     OW20132   6.992   7.640   1.289
 3378SOL    HW120133   7.022   7.714   1.349
 3378SOL    HW220134   6.911   7.668   1.238
 3379SOL     OW20135   6.602   1.314   4.928
 3379SOL    HW120136   6.550   1.397   4.948
 3379SOL    HW220137   6.634   1.273   5.013
 3380SOL     OW20138   1.568   6.167   0.535
 3380SOL    HW120139   1.604   6.260   0.527
 3380SOL    HW220140   1.478   6.168   0.579
 3381SOL     OW20141   3.737   1.718   2.195
 3381SOL    HW120142   3.828   1.693   2.161
 3381SOL    HW220143   3.677   1.742   2.119
 3382SOL     OW20144   7.639   7.334   7.103
 3382SOL    HW120145   7.621   7.272   7.179
 3382SOL    HW220146   7.730   7.373   7.111
 3383SOL     OW20147   4.463   0.966   0.365
 3383SOL    HW120148   4.380   0.918   0.392
 3383SOL    HW220149   4.483   0.949   0.268
 3384SOL     OW20150   6.859   5.975   0.819
 3384SOL    HW120151   6.858   6.022   0.731
 3384SOL    HW220152   6.940   5.916   0.825
 3385SOL     OW20153   5.368   3.824   5.256
 3385SOL    HW120154   5.328   3.741   5.297
 3385SOL    HW220155   5.434   3.798   5.186
 3386SOL     OW20156   7.782   0.656   0.740
 3386SOL    HW120157   7.818   0.626   0.828
 3386SOL    HW220158   7.815   0.595   0.668
 3387SOL     OW20159   5.229   0.878   7.694
 3387SOL    HW120160   5.222   0.802   7.630
 3387SOL    HW220161   5.173   0.861   7.774
 3388SOL     OW20162   3.253   1.250   2.257
 3388SOL    HW120163   3.260   1.153   2.236
 3388SOL    HW220164   3.276   1.266   2.354
 3389SOL     OW20165   5.969   4.466   1.635
 3389SOL    HW120166   5.941   4.378   1.676
 3389SOL    HW220167   6.000   4.452   1.541
 3390SOL     OW20168   2.385   5.072   6.677
 3390SOL    HW120169   2.479   5.047   6.700
 3390SOL    HW220170   2.355   5.022   6.596
 3391SOL     OW20171   3.670   7.653   0.912
 3391SOL    HW120172   3.622   7.565   0.907
 3391SOL    HW220173   3.618   7.723   0.863
 3392SOL     OW20174   6.013   2.242   4.334
 3392SOL    HW120175   5.927   2.292   4.334
 3392SOL    HW220176   6.072   2.274   4.408
 3393SOL     OW20177   3.116   6.080   3.758
 3393SOL    HW120178   3.159   6.143   3.824
 3393SOL    HW220179   3.155   5.989   3.768
 3394SOL     OW20180   6.433   6.096   0.170
 3394SOL    HW120181   6.431   6.155   0.089
 3394SOL    HW220182   6.407   6.148   0.251
 3395SOL     OW20183   0.214   3.226   2.365
 3395SOL    HW120184   0.292   3.275   2.405
 3395SOL    HW220185   0.198   3.258   2.272
 3396SOL     OW20186   6.962   4.068   3.870
 3396SOL    HW120187   7.030   4.133   3.836
 3396SOL    HW220188   6.912   4.108   3.947
 3397SOL     OW20189   2.428   3.315   5.294
 3397SOL    HW120190   2.477   3.355   5.371
 3397SOL    HW220191   2.338   3.359   5.285
 3398SOL     OW20192   3.537   5.891   4.414
 3398SOL    HW120193   3.481   5.843   4.346
 3398SOL    HW220194   3.520   5.989   4.411
 3399SOL     OW20195   5.583   7.990   0.618
 3399SOL    HW120196   5.566   7.897   0.586
 3399SOL    HW220197   5.552   7.999   0.713
 3400SOL     OW20198   2.556   0.824   5.583
 3400SOL    HW120199   2.602   0.860   5.664
 3400SOL    HW220200   2.589   0.872   5.501
 3401SOL     OW20201   3.610   5.654   0.652
 3401SOL    HW120202   3.553   5.633   0.732
 3401SOL    HW220203   3.563   5.718   0.592
 3402SOL     OW20204   1.849   2.865   7.509
 3402SOL    HW120205   1.917   2.793   7.524
 3402SOL    HW220206   1.758   2.833   7.535
 3403SOL     OW20207   1.216   3.385   5.659
 3403SOL    HW120208   1.208   3.485   5.655
 3403SOL    HW220209   1.255   3.350   5.575
 3404SOL     OW20210   1.853   2.027   0.015
 3404SOL    HW120211   1.857   1.928  -0.000
 3404SOL    HW220212   1.915   2.053   0.088
 3405SOL     OW20213   3.795   2.228   0.685
 3405SOL    HW120214   3.701   2.206   0.715
 3405SOL    HW220215   3.820   2.319   0.716
 3406SOL     OW20216   2.092   5.601   3.155
 3406SOL    HW120217   2.179   5.649   3.166
 3406SOL    HW220218   2.042   5.638   3.077
 3407SOL     OW20219   3.165   7.417   0.640
 3407SOL    HW120220   3.167   7.391   0.737
 3407SOL    HW220221   3.158   7.516   0.631
 3408SOL     OW20222   1.019   3.383   4.960
 3408SOL    HW120223   0.942   3.415   5.015
 3408SOL    HW220224   1.063   3.305   5.004
 3409SOL     OW20225   0.645   0.572   2.902
 3409SOL    HW120226   0.586   0.493   2.915
 3409SOL    HW220227   0.657   0.621   2.989
 3410SOL     OW20228   3.221   5.498   6.176
 3410SOL    HW120229   3.211   5.422   6.112
 3410SOL    HW220230   3.192   5.583   6.131
 3411SOL     OW20231   7.176   7.158   4.079
 3411SOL    HW120232   7.202   7.076   4.130
 3411SOL    HW220233   7.241   7.232   4.097
 3412SOL     OW20234   2.089   3.255   0.812
 3412SOL    HW120235   2.104   3.346   0.774
 3412SOL    HW220236   2.128   3.249   0.904
 3413SOL     OW20237   0.579   5.417   1.224
 3413SOL    HW120238   0.567   5.467   1.310
 3413SOL    HW220239   0.587   5.482   1.148
 3414SOL     OW20240   7.690   5.787   3.984
 3414SOL    HW120241   7.592   5.804   3.975
 3414SOL    HW220242   7.727   5.755   3.898
 3415SOL     OW20243   4.955   3.402   0.712
 3415SOL    HW120244   5.054   3.410   0.697
 3415SOL    HW220245   4.908   3.483   0.678
 3416SOL     OW20246   1.267   6.564   5.322
 3416SOL    HW120247   1.259   6.556   5.421
 3416SOL    HW220248   1.283   6.474   5.282
 3417SOL     OW20249   0.482   5.123   5.292
 3417SOL    HW120250   0.567   5.082   5.326
 3417SOL    HW220251   0.498   5.167   5.204
 3418SOL     OW20252   6.126   4.695   5.861
 3418SOL    HW120253   6.135   4.788   5.898
 3418SOL    HW220254   6.113   4.630   5.936
 3419SOL     OW20255   5.890   7.479   2.933
 3419SOL    HW120256   5.897   7.398   2.991
 3419SOL    HW220257   5.973   7.488   2.876
 3420SOL     OW20258   4.596   1.295   4.218
 3420SOL    HW120259   4.674   1.358   4.214
 3420SOL    HW220260   4.589   1.255   4.309
 3421SOL     OW20261   4.119   0.835   2.208
 3421SOL    HW120262   4.217   0.843   2.193
 3421SOL    HW220263   4.101   0.787   2.294
 3422SOL     OW20264   1.115   5.530   3.140
 3422SOL    HW120265   1.062   5.614   3.155
 3422SOL    HW220266   1.208   5.541   3.176
 3423SOL     OW20267   3.585   1.264   1.365
 3423SOL    HW120268   3.509   1.237   1.425
 3423SOL    HW220269   3.573   1.224   1.275
 3424SOL     OW20270   5.629   0.442   4.984
 3424SOL    HW120271   5.671   0.394   5.061
 3424SOL    HW220272   5.538   0.474   5.009
 3425SOL     OW20273   3.094   0.594   7.147
 3425SOL    HW120274   3.169   0.541   7.107
 3425SOL    HW220275   3.019   0.601   7.081
 3426SOL     OW20276   3.669   7.579   5.236
 3426SOL    HW120277   3.591   7.548   5.290
 3426SOL    HW220278   3.645   7.584   5.139
 3427SOL     OW20279   0.420   4.199   5.217
 3427SOL    HW120280   0.517   4.192   5.238
 3427SOL    HW220281   0.398   4.144   5.136
 3428SOL     OW20282   3.968   6.890   3.069
 3428SOL    HW120283   4.023   6.877   2.986
 3428SOL    HW220284   4.012   6.845   3.146
 3429SOL     OW20285   2.421   1.042   1.438
 3429SOL    HW120286   2.383   1.124   1.393
 3429SOL    HW220287   2.447   1.064   1.532
 3430SOL     OW20288   5.752   0.343   4.484
 3430SOL    HW120289   5.811   0.386   4.416
 3430SOL    HW220290   5.704   0.266   4.444
 3431SOL     OW20291   5.532   6.588   5.032
 3431SOL    HW120292   5.543   6.677   5.075
 3431SOL    HW220293   5.479   6.598   4.948
 3432SOL     OW20294   7.948   5.604   5.095
 3432SOL    HW120295   7.891   5.533   5.137
 3432SOL    HW220296   7.985   5.571   5.008
 3433SOL     OW20297   0.544   3.943   6.854
 3433SOL    HW120298   0.459   3.961   6.804
 3433SOL    HW220299   0.539   3.986   6.944
 3434SOL     OW20300   5.794   0.780   5.332
 3434SOL    HW120301   5.807   0.869   5.288
 3434SOL    HW220302   5.825   0.784   5.427
 3435SOL     OW20303   5.009   4.809   4.245
 3435SOL    HW120304   5.082   4.773   4.303
 3435SOL    HW220305   4.981   4.899   4.276
 3436SOL     OW20306   2.997   7.786   2.295
 3436SOL    HW120307   2.914   7.732   2.310
 3436SOL    HW220308   3.061   7.736   2.236
 3437SOL     OW20309   1.389   3.451   4.001
 3437SOL    HW120310   1.336   3.528   4.035
 3437SOL    HW220311   1.465   3.483   3.945
 3438SOL     OW20312   0.892   6.300   1.630
 3438SOL    HW120313   0.842   6.306   1.717
 3438SOL    HW220314   0.856   6.225   1.575
 3439SOL     OW20315   7.337   2.415   1.009
 3439SOL    HW120316   7.418   2.442   1.060
 3439SOL    HW220317   7.349   2.434   0.912
 3440SOL     OW20318   5.935   7.010   7.588
 3440SOL    HW120319   5.942   6.985   7.685
 3440SOL    HW220320   5.897   6.933   7.536
 3441SOL     OW20321   1.614   6.346   6.988
 3441SOL    HW120322   1.675   6.410   7.035
 3441SOL    HW220323   1.597   6.377   6.895
 3442SOL     OW20324   0.896   4.523   5.665
 3442SOL    HW120325   0.908   4.428   5.637
 3442SOL    HW220326   0.889   4.530   5.764
 3443SOL     OW20327   3.588   5.319   5.227
 3443SOL    HW120328   3.678   5.348   5.194
 3443SOL    HW220329   3.565   5.230   5.188
 3444SOL     OW20330   1.933   2.756   4.859
 3444SOL    HW120331   1.896   2.788   4.946
 3444SOL    HW220332   1.886   2.672   4.831
 3445SOL     OW20333   0.609   0.359   5.603
 3445SOL    HW120334   0.699   0.373   5.644
 3445SOL    HW220335   0.556   0.296   5.659
 3446SOL     OW20336   6.708   1.578   7.018
 3446SOL    HW120337   6.801   1.615   7.028
 3446SOL    HW220338   6.667   1.613   6.934
 3447SOL     OW20339   2.801   4.968   3.769
 3447SOL    HW120340   2.815   4.875   3.735
 3447SOL    HW220341   2.706   4.981   3.797
 3448SOL     OW20342   4.966   7.464   3.889
 3448SOL    HW120343   5.006   7.508   3.970
 3448SOL    HW220344   5.024   7.390   3.858
 3449SOL     OW20345   1.900   2.361   6.904
 3449SOL    HW120346   1.875   2.364   6.807
 3449SOL    HW220347   1.837   2.302   6.954
 3450SOL     OW20348   4.074   1.717   7.019
 3450SOL    HW120349   4.021   1.633   7.013
 3450SOL    HW220350   4.141   1.710   7.094
 3451SOL     OW20351   7.591   0.743   2.440
 3451SOL    HW120352   7.599   0.843   2.442
 3451SOL    HW220353   7.643   0.707   2.362
 3452SOL     OW20354   1.819   5.820   2.424
 3452SOL    HW120355   1.905   5.785   2.463
 3452SOL    HW220356   1.742   5.769   2.462
 3453SOL     OW20357   1.146   6.120   3.968
 3453SOL    HW120358   1.069   6.094   4.025
 3453SOL    HW220359   1.122   6.198   3.910
 3454SOL     OW20360   7.357   1.704   1.515
 3454SOL    HW120361   7.264   1.673   1.531
 3454SOL    HW220362   7.365   1.742   1.423
 3455SOL     OW20363   0.690   3.037   3.649
 3455SOL    HW120364   0.632   2.987   3.714
 3455SOL    HW220365   0.646   3.124   3.625
 3456SOL     OW20366   2.877   7.748   3.156
 3456SOL    HW120367   2.924   7.662   3.138
 3456SOL    HW220368   2.781   7.731   3.179
 3457SOL     OW20369   2.753   3.762   4.443
 3457SOL    HW120370   2.733   3.709   4.525
 3457SOL    HW220371   2.684   3.744   4.373
 3458SOL     OW20372   7.225   6.782   4.953
 3458SOL    HW120373   7.296   6.851   4.966
 3458SOL    HW220374   7.144   6.807   5.006
 3459SOL     OW20375   4.653   1.800   1.102
 3459SOL    HW120376   4.616   1.892   1.085
 3459SOL    HW220377   4.622   1.737   1.031
 3460SOL     OW20378   0.942   0.446   3.023
 3460SOL    HW120379   0.902   0.517   2.964
 3460SOL    HW220380   0.951   0.480   3.116
 3461SOL     OW20381   1.236   7.574   6.193
 3461SOL    HW120382   1.200   7.663   6.220
 3461SOL    HW220383   1.316   7.585   6.135
 3462SOL     OW20384   4.409   1.358   1.540
 3462SOL    HW120385   4.508   1.370   1.550
 3462SOL    HW220386   4.377   1.285   1.600
 3463SOL     OW20387   7.442   1.303   5.120
 3463SOL    HW120388   7.361   1.284   5.175
 3463SOL    HW220389   7.519   1.248   5.153
 3464SOL     OW20390   5.415   5.364   7.769
 3464SOL    HW120391   5.336   5.342   7.711
 3464SOL    HW220392   5.389   5.435   7.834
 3465SOL     OW20393   7.457   2.304   7.686
 3465SOL    HW120394   7.443   2.316   7.784
 3465SOL    HW220395   7.400   2.229   7.652
 3466SOL     OW20396   2.094   0.538   3.871
 3466SOL    HW120397   2.119   0.445   3.843
 3466SOL    HW220398   2.112   0.603   3.797
 3467SOL     OW20399   4.208   5.865   3.645
 3467SOL    HW120400   4.168   5.790   3.696
 3467SOL    HW220401   4.284   5.832   3.589
 3468SOL     OW20402   5.990   2.443   2.728
 3468SOL    HW120403   6.044   2.462   2.647
 3468SOL    HW220404   5.964   2.347   2.730
 3469SOL     OW20405   3.894   0.978   7.317
 3469SOL    HW120406   3.899   0.997   7.219
 3469SOL    HW220407   3.985   0.984   7.358
 3470SOL     OW20408   1.946   0.510   4.050
 3470SOL    HW120409   1.886   0.536   4.126
 3470SOL    HW220410   1.892   0.482   3.971
 3471SOL     OW20411   1.991   5.207   0.073
 3471SOL    HW120412   1.997   5.285   0.010
 3471SOL    HW220413   1.957   5.127   0.024
 3472SOL     OW20414   5.437   7.752   5.943
 3472SOL    HW120415   5.512   7.776   5.881
 3472SOL    HW220416   5.468   7.683   6.009
 3473SOL     OW20417   3.485   1.528   5.973
 3473SOL    HW120418   3.386   1.524   5.962
 3473SOL    HW220419   3.530   1.507   5.886
 3474SOL     OW20420   1.398   3.979   6.063
 3474SOL    HW120421   1.456   4.058   6.082
 3474SOL    HW220422   1.409   3.910   6.134
 3475SOL     OW20423   2.230   2.058   3.863
 3475SOL    HW120424   2.266   2.001   3.937
 3475SOL    HW220425   2.301   2.073   3.794
 3476SOL     OW20426   0.291   7.999   2.021
 3476SOL    HW120427   0.205   7.963   2.056
 3476SOL    HW220428   0.362   7.929   2.024
 3477SOL     OW20429   6.838   0.694   6.842
 3477SOL    HW120430   6.763   0.719   6.903
 3477SOL    HW220431   6.923   0.735   6.874
 3478SOL     OW20432   1.956   4.495   2.391
 3478SOL    HW120433   1.871   4.535   2.358
 3478SOL    HW220434   2.017   4.566   2.425
 3479SOL     OW20435   7.891   4.394   7.797
 3479SOL    HW120436   7.982   4.377   7.835
 3479SOL    HW220437   7.891   4.374   7.698
 3480SOL     OW20438   1.550   5.602   2.168
 3480SOL    HW120439   1.631   5.552   2.199
 3480SOL    HW220440   1.488   5.539   2.120
 3481SOL     OW20441   7.347   5.914   3.454
 3481SOL    HW120442   7.393   6.003   3.446
 3481SOL    HW220443   7.350   5.883   3.549
 3482SOL     OW20444   3.647   0.825   4.657
 3482SOL    HW120445   3.641   0.884   4.577
 3482SOL    HW220446   3.634   0.879   4.740
 3483SOL     OW20447   0.721   4.040   3.609
 3483SOL    HW120448   0.751   3.960   3.557
 3483SOL    HW220449   0.665   4.012   3.687
 3484SOL     OW20450   3.809   6.096   1.781
 3484SOL    HW120451   3.826   6.095   1.879
 3484SOL    HW220452   3.848   6.178   1.740
 3485SOL     OW20453   5.067   5.085   3.890
 3485SOL    HW120454   5.136   5.056   3.824
 3485SOL    HW220455   4.988   5.122   3.842
 3486SOL     OW20456   5.394   4.046   2.766
 3486SOL    HW120457   5.395   3.948   2.786
 3486SOL    HW220458   5.438   4.063   2.678
 3487SOL     OW20459   7.065   2.598   0.175
 3487SOL    HW120460   7.019   2.531   0.118
 3487SOL    HW220461   6.999   2.643   0.235
 3488SOL     OW20462   3.646   7.403   4.276
 3488SOL    HW120463   3.566   7.348   4.252
 3488SOL    HW220464   3.690   7.437   4.194
 3489SOL     OW20465   4.070   2.030   3.224
 3489SOL    HW120466   4.058   2.123   3.188
 3489SOL    HW220467   4.107   2.034   3.317
 3490SOL     OW20468   1.024   0.565   5.056
 3490SOL    HW120469   1.007   0.590   5.152
 3490SOL    HW220470   1.111   0.603   5.025
 3491SOL     OW20471   0.007   6.313   2.797
 3491SOL    HW120472   0.031   6.396   2.847
 3491SOL    HW220473  -0.000   6.333   2.699
 3492SOL     OW20474   6.647   4.315   2.003
 3492SOL    HW120475   6.644   4.235   1.943
 3492SOL    HW220476   6.554   4.346   2.023
 3493SOL     OW20477   0.125   2.093   1.541
 3493SOL    HW120478   0.106   2.024   1.611
 3493SOL    HW220479   0.086   2.064   1.453
 3494SOL     OW20480   6.416   5.391   1.610
 3494SOL    HW120481   6.471   5.394   1.527
 3494SOL    HW220482   6.402   5.296   1.639
 3495SOL     OW20483   7.623   4.968   7.719
 3495SOL    HW120484   7.605   5.065   7.734
 3495SOL    HW220485   7.647   4.952   7.623
 3496SOL     OW20486   0.993   0.997   7.082
 3496SOL    HW120487   0.912   1.009   7.140
 3496SOL    HW220488   1.028   1.085   7.052
 3497SOL     OW20489   5.705   1.695   0.240
 3497SOL    HW120490   5.719   1.687   0.141
 3497SOL    HW220491   5.677   1.788   0.264
 3498SOL     OW20492   7.884   3.599   0.779
 3498SOL    HW120493   7.799   3.574   0.826
 3498SOL    HW220494   7.902   3.536   0.704
 3499SOL     OW20495   4.686   2.448   7.379
 3499SOL    HW120496   4.745   2.379   7.337
 3499SOL    HW220497   4.698   2.536   7.334
 3500SOL     OW20498   4.322   2.441   5.253
 3500SOL    HW120499   4.324   2.541   5.262
 3500SOL    HW220500   4.415   2.406   5.244
 3501SOL     OW20501   3.464   0.745   6.683
 3501SOL    HW120502   3.372   0.728   6.720
 3501SOL    HW220503   3.471   0.707   6.591
 3502SOL     OW20504   1.931   4.968   4.144
 3502SOL    HW120505   1.892   4.904   4.209
 3502SOL    HW220506   1.899   5.061   4.163
 3503SOL     OW20507   1.321   3.983   6.500
 3503SOL    HW120508   1.278   3.914   6.442
 3503SOL    HW220509   1.263   4.002   6.579
 3504SOL     OW20510   2.512   6.455   7.899
 3504SOL    HW120511   2.462   6.372   7.872
 3504SOL    HW220512   2.513   6.463   7.999
 3505SOL     OW20513   7.542   0.580   0.223
 3505SOL    HW120514   7.609   0.646   0.190
 3505SOL    HW220515   7.568   0.548   0.315
 3506SOL     OW20516   5.114   6.892   4.624
 3506SOL    HW120517   5.124   6.797   4.654
 3506SOL    HW220518   5.080   6.947   4.700
 3507SOL     OW20519   5.479   5.797   5.817
 3507SOL    HW120520   5.567   5.838   5.841
 3507SOL    HW220521   5.472   5.786   5.718
 3508SOL     OW20522   7.437   7.514   2.865
 3508SOL    HW120523   7.346   7.548   2.842
 3508SOL    HW220524   7.466   7.550   2.953
 3509SOL     OW20525   0.638   7.853   1.976
 3509SOL    HW120526   0.717   7.793   1.965
 3509SOL    HW220527   0.655   7.939   1.927
 3510SOL     OW20528   7.794   4.968   2.270
 3510SOL    HW120529   7.880   5.000   2.228
 3510SOL    HW220530   7.774   4.875   2.238
 3511SOL     OW20531   0.912   4.049   0.988
 3511SOL    HW120532   0.941   3.966   0.940
 3511SOL    HW220533   0.875   4.025   1.078
 3512SOL     OW20534   7.803   2.257   1.208
 3512SOL    HW120535   7.753   2.187   1.156
 3512SOL    HW220536   7.774   2.348   1.177
 3513SOL     OW20537   0.339   0.678   7.139
 3513SOL    HW120538   0.272   0.693   7.212
 3513SOL    HW220539   0.300   0.702   7.050
 3514SOL     OW20540   0.868   4.466   2.899
 3514SOL    HW120541   0.790   4.416   2.860
 3514SOL    HW220542   0.878   4.443   2.996
 3515SOL     OW20543   7.111   7.710   6.005
 3515SOL    HW120544   7.130   7.719   5.908
 3515SOL    HW220545   7.196   7.699   6.056
 3516SOL     OW20546   1.456   6.857   7.050
 3516SOL    HW120547   1.486   6.931   6.990
 3516SOL    HW220548   1.524   6.784   7.050
 3517SOL     OW20549   3.451   3.791   7.146
 3517SOL    HW120550   3.516   3.741   7.088
 3517SOL    HW220551   3.453   3.754   7.239
 3518SOL     OW20552   2.759   6.166   7.001
 3518SOL    HW120553   2.855   6.154   6.974
 3518SOL    HW220554   2.743   6.125   7.090
 3519SOL     OW20555   3.421   6.750   5.848
 3519SOL    HW120556   3.517   6.724   5.838
 3519SOL    HW220557   3.376   6.693   5.917
 3520SOL     OW20558   5.026   0.947   4.874
 3520SOL    HW120559   5.014   0.848   4.873
 3520SOL    HW220560   5.058   0.977   4.964
 3521SOL     OW20561   2.569   2.006   3.367
 3521SOL    HW120562   2.654   2.035   3.410
 3521SOL    HW220563   2.560   2.048   3.277
 3522SOL     OW20564   4.370   6.446   1.707
 3522SOL    HW120565   4.287   6.486   1.667
 3522SOL    HW220566   4.366   6.346   1.703
 3523SOL     OW20567   1.770   7.531   3.819
 3523SOL    HW120568   1.686   7.482   3.795
 3523SOL    HW220569   1.756   7.583   3.904
 3524SOL     OW20570   7.343   3.253   7.657
 3524SOL    HW120571   7.319   3.155   7.652
 3524SOL    HW220572   7.297   3.295   7.736
 3525SOL     OW20573   3.278   4.212   5.114
 3525SOL    HW120574   3.332   4.296   5.124
 3525SOL    HW220575   3.268   4.167   5.203
 3526SOL     OW20576   5.923   1.297   3.295
 3526SOL    HW120577   5.953   1.289   3.200
 3526SOL    HW220578   5.915   1.207   3.336
 3527SOL     OW20579   2.129   6.339   5.567
 3527SOL    HW120580   2.087   6.409   5.625
 3527SOL    HW220581   2.082   6.333   5.480
 3528SOL     OW20582   6.102   5.946   3.232
 3528SOL    HW120583   6.170   6.001   3.183
 3528SOL    HW220584   6.117   5.849   3.214
 3529SOL     OW20585   5.836   4.544   7.915
 3529SOL    HW120586   5.834   4.542   7.814
 3529SOL    HW220587   5.931   4.548   7.946
 3530SOL     OW20588   3.131   3.942   0.861
 3530SOL    HW120589   3.085   4.030   0.877
 3530SOL    HW220590   3.229   3.953   0.873
 3531SOL     OW20591   3.248   0.671   1.604
 3531SOL    HW120592   3.276   0.634   1.693
 3531SOL    HW220593   3.314   0.738   1.572
 3532SOL     OW20594   2.906   4.862   7.085
 3532SOL    HW120595   2.997   4.835   7.052
 3532SOL    HW220596   2.893   4.827   7.178
 3533SOL     OW20597   2.432   7.042   0.840
 3533SOL    HW120598   2.400   6.952   0.807
 3533SOL    HW220599   2.487   7.086   0.769
 3534SOL     OW20600   1.440   6.306   2.062
 3534SOL    HW120601   1.411   6.322   1.967
 3534SOL    HW220602   1.472   6.212   2.072
 3535SOL     OW20603   3.723   6.400   1.668
 3535SOL    HW120604   3.749   6.484   1.622
 3535SOL    HW220605   3.776   6.389   1.753
 3536SOL     OW20606   1.236   0.652   1.290
 3536SOL    HW120607   1.242   0.671   1.192
 3536SOL    HW220608   1.186   0.568   1.305
 3537SOL     OW20609   0.078   7.774   4.293
 3537SOL    HW120610  -0.000   7.721   4.259
 3537SOL    HW220611   0.063   7.798   4.389
 3538SOL     OW20612   5.089   4.549   0.863
 3538SOL    HW120613   5.021   4.611   0.902
 3538SOL    HW220614   5.127   4.490   0.935
 3539SOL     OW20615   2.515   4.995   5.396
 3539SOL    HW120616   2.425   5.019   5.433
 3539SOL    HW220617   2.581   5.068   5.418
 3540SOL     OW20618   6.353   2.711   5.594
 3540SOL    HW120619   6.380   2.737   5.502
 3540SOL    HW220620   6.304   2.624   5.593
 3541SOL     OW20621   7.377   1.315   7.401
 3541SOL    HW120622   7.385   1.373   7.483
 3541SOL    HW220623   7.383   1.372   7.319
 3542SOL     OW20624   1.327   5.983   2.226
 3542SOL    HW120625   1.303   6.041   2.304
 3542SOL    HW220626   1.365   5.896   2.259
 3543SOL     OW20627   8.000   3.447   7.370
 3543SOL    HW120628   7.973   3.531   7.322
 3543SOL    HW220629   7.998   3.462   7.468
 3544SOL     OW20630   0.844   3.909   6.702
 3544SOL    HW120631   0.796   3.917   6.614
 3544SOL    HW220632   0.803   3.836   6.756
 3545SOL     OW20633   3.499   7.774   1.057
 3545SOL    HW120634   3.590   7.752   1.092
 3545SOL    HW220635   3.448   7.690   1.041
 3546SOL     OW20636   6.861   6.807   6.339
 3546SOL    HW120637   6.866   6.713   6.306
 3546SOL    HW220638   6.824   6.809   6.431
 3547SOL     OW20639   3.872   2.518   5.969
 3547SOL    HW120640   3.967   2.531   5.941
 3547SOL    HW220641   3.867   2.454   6.045
 3548SOL     OW20642   5.296  -0.000   2.600
 3548SOL    HW120643   5.202   0.036   2.595
 3548SOL    HW220644   5.345   0.020   2.516
 3549SOL     OW20645   4.756   4.597   6.884
 3549SOL    HW120646   4.727   4.502   6.884
 3549SOL    HW220647   4.848   4.604   6.924
 3550SOL     OW20648   0.290   3.782   1.893
 3550SOL    HW120649   0.218   3.845   1.923
 3550SOL    HW220650   0.292   3.702   1.953
 3551SOL     OW20651   6.892   6.263   4.023
 3551SOL    HW120652   6.810   6.260   4.079
 3551SOL    HW220653   6.876   6.318   3.941
 3552SOL     OW20654   7.684   1.922   6.813
 3552SOL    HW120655   7.664   1.989   6.884
 3552SOL    HW220656   7.653   1.956   6.724
 3553SOL     OW20657   1.416   0.445   2.954
 3553SOL    HW120658   1.337   0.470   2.899
 3553SOL    HW220659   1.414   0.347   2.975
 3554SOL     OW20660   0.104   4.104   1.312
 3554SOL    HW120661   0.087   4.006   1.298
 3554SOL    HW220662   0.086   4.128   1.407
 3555SOL     OW20663   0.239   3.471   2.043
 3555SOL    HW120664   0.192   3.431   1.964
 3555SOL    HW220665   0.173   3.521   2.099
 3556SOL     OW20666   1.833   4.731   2.530
 3556SOL    HW120667   1.748   4.768   2.492
 3556SOL    HW220668   1.848   4.767   2.622
 3557SOL     OW20669   2.003   7.927   1.113
 3557SOL    HW120670   1.969   7.853   1.172
 3557SOL    HW220671   1.964   7.917   1.021
 3558SOL     OW20672   2.089   7.726   7.200
 3558SOL    HW120673   2.130   7.643   7.163
 3558SOL    HW220674   2.053   7.782   7.125
 3559SOL     OW20675   3.071   7.441   2.099
 3559SOL    HW120676   3.029   7.386   2.027
 3559SOL    HW220677   3.093   7.383   2.177
 3560SOL     OW20678   7.389   4.902   0.691
 3560SOL    HW120679   7.293   4.894   0.663
 3560SOL    HW220680   7.395   4.959   0.772
 3561SOL     OW20681   6.560   7.455   5.342
 3561SOL    HW120682   6.541   7.550   5.368
 3561SOL    HW220683   6.518   7.436   5.253
 3562SOL     OW20684   7.685   2.144   0.459
 3562SOL    HW120685   7.716   2.235   0.488
 3562SOL    HW220686   7.679   2.084   0.538
 3563SOL     OW20687   0.645   4.635   4.770
 3563SOL    HW120688   0.592   4.575   4.710
 3563SOL    HW220689   0.717   4.680   4.718
 3564SOL     OW20690   2.794   5.027   7.579
 3564SOL    HW120691   2.827   5.111   7.535
 3564SOL    HW220692   2.868   4.986   7.633
 3565SOL     OW20693   6.225   0.185   7.157
 3565SOL    HW120694   6.281   0.250   7.106
 3565SOL    HW220695   6.259   0.178   7.251
 3566SOL     OW20696   1.214   7.960   1.668
 3566SOL    HW120697   1.130   8.000   1.629
 3566SOL    HW220698   1.222   7.986   1.764
 3567SOL     OW20699   1.291   4.429   2.322
 3567SOL    HW120700   1.364   4.452   2.386
 3567SOL    HW220701   1.329   4.406   2.233
 3568SOL     OW20702   3.745   7.391   0.790
 3568SOL    HW120703   3.754   7.472   0.732
 3568SOL    HW220704   3.816   7.391   0.861
 3569SOL     OW20705   3.527   1.480   1.448
 3569SOL    HW120706   3.441   1.446   1.412
 3569SOL    HW220707   3.513   1.516   1.540
 3570SOL     OW20708   2.756   1.527   7.301
 3570SOL    HW120709   2.839   1.537   7.356
 3570SOL    HW220710   2.684   1.484   7.355
 3571SOL     OW20711   5.700   3.143   2.625
 3571SOL    HW120712   5.655   3.147   2.536
 3571SOL    HW220713   5.719   3.236   2.657
 3572SOL     OW20714   0.821   4.052   2.167
 3572SOL    HW120715   0.880   4.076   2.089
 3572SOL    HW220716   0.876   4.045   2.250
 3573SOL     OW20717   5.613   3.805   2.722
 3573SOL    HW120718   5.577   3.887   2.678
 3573SOL    HW220719   5.540   3.739   2.739
 3574SOL     OW20720   7.868   3.854   0.729
 3574SOL    HW120721   7.794   3.800   0.770
 3574SOL    HW220722   7.889   3.819   0.637
 3575SOL     OW20723   4.031   0.502   1.019
 3575SOL    HW120724   4.115   0.510   0.966
 3575SOL    HW220725   4.008   0.591   1.060
 3576SOL     OW20726   5.059   4.209   2.599
 3576SOL    HW120727   5.006   4.283   2.641
 3576SOL    HW220728   5.154   4.238   2.587
 3577SOL     OW20729   4.448   1.425   3.276
 3577SOL    HW120730   4.534   1.467   3.302
 3577SOL    HW220731   4.465   1.336   3.233
 3578SOL     OW20732   7.063   1.326   6.916
 3578SOL    HW120733   7.091   1.342   6.822
 3578SOL    HW220734   6.965   1.343   6.927
 3579SOL     OW20735   3.808   6.451   5.298
 3579SOL    HW120736   3.905   6.441   5.279
 3579SOL    HW220737   3.788   6.543   5.331
 3580SOL     OW20738   1.672   7.574   6.869
 3580SOL    HW120739   1.625   7.487   6.886
 3580SOL    HW220740   1.651   7.639   6.942
 3581SOL     OW20741   5.971   2.375   1.577
 3581SOL    HW120742   5.886   2.341   1.615
 3581SOL    HW220743   6.019   2.432   1.644
 3582SOL     OW20744   0.575   4.324   2.835
 3582SOL    HW120745   0.552   4.266   2.757
 3582SOL    HW220746   0.494   4.338   2.892
 3583SOL     OW20747   2.178   4.029   6.739
 3583SOL    HW120748   2.188   3.932   6.764
 3583SOL    HW220749   2.145   4.036   6.646
 3584SOL     OW20750   6.348  -0.000   6.103
 3584SOL    HW120751   6.443   0.030   6.101
 3584SOL    HW220752   6.300   0.043   6.180
 3585SOL     OW20753   3.174   6.524   1.978
 3585SOL    HW120754   3.209   6.600   1.924
 3585SOL    HW220755   3.245   6.489   2.039
 3586SOL     OW20756   7.370   1.689   4.545
 3586SOL    HW120757   7.443   1.730   4.599
 3586SOL    HW220758   7.364   1.733   4.456
 3587SOL     OW20759   4.082   3.967   5.634
 3587SOL    HW120760   4.167   3.925   5.601
 3587SOL    HW220761   4.091   3.992   5.730
 3588SOL     OW20762   1.415   1.766   3.322
 3588SOL    HW120763   1.370   1.838   3.269
 3588SOL    HW220764   1.372   1.758   3.412
 3589SOL     OW20765   1.000   0.888   7.628
 3589SOL    HW120766   0.999   0.869   7.530
 3589SOL    HW220767   0.909   0.873   7.667
 3590SOL     OW20768   1.646   5.779   2.997
 3590SOL    HW120769   1.566   5.827   3.033
 3590SOL    HW220770   1.627   5.746   2.904
 3591SOL     OW20771   1.390   6.668   5.924
 3591SOL    HW120772   1.307   6.721   5.907
 3591SOL    HW220773   1.393   6.589   5.863
 3592SOL     OW20774   7.317   0.512   3.227
 3592SOL    HW120775   7.302   0.426   3.178
 3592SOL    HW220776   7.276   0.507   3.318
 3593SOL     OW20777   6.811   7.727   2.774
 3593SOL    HW120778   6.771   7.794   2.712
 3593SOL    HW220779   6.850   7.774   2.854
 3594SOL     OW20780   7.761   7.123   6.089
 3594SOL    HW120781   7.732   7.028   6.089
 3594SOL    HW220782   7.755   7.161   5.996
 3595SOL     OW20783   0.146   5.810   3.408
 3595SOL    HW120784   0.073   5.877   3.392
 3595SOL    HW220785   0.170   5.807   3.504
 3596SOL     OW20786   7.214   5.908   1.686
 3596SOL    HW120787   7.285   5.906   1.757
 3596SOL    HW220788   7.251   5.945   1.601
 3597SOL     OW20789   3.656   6.261   4.046
 3597SOL    HW120790   3.570   6.216   4.069
 3597SOL    HW220791   3.709   6.278   4.129
 3598SOL     OW20792   5.686   4.167   6.957
 3598SOL    HW120793   5.697   4.112   7.039
 3598SOL    HW220794   5.657   4.260   6.982
 3599SOL     OW20795   7.174   0.850   0.930
 3599SOL    HW120796   7.208   0.825   0.840
 3599SOL    HW220797   7.182   0.948   0.945
 3600SOL     OW20798   1.415   0.723   4.449
 3600SOL    HW120799   1.438   0.813   4.486
 3600SOL    HW220800   1.377   0.733   4.357
 3601SOL     OW20801   6.444   2.917   6.840
 3601SOL    HW120802   6.467   2.989   6.775
 3601SOL    HW220803   6.386   2.953   6.912
 3602SOL     OW20804   5.024   3.142   3.206
 3602SOL    HW120805   5.104   3.167   3.261
 3602SOL    HW220806   5.027   3.044   3.186
 3603SOL     OW20807   1.067   6.092   7.940
 3603SOL    HW120808   1.130   6.158   7.898
 3603SOL    HW220809   1.118   6.030   7.999
 3604SOL     OW20810   2.638   1.946   6.738
 3604SOL    HW120811   2.718   1.923   6.793
 3604SOL    HW220812   2.648   1.908   6.646
 3605SOL     OW20813   5.851   0.339   4.035
 3605SOL    HW120814   5.943   0.315   4.002
 3605SOL    HW220815   5.811   0.409   3.976
 3606SOL     OW20816   5.051   4.203   4.478
 3606SOL    HW120817   5.128   4.254   4.516
 3606SOL    HW220818   5.032   4.234   4.385
 3607SOL     OW20819   5.446   3.160   6.457
 3607SOL    HW120820   5.483   3.250   6.481
 3607SOL    HW220821   5.390   3.124   6.531
 3608SOL     OW20822   0.339   0.218   7.337
 3608SOL    HW120823   0.305   0.285   7.403
 3608SOL    HW220824   0.262   0.173   7.293
 3609SOL     OW20825   5.675   0.403   1.510
 3609SOL    HW120826   5.678   0.450   1.421
 3609SOL    HW220827   5.656   0.469   1.583
 3610SOL     OW20828   3.896   6.989   4.616
 3610SOL    HW120829   3.848   7.077   4.613
 3610SOL    HW220830   3.928   6.971   4.710
 3611SOL     OW20831   1.420   1.977   3.568
 3611SOL    HW120832   1.476   1.932   3.498
 3611SOL    HW220833   1.421   1.924   3.652
 3612SOL     OW20834   5.565   4.580   0.740
 3612SOL    HW120835   5.554   4.674   0.773
 3612SOL    HW220836   5.510   4.565   0.658
 3613SOL     OW20837   3.170   7.754   6.183
 3613SOL    HW120838   3.156   7.710   6.272
 3613SOL    HW220839   3.267   7.768   6.166
 3614SOL     OW20840   6.347   2.553   4.413
 3614SOL    HW120841   6.276   2.582   4.349
 3614SOL    HW220842   6.436   2.588   4.384
 3615SOL     OW20843   4.904   2.598   6.049
 3615SOL    HW120844   4.905   2.511   6.100
 3615SOL    HW220845   4.822   2.650   6.072
 3616SOL     OW20846   2.095   1.446   1.957
 3616SOL    HW120847   2.063   1.508   1.886
 3616SOL    HW220848   2.021   1.383   1.983
 3617SOL     OW20849   1.350   3.602   5.313
 3617SOL    HW120850   1.440   3.623   5.276
 3617SOL    HW220851   1.289   3.571   5.240
 3618SOL     OW20852   5.540   4.630   1.829
 3618SOL    HW120853   5.591   4.590   1.905
 3618SOL    HW220854   5.602   4.656   1.755
 3619SOL     OW20855   7.921   1.378   5.056
 3619SOL    HW120856   7.997   1.441   5.039
 3619SOL    HW220857   7.836   1.418   5.021
 3620SOL     OW20858   4.151   1.456   0.608
 3620SOL    HW120859   4.161   1.550   0.576
 3620SOL    HW220860   4.137   1.455   0.707
 3621SOL     OW20861   4.434   5.215   6.930
 3621SOL    HW120862   4.337   5.209   6.954
 3621SOL    HW220863   4.487   5.153   6.988
 3622SOL     OW20864   0.484   5.682   3.417
 3622SOL    HW120865   0.390   5.712   3.437
 3622SOL    HW220866   0.487   5.638   3.327
 3623SOL     OW20867   1.643   4.926   3.680
 3623SOL    HW120868   1.625   4.844   3.734
 3623SOL    HW220869   1.673   4.901   3.588
 3624SOL     OW20870   6.961   2.999   8.001
 3624SOL    HW120871   6.904   2.933   7.951
 3624SOL    HW220872   6.969   3.084   7.948
 3625SOL     OW20873   5.901   2.208   1.401
 3625SOL    HW120874   5.975   2.141   1.392
 3625SOL    HW220875   5.920   2.288   1.343
 3626SOL     OW20876   4.080   4.435   2.652
 3626SOL    HW120877   4.177   4.443   2.628
 3626SOL    HW220878   4.070   4.409   2.748
 3627SOL     OW20879   0.462   4.371   4.195
 3627SOL    HW120880   0.454   4.466   4.165
 3627SOL    HW220881   0.505   4.367   4.286
 3628SOL     OW20882   7.264   5.045   3.483
 3628SOL    HW120883   7.331   4.981   3.445
 3628SOL    HW220884   7.265   5.041   3.583
 3629SOL     OW20885   5.111   6.083   6.505
 3629SOL    HW120886   5.012   6.093   6.504
 3629SOL    HW220887   5.137   5.987   6.499
 3630SOL     OW20888   4.972   3.368   1.537
 3630SOL    HW120889   5.003   3.423   1.459
 3630SOL    HW220890   4.987   3.419   1.622
 3631SOL     OW20891   1.601   7.852   6.875
 3631SOL    HW120892   1.563   7.929   6.927
 3631SOL    HW220893   1.528   7.808   6.823
 3632SOL     OW20894   6.232   3.229   2.526
 3632SOL    HW120895   6.294   3.202   2.452
 3632SOL    HW220896   6.268   3.200   2.614
 3633SOL     OW20897   0.213   6.603   5.205
 3633SOL    HW120898   0.243   6.689   5.245
 3633SOL    HW220899   0.157   6.620   5.124
 3634SOL     OW20900   1.350   5.132   3.704
 3634SOL    HW120901   1.427   5.071   3.688
 3634SOL    HW220902   1.298   5.103   3.784
 3635SOL     OW20903   7.230   2.251   6.388
 3635SOL    HW120904   7.167   2.183   6.351
 3635SOL    HW220905   7.208   2.271   6.483
 3636SOL     OW20906   4.611   0.067   7.825
 3636SOL    HW120907   4.667   0.048   7.744
 3636SOL    HW220908   4.517   0.086   7.797
 3637SOL     OW20909   6.464   1.290   6.558
 3637SOL    HW120910   6.484   1.297   6.656
 3637SOL    HW220911   6.378   1.241   6.544
 3638SOL     OW20912   0.558   6.043   4.355
 3638SOL    HW120913   0.615   6.120   4.385
 3638SOL    HW220914   0.582   6.017   4.262
 3639SOL     OW20915   0.614   0.948   6.492
 3639SOL    HW120916   0.658   1.026   6.536
 3639SOL    HW220917   0.592   0.971   6.397
 3640SOL     OW20918   1.560   3.322   5.296
 3640SOL    HW120919   1.614   3.407   5.299
 3640SOL    HW220920   1.579   3.266   5.376
 3641SOL     OW20921   7.974   0.432   6.070
 3641SOL    HW120922   8.000   0.432   5.973
 3641SOL    HW220923   7.893   0.490   6.084
 3642SOL     OW20924   2.817   0.024   2.020
 3642SOL    HW120925   2.731   0.026   1.969
 3642SOL    HW220926   2.804   0.067   2.109
 3643SOL     OW20927   7.342   0.725   7.821
 3643SOL    HW120928   7.403   0.651   7.793
 3643SOL    HW220929   7.388   0.813   7.813
 3644SOL     OW20930   7.977   6.415   7.812
 3644SOL    HW120931   7.884   6.449   7.799
 3644SOL    HW220932   7.980   6.352   7.890
 3645SOL     OW20933   3.306   3.782   3.884
 3645SOL    HW120934   3.246   3.830   3.819
 3645SOL    HW220935   3.401   3.807   3.866
 3646SOL     OW20936   6.602   1.772   5.716
 3646SOL    HW120937   6.665   1.840   5.678
 3646SOL    HW220938   6.651   1.711   5.778
 3647SOL     OW20939   3.640   3.813   5.502
 3647SOL    HW120940   3.674   3.725   5.470
 3647SOL    HW220941   3.685   3.887   5.453
 3648SOL     OW20942   4.547   5.361   1.134
 3648SOL    HW120943   4.611   5.397   1.202
 3648SOL    HW220944   4.578   5.270   1.104
 3649SOL     OW20945   4.063   3.294   5.102
 3649SOL    HW120946   4.093   3.301   5.197
 3649SOL    HW220947   3.966   3.272   5.098
 3650SOL     OW20948   2.101   7.902   7.472
 3650SOL    HW120949   2.176   7.964   7.494
 3650SOL    HW220950   2.099   7.884   7.374
 3651SOL     OW20951   4.310   5.755   1.998
 3651SOL    HW120952   4.229   5.719   2.045
 3651SOL    HW220953   4.316   5.717   1.906
 3652SOL     OW20954   2.360   0.216   6.489
 3652SOL    HW120955   2.372   0.229   6.587
 3652SOL    HW220956   2.352   0.304   6.443
 3653SOL     OW20957   4.398   4.926   0.116
 3653SOL    HW120958   4.479   4.982   0.134
 3653SOL    HW220959   4.330   4.980   0.065
 3654SOL     OW20960   7.649   3.205   3.525
 3654SOL    HW120961   7.644   3.294   3.571
 3654SOL    HW220962   7.613   3.212   3.432
 3655SOL     OW20963   0.435   4.793   5.021
 3655SOL    HW120964   0.519   4.845   5.008
 3655SOL    HW220965   0.412   4.789   5.118
 3656SOL     OW20966   1.286   7.933   0.389
 3656SOL    HW120967   1.341   8.000   0.440
 3656SOL    HW220968   1.190   7.939   0.418
 3657SOL     OW20969   6.723   6.204   0.889
 3657SOL    HW120970   6.665   6.134   0.848
 3657SOL    HW220971   6.769   6.168   0.970
 3658SOL     OW20972   5.183   4.219   7.529
 3658SOL    HW120973   5.147   4.133   7.494
 3658SOL    HW220974   5.146   4.237   7.620
 3659SOL     OW20975   3.688   7.254   1.924
 3659SOL    HW120976   3.784   7.227   1.920
 3659SOL    HW220977   3.644   7.237   1.836
 3660SOL     OW20978   6.894   2.106   2.216
 3660SOL    HW120979   6.948   2.160   2.151
 3660SOL    HW220980   6.912   2.009   2.202
 3661SOL     OW20981   3.338   2.297   3.317
 3661SOL    HW120982   3.293   2.214   3.283
 3661SOL    HW220983   3.403   2.331   3.249
 3662SOL     OW20984   7.087   2.095   7.417
 3662SOL    HW120985   7.104   2.187   7.382
 3662SOL    HW220986   7.080   2.096   7.517
 3663SOL     OW20987   2.019   3.098   6.150
 3663SOL    HW120988   1.988   3.167   6.215
 3663SOL    HW220989   2.116   3.110   6.130
 3664SOL     OW20990   6.542   2.032   3.697
 3664SOL    HW120991   6.541   2.096   3.620
 3664SOL    HW220992   6.514   2.078   3.781
 3665SOL     OW20993   3.386   7.806   1.885
 3665SOL    HW120994   3.303   7.768   1.924
 3665SOL    HW220995   3.374   7.824   1.787
 3666SOL     OW20996   0.373   7.167   2.197
 3666SOL    HW120997   0.401   7.147   2.291
 3666SOL    HW220998   0.355   7.264   2.187
 3667SOL     OW20999   2.508   6.546   1.468
 3667SOL    HW121000   2.415   6.524   1.495
 3667SOL    HW221001   2.520   6.529   1.370
 3668SOL     OW21002   4.044   3.362   4.570
 3668SOL    HW121003   4.051   3.262   4.579
 3668SOL    HW221004   4.100   3.406   4.640
 3669SOL     OW21005   0.691   7.565   2.096
 3669SOL    HW121006   0.604   7.610   2.075
 3669SOL    HW221007   0.675   7.488   2.158
 3670SOL     OW21008   4.863   7.761   3.782
 3670SOL    HW121009   4.900   7.833   3.840
 3670SOL    HW221010   4.799   7.705   3.835
 3671SOL     OW21011   0.917   5.201   0.090
 3671SOL    HW121012   0.995   5.265   0.089
 3671SOL    HW221013   0.909   5.156   0.002
 3672SOL     OW21014   2.105   4.205   6.163
 3672SOL    HW121015   2.118   4.165   6.254
 3672SOL    HW221016   2.067   4.298   6.171
 3673SOL     OW21017   1.632   5.505   0.282
 3673SOL    HW121018   1.563   5.534   0.349
 3673SOL    HW221019   1.590   5.499   0.191
 3674SOL     OW21020   2.410   7.190   1.380
 3674SOL    HW121021   2.423   7.260   1.309
 3674SOL    HW221022   2.328   7.210   1.433
 3675SOL     OW21023   5.176   2.712   0.764
 3675SOL    HW121024   5.148   2.807   0.752
 3675SOL    HW221025   5.128   2.672   0.842
 3676SOL     OW21026   4.806   3.536   6.257
 3676SOL    HW121027   4.868   3.520   6.180
 3676SOL    HW221028   4.833   3.620   6.305
 3677SOL     OW21029   0.503   6.924   1.345
 3677SOL    HW121030   0.598   6.896   1.358
 3677SOL    HW221031   0.499   7.012   1.299
 3678SOL     OW21032   6.549   0.301   1.778
 3678SOL    HW121033   6.649   0.299   1.771
 3678SOL    HW221034   6.520   0.280   1.871
 3679SOL     OW21035   2.003   0.157   3.333
 3679SOL    HW121036   2.087   0.111   3.307
 3679SOL    HW221037   1.978   0.134   3.427
 3680SOL     OW21038   2.864   1.180   4.448
 3680SOL    HW121039   2.934   1.121   4.489
 3680SOL    HW221040   2.905   1.237   4.377
 3681SOL     OW21041   4.697   5.982   4.746
 3681SOL    HW121042   4.788   6.005   4.712
 3681SOL    HW221043   4.695   5.888   4.780
 3682SOL     OW21044   5.863   5.785   3.770
 3682SOL    HW121045   5.890   5.863   3.713
 3682SOL    HW221046   5.773   5.753   3.742
 3683SOL     OW21047   2.663   2.366   7.389
 3683SOL    HW121048   2.694   2.409   7.304
 3683SOL    HW221049   2.657   2.435   7.462
 3684SOL     OW21050   6.594   4.678   3.375
 3684SOL    HW121051   6.573   4.710   3.468
 3684SOL    HW221052   6.539   4.597   3.355
 3685SOL     OW21053   5.009   6.391   0.508
 3685SOL    HW121054   4.955   6.309   0.487
 3685SOL    HW221055   5.017   6.403   0.607
 3686SOL     OW21056   0.143   1.953   1.222
 3686SOL    HW121057   0.171   1.918   1.312
 3686SOL    HW221058   0.168   1.889   1.150
 3687SOL     OW21059   4.127   5.782   2.666
 3687SOL    HW121060   4.068   5.788   2.585
 3687SOL    HW221061   4.117   5.693   2.710
 3688SOL     OW21062   5.960   7.106   5.415
 3688SOL    HW121063   6.020   7.067   5.486
 3688SOL    HW221064   6.012   7.119   5.330
 3689SOL     OW21065   4.865   0.298   6.377
 3689SOL    HW121066   4.919   0.374   6.339
 3689SOL    HW221067   4.832   0.323   6.468
 3690SOL     OW21068   7.198   4.489   4.832
 3690SOL    HW121069   7.251   4.405   4.841
 3690SOL    HW221070   7.189   4.513   4.735
 3691SOL     OW21071   7.345   1.122   1.880
 3691SOL    HW121072   7.382   1.207   1.917
 3691SOL    HW221073   7.392   1.098   1.796
 3692SOL     OW21074   0.884   5.279   6.570
 3692SOL    HW121075   0.979   5.307   6.585
 3692SOL    HW221076   0.822   5.346   6.609
 3693SOL     OW21077   0.056   7.210   3.894
 3693SOL    HW121078   0.086   7.117   3.916
 3693SOL    HW221079   0.134   7.272   3.893
 3694SOL     OW21080   3.557   5.770   3.642
 3694SOL    HW121081   3.619   5.718   3.701
 3694SOL    HW221082   3.469   5.783   3.687
 3695SOL     OW21083   3.081   3.536   1.786
 3695SOL    HW121084   3.126   3.559   1.700
 3695SOL    HW221085   3.146   3.492   1.848
 3696SOL     OW21086   5.742   4.884   6.563
 3696SOL    HW121087   5.760   4.981   6.550
 3696SOL    HW221088   5.809   4.845   6.626
 3697SOL     OW21089   4.415   7.393   5.116
 3697SOL    HW121090   4.341   7.417   5.181
 3697SOL    HW221091   4.406   7.298   5.088
 3698SOL     OW21092   2.628   7.925   6.783
 3698SOL    HW121093   2.624   7.907   6.685
 3698SOL    HW221094   2.694   7.998   6.801
 3699SOL     OW21095   5.552   3.819   1.550
 3699SOL    HW121096   5.472   3.771   1.586
 3699SOL    HW221097   5.575   3.785   1.459
 3700SOL     OW21098   2.038   6.444   0.541
 3700SOL    HW121099   2.080   6.458   0.631
 3700SOL    HW221100   2.101   6.397   0.480
 3701SOL     OW21101   0.931   3.557   0.186
 3701SOL    HW121102   0.899   3.626   0.122
 3701SOL    HW221103   1.025   3.577   0.214
 3702SOL     OW21104   5.999   5.598   7.558
 3702SOL    HW121105   6.073   5.575   7.622
 3702SOL    HW221106   5.921   5.537   7.572
 3703SOL     OW21107   6.116   1.247   6.393
 3703SOL    HW121108   6.039   1.302   6.429
 3703SOL    HW221109   6.203   1.289   6.420
 3704SOL     OW21110   5.053   5.201   6.198
 3704SOL    HW121111   5.147   5.234   6.210
 3704SOL    HW221112   5.021   5.223   6.106
 3705SOL     OW21113   3.740   1.080   7.787
 3705SOL    HW121114   3.830   1.060   7.827
 3705SOL    HW221115   3.714   1.174   7.807
 3706SOL     OW21116   7.864   3.288   3.727
 3706SOL    HW121117   7.769   3.309   3.751
 3706SOL    HW221118   7.869   3.198   3.682
 3707SOL     OW21119   6.730   6.232   0.640
 3707SOL    HW121120   6.816   6.253   0.687
 3707SOL    HW221121   6.661   6.300   0.663
 3708SOL     OW21122   6.864   2.715   0.717
 3708SOL    HW121123   6.858   2.698   0.619
 3708SOL    HW221124   6.865   2.813   0.736
 3709SOL     OW21125   6.987   3.620   7.875
 3709SOL    HW121126   7.042   3.682   7.818
 3709SOL    HW221127   6.948   3.548   7.819
 3710SOL     OW21128   2.268   6.833   7.067
 3710SOL    HW121129   2.346   6.894   7.054
 3710SOL    HW221130   2.222   6.855   7.153
 3711SOL     OW21131   2.862   5.528   6.988
 3711SOL    HW121132   2.928   5.569   7.052
 3711SOL    HW221133   2.774   5.574   6.996
 3712SOL     OW21134   7.227   5.953   5.333
 3712SOL    HW121135   7.232   5.855   5.312
 3712SOL    HW221136   7.312   5.998   5.305
 3713SOL     OW21137   0.249   0.359   0.090
 3713SOL    HW121138   0.194   0.297   0.147
 3713SOL    HW221139   0.264   0.318  -0.000
 3714SOL     OW21140   1.804   0.103   5.097
 3714SOL    HW121141   1.834   0.134   5.188
 3714SOL    HW221142   1.812   0.003   5.092
 3715SOL     OW21143   3.385   1.898   0.087
 3715SOL    HW121144   3.341   1.875  -0.000
 3715SOL    HW221145   3.466   1.839   0.100
 3716SOL     OW21146   7.409   5.720   7.906
 3716SOL    HW121147   7.333   5.782   7.927
 3716SOL    HW221148   7.416   5.707   7.808
 3717SOL     OW21149   5.870   3.688   5.924
 3717SOL    HW121150   5.834   3.600   5.892
 3717SOL    HW221151   5.833   3.708   6.015
 3718SOL     OW21152   5.403   5.086   2.334
 3718SOL    HW121153   5.313   5.076   2.378
 3718SOL    HW221154   5.412   5.178   2.298
 3719SOL     OW21155   7.841   0.216   1.786
 3719SOL    HW121156   7.742   0.232   1.795
 3719SOL    HW221157   7.858   0.147   1.715
 3720SOL     OW21158   7.496   3.669   1.372
 3720SOL    HW121159   7.410   3.620   1.385
 3720SOL    HW221160   7.533   3.650   1.281
 3721SOL     OW21161   5.997   7.935   0.536
 3721SOL    HW121162   5.909   7.906   0.498
 3721SOL    HW221163   6.057   7.856   0.548
 3722SOL     OW21164   2.189   3.145   3.454
 3722SOL    HW121165   2.231   3.225   3.410
 3722SOL    HW221166   2.177   3.162   3.551
 3723SOL     OW21167   0.549   2.793   3.836
 3723SOL    HW121168   0.630   2.812   3.891
 3723SOL    HW221169   0.576   2.773   3.741
 3724SOL     OW21170   2.040   5.180   5.374
 3724SOL    HW121171   2.112   5.180   5.444
 3724SOL    HW221172   2.066   5.238   5.297
 3725SOL     OW21173   6.655   3.342   5.831
 3725SOL    HW121174   6.708   3.273   5.783
 3725SOL    HW221175   6.713   3.420   5.855
 3726SOL     OW21176   7.546   5.582   5.896
 3726SOL    HW121177   7.547   5.516   5.970
 3726SOL    HW221178   7.539   5.675   5.932
 3727SOL     OW21179   1.796   7.332   2.516
 3727SOL    HW121180   1.880   7.338   2.571
 3727SOL    HW221181   1.717   7.323   2.577
 3728SOL     OW21182   2.335   1.271   4.594
 3728SOL    HW121183   2.375   1.180   4.608
 3728SOL    HW221184   2.398   1.342   4.624
 3729SOL     OW21185   4.310   7.135   3.878
 3729SOL    HW121186   4.353   7.140   3.788
 3729SOL    HW221187   4.224   7.185   3.878
 3730SOL     OW21188   7.641   4.109   4.349
 3730SOL    HW121189   7.638   4.207   4.331
 3730SOL    HW221190   7.659   4.092   4.445
 3731SOL     OW21191   0.691   3.290   5.296
 3731SOL    HW121192   0.599   3.328   5.304
 3731SOL    HW221193   0.751   3.332   5.363
 3732SOL     OW21194   0.548   2.135   3.789
 3732SOL    HW121195   0.638   2.179   3.789
 3732SOL    HW221196   0.477   2.204   3.777
 3733SOL     OW21197   5.629   7.392   5.030
 3733SOL    HW121198   5.677   7.336   4.962
 3733SOL    HW221199   5.633   7.349   5.119
 3734SOL     OW21200   2.182   7.613   3.397
 3734SOL    HW121201   2.111   7.683   3.385
 3734SOL    HW221202   2.228   7.625   3.484
 3735SOL     OW21203   1.911   6.111   1.551
 3735SOL    HW121204   1.940   6.205   1.571
 3735SOL    HW221205   1.986   6.047   1.572
 3736SOL     OW21206   4.384   7.734   1.647
 3736SOL    HW121207   4.366   7.672   1.724
 3736SOL    HW221208   4.303   7.739   1.588
 3737SOL     OW21209   3.906   7.440   2.078
 3737SOL    HW121210   3.965   7.465   2.001
 3737SOL    HW221211   3.917   7.507   2.152
 3738SOL     OW21212   4.903   3.537   0.128
 3738SOL    HW121213   4.861   3.584   0.050
 3738SOL    HW221214   4.997   3.510   0.106
 3739SOL     OW21215   2.038   7.053   0.124
 3739SOL    HW121216   2.112   7.116   0.148
 3739SOL    HW221217   1.950   7.095   0.145
 3740SOL     OW21218   4.070   5.812   4.762
 3740SOL    HW121219   4.036   5.892   4.813
 3740SOL    HW221220   4.138   5.841   4.695
 3741SOL     OW21221   3.384   4.194   5.713
 3741SOL    HW121222   3.352   4.132   5.785
 3741SOL    HW221223   3.309   4.214   5.650
 3742SOL     OW21224   4.556   7.356   7.768
 3742SOL    HW121225   4.638   7.347   7.711
 3742SOL    HW221226   4.561   7.294   7.846
 3743SOL     OW21227   2.666   5.223   4.989
 3743SOL    HW121228   2.703   5.259   4.903
 3743SOL    HW221229   2.641   5.298   5.050
 3744SOL     OW21230   5.624   4.631   0.420
 3744SOL    HW121231   5.702   4.595   0.368
 3744SOL    HW221232   5.656   4.680   0.501
 3745SOL     OW21233   5.378   1.962   5.555
 3745SOL    HW121234   5.465   1.926   5.522
 3745SOL    HW221235   5.374   1.958   5.655
 3746SOL     OW21236   7.773   1.657   5.915
 3746SOL    HW121237   7.786   1.672   5.817
 3746SOL    HW221238   7.806   1.566   5.941
 3747SOL     OW21239   0.983   1.623   7.713
 3747SOL    HW121240   0.955   1.684   7.787
 3747SOL    HW221241   0.994   1.530   7.747
 3748SOL     OW21242   5.991   1.983   5.882
 3748SOL    HW121243   5.992   1.965   5.980
 3748SOL    HW221244   6.077   1.952   5.841
 3749SOL     OW21245   1.614   0.357   3.811
 3749SOL    HW121246   1.619   0.281   3.746
 3749SOL    HW221247   1.681   0.427   3.788
 3750SOL     OW21248   7.903   0.967   2.607
 3750SOL    HW121249   8.000   0.942   2.605
 3750SOL    HW221250   7.886   1.026   2.686
 3751SOL     OW21251   4.774   5.641   2.450
 3751SOL    HW121252   4.681   5.657   2.484
 3751SOL    HW221253   4.772   5.623   2.351
 3752SOL     OW21254   0.319   3.076   2.180
 3752SOL    HW121255   0.379   3.151   2.209
 3752SOL    HW221256   0.268   3.103   2.098
 3753SOL     OW21257   4.076   1.178   7.495
 3753SOL    HW121258   4.157   1.161   7.440
 3753SOL    HW221259   4.100   1.229   7.578
 3754SOL     OW21260   2.012   7.288   1.484
 3754SOL    HW121261   2.053   7.357   1.543
 3754SOL    HW221262   2.083   7.226   1.450
 3755SOL     OW21263   3.180   4.378   4.594
 3755SOL    HW121264   3.194   4.472   4.622
 3755SOL    HW221265   3.237   4.357   4.514
 3756SOL     OW21266   0.319   7.936   4.702
 3756SOL    HW121267   0.237   7.881   4.685
 3756SOL    HW221268   0.302   7.998   4.778
 3757SOL     OW21269   1.007   3.852   0.626
 3757SOL    HW121270   1.103   3.864   0.602
 3757SOL    HW221271   0.949   3.891   0.554
 3758SOL     OW21272   1.003   0.391   6.558
 3758SOL    HW121273   1.020   0.485   6.587
 3758SOL    HW221274   1.048   0.373   6.470
 3759SOL     OW21275   6.511   0.882   6.570
 3759SOL    HW121276   6.591   0.935   6.540
 3759SOL    HW221277   6.537   0.787   6.583
 3760SOL     OW21278   6.977   1.721   7.923
 3760SOL    HW121279   7.065   1.681   7.952
 3760SOL    HW221280   6.939   1.668   7.847
 3761SOL     OW21281   6.919   3.381   3.323
 3761SOL    HW121282   6.911   3.479   3.339
 3761SOL    HW221283   6.992   3.363   3.259
 3762SOL     OW21284   2.847   4.552   6.415
 3762SOL    HW121285   2.760   4.505   6.398
 3762SOL    HW221286   2.846   4.643   6.373
 3763SOL     OW21287   3.976   0.136   1.252
 3763SOL    HW121288   3.879   0.118   1.270
 3763SOL    HW221289   4.030   0.114   1.333
 3764SOL     OW21290   3.607   5.696   0.994
 3764SOL    HW121291   3.693   5.644   0.990
 3764SOL    HW221292   3.619   5.785   0.951
 3765SOL     OW21293   2.462   7.305   6.949
 3765SOL    HW121294   2.537   7.266   7.003
 3765SOL    HW221295   2.374   7.271   6.982
 3766SOL     OW21296   3.250   5.663   4.074
 3766SOL    HW121297   3.254   5.761   4.094
 3766SOL    HW221298   3.233   5.648   3.977
 3767SOL     OW21299   2.013   7.712   5.445
 3767SOL    HW121300   2.066   7.713   5.530
 3767SOL    HW221301   2.045   7.785   5.385
 3768SOL     OW21302   1.540   5.705   7.680
 3768SOL    HW121303   1.467   5.650   7.723
 3768SOL    HW221304   1.598   5.645   7.624
 3769SOL     OW21305   2.028   0.441   3.308
 3769SOL    HW121306   2.075   0.521   3.271
 3769SOL    HW221307   2.062   0.421   3.400
 3770SOL     OW21308   5.947   4.728   4.180
 3770SOL    HW121309   5.960   4.732   4.279
 3770SOL    HW221310   6.021   4.676   4.137
 3771SOL     OW21311   2.250   7.041   5.527
 3771SOL    HW121312   2.180   7.082   5.584
 3771SOL    HW221313   2.218   6.955   5.488
 3772SOL     OW21314   3.402   7.967   3.363
 3772SOL    HW121315   3.440   7.894   3.420
 3772SOL    HW221316   3.469   7.998   3.296
 3773SOL     OW21317   7.926   6.071   6.138
 3773SOL    HW121318   7.845   6.037   6.185
 3773SOL    HW221319   7.957   6.005   6.069
 3774SOL     OW21320   2.764   7.950   0.602
 3774SOL    HW121321   2.716   8.000   0.529
 3774SOL    HW221322   2.741   7.989   0.691
 3775SOL     OW21323   4.823   1.748   1.325
 3775SOL    HW121324   4.876   1.736   1.409
 3775SOL    HW221325   4.883   1.772   1.249
 3776SOL     OW21326   6.805   2.107   1.005
 3776SOL    HW121327   6.773   2.162   1.082
 3776SOL    HW221328   6.733   2.099   0.936
 3777SOL     OW21329   7.380   4.795   4.346
 3777SOL    HW121330   7.425   4.797   4.435
 3777SOL    HW221331   7.282   4.803   4.357
 3778SOL     OW21332   5.952   3.734   3.605
 3778SOL    HW121333   5.867   3.697   3.567
 3778SOL    HW221334   5.937   3.767   3.698
 3779SOL     OW21335   3.379   0.379   6.955
 3779SOL    HW121336   3.349   0.443   7.026
 3779SOL    HW221337   3.415   0.296   6.997
 3780SOL     OW21338   2.408   1.765   4.938
 3780SOL    HW121339   2.332   1.750   4.874
 3780SOL    HW221340   2.495   1.762   4.890
 3781SOL     OW21341   3.576   6.047   0.113
 3781SOL    HW121342   3.512   6.101   0.169
 3781SOL    HW221343   3.660   6.031   0.165
 3782SOL     OW21344   5.608   7.638   4.302
 3782SOL    HW121345   5.652   7.664   4.215
 3782SOL    HW221346   5.606   7.539   4.310
 3783SOL     OW21347   5.660   5.675   2.620
 3783SOL    HW121348   5.741   5.733   2.617
 3783SOL    HW221349   5.626   5.660   2.527
 3784SOL     OW21350   7.046   6.705   7.546
 3784SOL    HW121351   7.043   6.787   7.490
 3784SOL    HW221352   7.024   6.625   7.491
 3785SOL     OW21353   6.446   0.680   7.420
 3785SOL    HW121354   6.457   0.779   7.433
 3785SOL    HW221355   6.480   0.654   7.329
 3786SOL     OW21356   6.748   0.749   4.410
 3786SOL    HW121357   6.706   0.834   4.442
 3786SOL    HW221358   6.844   0.764   4.388
 3787SOL     OW21359   0.184   3.298   5.206
 3787SOL    HW121360   0.118   3.338   5.143
 3787SOL    HW221361   0.254   3.365   5.229
 3788SOL     OW21362   2.792   3.133   2.634
 3788SOL    HW121363   2.863   3.202   2.648
 3788SOL    HW221364   2.832   3.049   2.598
 3789SOL     OW21365   7.874   0.926   6.541
 3789SOL    HW121366   7.828   0.872   6.470
 3789SOL    HW221367   7.844   0.896   6.631
 3790SOL     OW21368   5.908   1.570   6.334
 3790SOL    HW121369   5.837   1.640   6.332
 3790SOL    HW221370   5.998   1.612   6.344
 3791SOL     OW21371   2.793   5.327   7.652
 3791SOL    HW121372   2.798   5.391   7.729
 3791SOL    HW221373   2.803   5.377   7.566
 3792SOL     OW21374   0.490   0.603   0.545
 3792SOL    HW121375   0.406   0.550   0.537
 3792SOL    HW221376   0.530   0.618   0.455
 3793SOL     OW21377   6.013   1.845   6.343
 3793SOL    HW121378   6.109   1.818   6.355
 3793SOL    HW221379   5.966   1.847   6.431
 3794SOL     OW21380   6.549   7.909   2.464
 3794SOL    HW121381   6.533   8.000   2.503
 3794SOL    HW221382   6.527   7.908   2.367
 3795SOL     OW21383   4.627   7.156   1.791
 3795SOL    HW121384   4.681   7.099   1.854
 3795SOL    HW221385   4.614   7.247   1.829
 3796SOL     OW21386   0.145   2.714   2.219
 3796SOL    HW121387   0.191   2.660   2.289
 3796SOL    HW221388   0.180   2.808   2.220
 3797SOL     OW21389   3.289   3.905   5.510
 3797SOL    HW121390   3.319   3.845   5.435
 3797SOL    HW221391   3.270   3.997   5.475
 3798SOL     OW21392   7.066   4.902   0.842
 3798SOL    HW121393   7.136   4.972   0.852
 3798SOL    HW221394   7.023   4.909   0.752
 3799SOL     OW21395   1.089   4.776   5.696
 3799SOL    HW121396   1.061   4.690   5.652
 3799SOL    HW221397   1.012   4.840   5.698
 3800SOL     OW21398   6.666   5.352   2.001
 3800SOL    HW121399   6.631   5.259   1.985
 3800SOL    HW221400   6.733   5.350   2.076
 3801SOL     OW21401   0.619   4.940   7.178
 3801SOL    HW121402   0.669   4.943   7.265
 3801SOL    HW221403   0.676   4.977   7.105
 3802SOL     OW21404   4.575   6.072   2.351
 3802SOL    HW121405   4.590   5.988   2.404
 3802SOL    HW221406   4.657   6.095   2.299
 3803SOL     OW21407   4.870   7.239   5.238
 3803SOL    HW121408   4.825   7.169   5.183
 3803SOL    HW221409   4.921   7.301   5.179
 3804SOL     OW21410   0.704   7.538   6.103
 3804SOL    HW121411   0.666   7.471   6.038
 3804SOL    HW221412   0.682   7.630   6.072
 3805SOL     OW21413   6.325   4.495   6.583
 3805SOL    HW121414   6.283   4.581   6.613
 3805SOL    HW221415   6.423   4.497   6.602
 3806SOL     OW21416   2.158   5.587   2.489
 3806SOL    HW121417   2.193   5.501   2.451
 3806SOL    HW221418   2.076   5.570   2.543
 3807SOL     OW21419   1.690   2.466   0.614
 3807SOL    HW121420   1.639   2.434   0.694
 3807SOL    HW221421   1.705   2.565   0.620
 3808SOL     OW21422   0.616   2.206   6.731
 3808SOL    HW121423   0.651   2.129   6.677
 3808SOL    HW221424   0.666   2.213   6.818
 3809SOL     OW21425   5.874   5.266   2.281
 3809SOL    HW121426   5.854   5.168   2.285
 3809SOL    HW221427   5.932   5.285   2.202
 3810SOL     OW21428   6.045   3.105   6.774
 3810SOL    HW121429   6.039   3.196   6.814
 3810SOL    HW221430   6.078   3.039   6.842
 3811SOL     OW21431   7.953   7.095   2.816
 3811SOL    HW121432   7.915   7.085   2.908
 3811SOL    HW221433   7.958   7.006   2.771
 3812SOL     OW21434   7.060   5.409   1.979
 3812SOL    HW121435   7.140   5.405   2.039
 3812SOL    HW221436   7.053   5.499   1.937
 3813SOL     OW21437   0.626   3.843   5.464
 3813SOL    HW121438   0.691   3.896   5.519
 3813SOL    HW221439   0.675   3.784   5.401
 3814SOL     OW21440   4.154   5.277   1.353
 3814SOL    HW121441   4.203   5.225   1.283
 3814SOL    HW221442   4.178   5.373   1.347
 3815SOL     OW21443   5.156   4.070   4.733
 3815SOL    HW121444   5.144   3.973   4.753
 3815SOL    HW221445   5.187   4.082   4.639
 3816SOL     OW21446   3.430   0.306   5.080
 3816SOL    HW121447   3.341   0.339   5.047
 3816SOL    HW221448   3.479   0.379   5.126
 3817SOL     OW21449   1.403   5.093   2.165
 3817SOL    HW121450   1.440   5.186   2.155
 3817SOL    HW221451   1.450   5.046   2.239
 3818SOL     OW21452   7.335   1.012   7.423
 3818SOL    HW121453   7.264   1.013   7.493
 3818SOL    HW221454   7.337   1.099   7.374
 3819SOL     OW21455   7.597   1.364   7.127
 3819SOL    HW121456   7.508   1.401   7.101
 3819SOL    HW221457   7.610   1.370   7.226
 3820SOL     OW21458   6.170   5.338   4.156
 3820SOL    HW121459   6.263   5.358   4.124
 3820SOL    HW221460   6.158   5.373   4.249
 3821SOL     OW21461   1.611   4.330   2.686
 3821SOL    HW121462   1.515   4.358   2.688
 3821SOL    HW221463   1.658   4.373   2.609
 3822SOL     OW21464   6.875   0.797   7.627
 3822SOL    HW121465   6.852   0.888   7.594
 3822SOL    HW221466   6.960   0.799   7.680
 3823SOL     OW21467   6.449   2.285   7.332
 3823SOL    HW121468   6.358   2.308   7.296
 3823SOL    HW221469   6.464   2.334   7.418
 3824SOL     OW21470   5.770   0.757   2.240
 3824SOL    HW121471   5.762   0.659   2.225
 3824SOL    HW221472   5.744   0.779   2.334
 3825SOL     OW21473   3.391   3.834   2.926
 3825SOL    HW121474   3.424   3.759   2.985
 3825SOL    HW221475   3.369   3.799   2.836
 3826SOL     OW21476   6.285   3.920   1.533
 3826SOL    HW121477   6.205   3.875   1.494
 3826SOL    HW221478   6.302   4.007   1.488
 3827SOL     OW21479   7.573   6.079   3.185
 3827SOL    HW121480   7.556   5.988   3.148
 3827SOL    HW221481   7.595   6.074   3.282
 3828SOL     OW21482   5.742   6.132   6.721
 3828SOL    HW121483   5.673   6.061   6.740
 3828SOL    HW221484   5.795   6.151   6.803
 3829SOL     OW21485   0.756   6.687   1.614
 3829SOL    HW121486   0.713   6.604   1.579
 3829SOL    HW221487   0.691   6.762   1.614
 3830SOL     OW21488   6.153   6.211   6.143
 3830SOL    HW121489   6.192   6.120   6.154
 3830SOL    HW221490   6.199   6.276   6.203
 3831SOL     OW21491   2.969   1.003   2.603
 3831SOL    HW121492   3.042   1.072   2.595
 3831SOL    HW221493   2.993   0.922   2.550
 3832SOL     OW21494   5.671   5.222   0.519
 3832SOL    HW121495   5.586   5.171   0.535
 3832SOL    HW221496   5.702   5.208   0.425
 3833SOL     OW21497   3.080   3.671   7.168
 3833SOL    HW121498   3.175   3.658   7.140
 3833SOL    HW221499   3.065   3.630   7.258
 3834SOL     OW21500   0.791   5.438   0.563
 3834SOL    HW121501   0.871   5.379   0.578
 3834SOL    HW221502   0.713   5.404   0.614
 3835SOL     OW21503   3.510   3.642   2.691
 3835SOL    HW121504   3.606   3.640   2.717
 3835SOL    HW221505   3.484   3.733   2.660
 3836SOL     OW21506   1.958   3.643   6.949
 3836SOL    HW121507   1.977   3.640   7.047
 3836SOL    HW221508   1.888   3.711   6.929
 3837SOL     OW21509   2.222   6.719   6.828
 3837SOL    HW121510   2.309   6.679   6.800
 3837SOL    HW221511   2.196   6.685   6.918
 3838SOL     OW21512   0.293   0.402   3.351
 3838SOL    HW121513   0.236   0.385   3.432
 3838SOL    HW221514   0.350   0.483   3.365
 3839SOL     OW21515   3.819   1.509   0.858
 3839SOL    HW121516   3.808   1.561   0.774
 3839SOL    HW221517   3.752   1.435   0.863
 3840SOL     OW21518   1.664   1.917   4.672
 3840SOL    HW121519   1.595   1.985   4.698
 3840SOL    HW221520   1.706   1.878   4.754
 3841SOL     OW21521   7.117   2.608   1.004
 3841SOL    HW121522   7.156   2.545   0.937
 3841SOL    HW221523   7.024   2.581   1.027
 3842SOL     OW21524   5.557   1.634   0.428
 3842SOL    HW121525   5.473   1.595   0.391
 3842SOL    HW221526   5.538   1.677   0.516
 3843SOL     OW21527   4.805   7.075   1.139
 3843SOL    HW121528   4.834   7.171   1.130
 3843SOL    HW221529   4.757   7.062   1.226
 3844SOL     OW21530   3.404   2.920   3.470
 3844SOL    HW121531   3.502   2.919   3.448
 3844SOL    HW221532   3.351   2.939   3.387
 3845SOL     OW21533   2.034   3.537   5.378
 3845SOL    HW121534   1.948   3.517   5.424
 3845SOL    HW221535   2.040   3.487   5.291
 3846SOL     OW21536   3.356   4.399   2.557
 3846SOL    HW121537   3.283   4.344   2.597
 3846SOL    HW221538   3.318   4.472   2.500
 3847SOL     OW21539   4.090   7.923   7.596
 3847SOL    HW121540   4.013   7.875   7.552
 3847SOL    HW221541   4.128   7.991   7.534
 3848SOL     OW21542   7.186   0.917   6.481
 3848SOL    HW121543   7.237   0.962   6.554
 3848SOL    HW221544   7.246   0.902   6.402
 3849SOL     OW21545   2.097   5.350   6.938
 3849SOL    HW121546   2.190   5.371   6.969
 3849SOL    HW221547   2.085   5.377   6.842
 3850SOL     OW21548   1.403   7.270   5.993
 3850SOL    HW121549   1.446   7.188   5.956
 3850SOL    HW221550   1.368   7.253   6.085
 3851SOL     OW21551   1.565   6.890   2.282
 3851SOL    HW121552   1.533   6.927   2.369
 3851SOL    HW221553   1.664   6.877   2.283
 3852SOL     OW21554   0.415   4.399   6.679
 3852SOL    HW121555   0.342   4.341   6.644
 3852SOL    HW221556   0.475   4.429   6.605
 3853SOL     OW21557   5.633   6.318   6.060
 3853SOL    HW121558   5.553   6.344   6.006
 3853SOL    HW221559   5.604   6.277   6.146
 3854SOL     OW21560   3.113   2.579   6.016
 3854SOL    HW121561   3.187   2.575   6.083
 3854SOL    HW221562   3.150   2.595   5.924
 3855SOL     OW21563   0.960   6.118   0.595
 3855SOL    HW121564   1.037   6.095   0.655
 3855SOL    HW221565   0.990   6.123   0.500
 3856SOL     OW21566   6.948   3.217   7.733
 3856SOL    HW121567   6.886   3.263   7.668
 3856SOL    HW221568   6.942   3.261   7.822
 3857SOL     OW21569   4.033   6.206   5.276
 3857SOL    HW121570   4.102   6.258   5.225
 3857SOL    HW221571   3.950   6.197   5.222
 3858SOL     OW21572   6.879   3.313   3.057
 3858SOL    HW121573   6.847   3.224   3.088
 3858SOL    HW221574   6.932   3.304   2.973
 3859SOL     OW21575   6.196   0.674   4.771
 3859SOL    HW121576   6.174   0.658   4.868
 3859SOL    HW221577   6.205   0.772   4.755
 3860SOL     OW21578   5.097   8.000   0.251
 3860SOL    HW121579   5.055   7.976   0.163
 3860SOL    HW221580   5.148   7.922   0.287
 3861SOL     OW21581   4.604   0.161   6.793
 3861SOL    HW121582   4.633   0.238   6.851
 3861SOL    HW221583   4.683   0.105   6.768
 3862SOL     OW21584   0.057   0.960   5.223
 3862SOL    HW121585   0.038   0.978   5.126
 3862SOL    HW221586   0.000   1.018   5.280
 3863SOL     OW21587   6.094   1.526   5.387
 3863SOL    HW121588   6.130   1.617   5.364
 3863SOL    HW221589   6.106   1.508   5.484
 3864SOL     OW21590   5.458   5.553   2.108
 3864SOL    HW121591   5.413   5.630   2.063
 3864SOL    HW221592   5.454   5.563   2.207
 3865SOL     OW21593   3.266   1.567   1.577
 3865SOL    HW121594   3.188   1.511   1.547
 3865SOL    HW221595   3.269   1.653   1.526
 3866SOL     OW21596   1.618   1.937   2.449
 3866SOL    HW121597   1.653   1.898   2.534
 3866SOL    HW221598   1.602   1.864   2.382
 3867SOL     OW21599   3.004   6.002   0.084
 3867SOL    HW121600   2.998   6.099   0.106
 3867SOL    HW221601   2.938   5.978   0.014
 3868SOL     OW21602   2.169   2.096   1.120
 3868SOL    HW121603   2.180   1.997   1.133
 3868SOL    HW221604   2.258   2.139   1.107
 3869SOL     OW21605   6.702   6.873   4.101
 3869SOL    HW121606   6.706   6.784   4.056
 3869SOL    HW221607   6.683   6.861   4.199
 3870SOL     OW21608   1.084   3.279   0.684
 3870SOL    HW121609   1.141   3.213   0.734
 3870SOL    HW221610   1.051   3.238   0.599
 3871SOL     OW21611   3.879   3.150   5.709
 3871SOL    HW121612   3.790   3.171   5.749
 3871SOL    HW221613   3.867   3.114   5.617
 3872SOL     OW21614   4.384   4.663   5.087
 3872SOL    HW121615   4.479   4.632   5.085
 3872SOL    HW221616   4.372   4.738   5.022
 3873SOL     OW21617   5.235   6.666   1.823
 3873SOL    HW121618   5.239   6.679   1.724
 3873SOL    HW221619   5.305   6.721   1.867
 3874SOL     OW21620   2.709   3.228   3.573
 3874SOL    HW121621   2.631   3.226   3.634
 3874SOL    HW221622   2.680   3.215   3.478
 3875SOL     OW21623   6.470   3.056   6.222
 3875SOL    HW121624   6.462   2.978   6.285
 3875SOL    HW221625   6.458   3.141   6.272
 3876SOL     OW21626   7.079   1.215   5.488
 3876SOL    HW121627   7.117   1.130   5.524
 3876SOL    HW221628   7.113   1.231   5.394
 3877SOL     OW21629   3.172   2.125   7.297
 3877SOL    HW121630   3.238   2.056   7.330
 3877SOL    HW221631   3.177   2.132   7.198
 3878SOL     OW21632   6.625   2.344   5.644
 3878SOL    HW121633   6.547   2.376   5.590
 3878SOL    HW221634   6.701   2.321   5.583
 3879SOL     OW21635   2.886   2.776   2.819
 3879SOL    HW121636   2.943   2.747   2.897
 3879SOL    HW221637   2.902   2.872   2.799
 3880SOL     OW21638   2.628   0.278   7.795
 3880SOL    HW121639   2.613   0.375   7.812
 3880SOL    HW221640   2.679   0.237   7.871
 3881SOL     OW21641   0.919   4.084   7.166
 3881SOL    HW121642   0.844   4.108   7.105
 3881SOL    HW221643   0.884   4.038   7.248
 3882SOL     OW21644   6.595   4.330   2.880
 3882SOL    HW121645   6.524   4.309   2.948
 3882SOL    HW221646   6.577   4.418   2.838
 3883SOL     OW21647   6.554   7.976   3.611
 3883SOL    HW121648   6.513   7.945   3.524
 3883SOL    HW221649   6.630   7.917   3.636
 3884SOL     OW21650   6.414   4.565   6.898
 3884SOL    HW121651   6.316   4.547   6.884
 3884SOL    HW221652   6.464   4.550   6.813
 3885SOL     OW21653   6.263   0.196   2.869
 3885SOL    HW121654   6.271   0.233   2.777
 3885SOL    HW221655   6.288   0.099   2.870
 3886SOL     OW21656   6.834   5.593   2.816
 3886SOL    HW121657   6.790   5.609   2.905
 3886SOL    HW221658   6.900   5.666   2.797
 3887SOL     OW21659   4.851   0.393   5.023
 3887SOL    HW121660   4.930   0.433   5.070
 3887SOL    HW221661   4.767   0.437   5.054
 3888SOL     OW21662   5.794   4.497   0.659
 3888SOL    HW121663   5.831   4.523   0.748
 3888SOL    HW221664   5.821   4.565   0.590
 3889SOL     OW21665   6.872   2.792   7.151
 3889SOL    HW121666   6.841   2.884   7.127
 3889SOL    HW221667   6.898   2.789   7.248
 3890SOL     OW21668   4.268   1.722   1.608
 3890SOL    HW121669   4.362   1.704   1.638
 3890SOL    HW221670   4.267   1.800   1.546
 3891SOL     OW21671   0.233   3.662   7.522
 3891SOL    HW121672   0.275   3.750   7.545
 3891SOL    HW221673   0.203   3.663   7.426
 3892SOL     OW21674   7.435   4.389   7.089
 3892SOL    HW121675   7.389   4.399   7.000
 3892SOL    HW221676   7.467   4.478   7.120
 3893SOL     OW21677   0.542   7.044   0.778
 3893SOL    HW121678   0.545   6.950   0.812
 3893SOL    HW221679   0.566   7.047   0.681
 3894SOL     OW21680   2.493   6.730   6.017
 3894SOL    HW121681   2.449   6.739   5.927
 3894SOL    HW221682   2.545   6.645   6.021
 3895SOL     OW21683   5.845   5.244   0.652
 3895SOL    HW121684   5.935   5.207   0.674
 3895SOL    HW221685   5.852   5.340   0.625
 3896SOL     OW21686   7.272   7.056   5.473
 3896SOL    HW121687   7.198   7.067   5.539
 3896SOL    HW221688   7.341   6.993   5.508
 3897SOL     OW21689   3.059   6.474   5.728
 3897SOL    HW121690   3.014   6.542   5.787
 3897SOL    HW221691   3.081   6.515   5.640
 3898SOL     OW21692   6.920   5.667   2.532
 3898SOL    HW121693   6.875   5.598   2.589
 3898SOL    HW221694   6.876   5.671   2.442
 3899SOL     OW21695   2.057   6.041   0.736
 3899SOL    HW121696   1.965   6.028   0.699
 3899SOL    HW221697   2.053   6.102   0.815
 3900SOL     OW21698   7.224   1.485   5.548
 3900SOL    HW121699   7.240   1.575   5.508
 3900SOL    HW221700   7.278   1.475   5.631
 3901SOL     OW21701   5.651   7.430   7.032
 3901SOL    HW121702   5.641   7.351   7.093
 3901SOL    HW221703   5.614   7.512   7.076
 3902SOL     OW21704   3.213   0.738   4.537
 3902SOL    HW121705   3.261   0.817   4.501
 3902SOL    HW221706   3.257   0.706   4.621
 3903SOL     OW21707   6.618   7.339   1.704
 3903SOL    HW121708   6.525   7.315   1.675
 3903SOL    HW221709   6.653   7.270   1.767
 3904SOL     OW21710   6.769   2.264   7.195
 3904SOL    HW121711   6.774   2.167   7.216
 3904SOL    HW221712   6.713   2.278   7.113
 3905SOL     OW21713   2.488   6.363   0.828
 3905SOL    HW121714   2.545   6.302   0.771
 3905SOL    HW221715   2.517   6.357   0.923
 3906SOL     OW21716   3.865   6.909   7.010
 3906SOL    HW121717   3.774   6.926   7.047
 3906SOL    HW221718   3.933   6.905   7.083
 3907SOL     OW21719   5.168   2.113   4.470
 3907SOL    HW121720   5.089   2.119   4.531
 3907SOL    HW221721   5.224   2.034   4.493
 3908SOL     OW21722   3.924   6.213   6.481
 3908SOL    HW121723   3.962   6.305   6.465
 3908SOL    HW221724   3.827   6.211   6.455
 3909SOL     OW21725   4.903   4.702   3.333
 3909SOL    HW121726   4.937   4.788   3.296
 3909SOL    HW221727   4.979   4.648   3.368
 3910SOL     OW21728   3.397   6.832   7.954
 3910SOL    HW121729   3.480   6.877   7.987
 3910SOL    HW221730   3.370   6.870   7.866
 3911SOL     OW21731   7.242   6.720   0.939
 3911SOL    HW121732   7.158   6.708   0.992
 3911SOL    HW221733   7.224   6.701   0.842
 3912SOL     OW21734   0.232   1.583   2.672
 3912SOL    HW121735   0.162   1.629   2.727
 3912SOL    HW221736   0.197   1.496   2.637
 3913SOL     OW21737   6.871   0.615   5.549
 3913SOL    HW121738   6.967   0.615   5.520
 3913SOL    HW221739   6.855   0.691   5.613
 3914SOL     OW21740   3.123   4.113   4.250
 3914SOL    HW121741   3.207   4.074   4.214
 3914SOL    HW221742   3.121   4.212   4.234
 3915SOL     OW21743   2.338   2.730   6.581
 3915SOL    HW121744   2.422   2.703   6.628
 3915SOL    HW221745   2.359   2.756   6.486
 3916SOL     OW21746   2.444   0.511   3.253
 3916SOL    HW121747   2.353   0.535   3.286
 3916SOL    HW221748   2.456   0.542   3.159
 3917SOL     OW21749   0.225   1.041   2.388
 3917SOL    HW121750   0.225   1.028   2.488
 3917SOL    HW221751   0.131   1.057   2.357
 3918SOL     OW21752   6.009   4.400   3.928
 3918SOL    HW121753   5.954   4.404   3.845
 3918SOL    HW221754   6.050   4.489   3.947
 3919SOL     OW21755   4.365   6.381   3.936
 3919SOL    HW121756   4.299   6.379   3.861
 3919SOL    HW221757   4.325   6.426   4.016
 3920SOL     OW21758   7.340   1.716   2.046
 3920SOL    HW121759   7.247   1.723   2.011
 3920SOL    HW221760   7.385   1.635   2.008
 3921SOL     OW21761   5.204   6.909   6.723
 3921SOL    HW121762   5.119   6.886   6.676
 3921SOL    HW221763   5.190   6.989   6.782
 3922SOL     OW21764   3.515   1.350   7.405
 3922SOL    HW121765   3.562   1.377   7.489
 3922SOL    HW221766   3.553   1.401   7.327
 3923SOL     OW21767   3.070   4.775   5.055
 3923SOL    HW121768   2.996   4.713   5.081
 3923SOL    HW221769   3.068   4.856   5.113
 3924SOL     OW21770   5.536   1.815   7.233
 3924SOL    HW121771   5.449   1.797   7.278
 3924SOL    HW221772   5.593   1.873   7.291
 3925SOL     OW21773   6.687   2.396   4.720
 3925SOL    HW121774   6.663   2.484   4.762
 3925SOL    HW221775   6.605   2.355   4.679
 3926SOL     OW21776   5.417   0.780   2.017
 3926SOL    HW121777   5.341   0.801   2.078
 3926SOL    HW221778   5.386   0.782   1.922
 3927SOL     OW21779   6.102   2.746   7.895
 3927SOL    HW121780   6.149   2.671   7.848
 3927SOL    HW221781   6.069   2.813   7.829
 3928SOL     OW21782   3.886   0.907   1.251
 3928SOL    HW121783   3.823   0.860   1.190
 3928SOL    HW221784   3.970   0.931   1.203
 3929SOL     OW21785   4.668   7.115   3.056
 3929SOL    HW121786   4.636   7.101   3.150
 3929SOL    HW221787   4.756   7.069   3.043
 3930SOL     OW21788   7.088   3.452   5.153
 3930SOL    HW121789   7.111   3.393   5.230
 3930SOL    HW221790   7.003   3.502   5.171
 3931SOL     OW21791   3.220   3.667   7.867
 3931SOL    HW121792   3.239   3.644   7.771
 3931SOL    HW221793   3.137   3.619   7.897
 3932SOL     OW21794   0.374   3.759   6.856
 3932SOL    HW121795   0.407   3.673   6.897
 3932SOL    HW221796   0.318   3.809   6.922
 3933SOL     OW21797   1.103   1.876   0.352
 3933SOL    HW121798   1.029   1.819   0.387
 3933SOL    HW221799   1.121   1.853   0.256
 3934SOL     OW21800   7.479   4.835   3.154
 3934SOL    HW121801   7.454   4.865   3.246
 3934SOL    HW221802   7.567   4.874   3.128
 3935SOL     OW21803   7.911   7.275   1.776
 3935SOL    HW121804   7.815   7.246   1.787
 3935SOL    HW221805   7.915   7.357   1.720
 3936SOL     OW21806   3.539   2.128   4.636
 3936SOL    HW121807   3.578   2.189   4.567
 3936SOL    HW221808   3.466   2.073   4.595
 3937SOL     OW21809   4.087   1.241   0.827
 3937SOL    HW121810   4.016   1.311   0.844
 3937SOL    HW221811   4.102   1.233   0.729
 3938SOL     OW21812   7.466   2.119   2.473
 3938SOL    HW121813   7.415   2.205   2.486
 3938SOL    HW221814   7.409   2.054   2.423
 3939SOL     OW21815   5.799   5.980   1.973
 3939SOL    HW121816   5.799   6.048   2.047
 3939SOL    HW221817   5.821   5.890   2.009
 3940SOL     OW21818   7.387  -0.000   4.361
 3940SOL    HW121819   7.333   0.073   4.403
 3940SOL    HW221820   7.484   0.023   4.364
 3941SOL     OW21821   0.884   5.526   4.219
 3941SOL    HW121822   0.808   5.577   4.260
 3941SOL    HW221823   0.852   5.477   4.138
 3942SOL     OW21824   3.341   7.727   3.809
 3942SOL    HW121825   3.263   7.742   3.871
 3942SOL    HW221826   3.328   7.641   3.759
 3943SOL     OW21827   4.633   7.543   7.381
 3943SOL    HW121828   4.687   7.574   7.459
 3943SOL    HW221829   4.563   7.611   7.359
 3944SOL     OW21830   3.294   4.532   6.830
 3944SOL    HW121831   3.361   4.583   6.775
 3944SOL    HW221832   3.342   4.479   6.900
 3945SOL     OW21833   1.707   7.228   7.644
 3945SOL    HW121834   1.616   7.239   7.604
 3945SOL    HW221835   1.726   7.303   7.707
 3946SOL     OW21836   6.216   6.815   7.147
 3946SOL    HW121837   6.151   6.839   7.218
 3946SOL    HW221838   6.291   6.761   7.186
 3947SOL     OW21839   6.864   3.816   0.824
 3947SOL    HW121840   6.857   3.727   0.869
 3947SOL    HW221841   6.915   3.807   0.738
 3948SOL     OW21842   5.148   5.265   4.538
 3948SOL    HW121843   5.183   5.183   4.491
 3948SOL    HW221844   5.110   5.239   4.626
 3949SOL     OW21845   5.704   7.308   0.678
 3949SOL    HW121846   5.648   7.318   0.759
 3949SOL    HW221847   5.662   7.243   0.614
 3950SOL     OW21848   3.793   5.449   1.007
 3950SOL    HW121849   3.880   5.481   0.970
 3950SOL    HW221850   3.806   5.411   1.098
 3951SOL     OW21851   0.408   4.944   4.072
 3951SOL    HW121852   0.345   4.887   4.019
 3951SOL    HW221853   0.501   4.908   4.064
 3952SOL     OW21854   1.781   2.547   6.885
 3952SOL    HW121855   1.685   2.529   6.860
 3952SOL    HW221856   1.787   2.574   6.981
 3953SOL     OW21857   5.338   5.207   5.387
 3953SOL    HW121858   5.264   5.156   5.343
 3953SOL    HW221859   5.379   5.271   5.322
 3954SOL     OW21860   0.780   1.785   2.156
 3954SOL    HW121861   0.854   1.723   2.131
 3954SOL    HW221862   0.763   1.780   2.254
 3955SOL     OW21863   6.764   1.139   4.712
 3955SOL    HW121864   6.847   1.191   4.730
 3955SOL    HW221865   6.722   1.170   4.626
 3956SOL     OW21866   3.570   3.980   2.879
 3956SOL    HW121867   3.514   4.051   2.923
 3956SOL    HW221868   3.556   3.982   2.780
 3957SOL     OW21869   6.109   7.891   2.804
 3957SOL    HW121870   6.053   7.814   2.770
 3957SOL    HW221871   6.121   7.958   2.731
 3958SOL     OW21872   6.233   2.088   3.903
 3958SOL    HW121873   6.325   2.124   3.885
 3958SOL    HW221874   6.211   2.099   4.000
 3959SOL     OW21875   2.444   3.287   3.535
 3959SOL    HW121876   2.426   3.190   3.555
 3959SOL    HW221877   2.452   3.301   3.437
 3960SOL     OW21878   4.332   6.737   1.886
 3960SOL    HW121879   4.238   6.747   1.919
 3960SOL    HW221880   4.332   6.701   1.793
 3961SOL     OW21881   6.518   7.914   3.866
 3961SOL    HW121882   6.471   7.833   3.830
 3961SOL    HW221883   6.489   7.932   3.960
 3962SOL     OW21884   4.674   3.343   1.444
 3962SOL    HW121885   4.667   3.278   1.369
 3962SOL    HW221886   4.753   3.322   1.501
 3963SOL     OW21887   7.391   1.447   6.100
 3963SOL    HW121888   7.332   1.369   6.076
 3963SOL    HW221889   7.452   1.421   6.174
 3964SOL     OW21890   6.418   3.411   6.107
 3964SOL    HW121891   6.352   3.337   6.125
 3964SOL    HW221892   6.464   3.436   6.192
 3965SOL     OW21893   1.723   1.076   5.026
 3965SOL    HW121894   1.658   1.060   5.100
 3965SOL    HW221895   1.788   1.147   5.052
 3966SOL     OW21896   0.470   2.081   5.844
 3966SOL    HW121897   0.492   2.179   5.844
 3966SOL    HW221898   0.387   2.065   5.791
 3967SOL     OW21899   0.131   7.534   0.666
 3967SOL    HW121900   0.074   7.486   0.600
 3967SOL    HW221901   0.087   7.536   0.756
 3968SOL     OW21902   5.160   2.029   3.708
 3968SOL    HW121903   5.071   2.005   3.747
 3968SOL    HW221904   5.150   2.051   3.611
 3969SOL     OW21905   1.779   2.598   0.318
 3969SOL    HW121906   1.719   2.583   0.396
 3969SOL    HW221907   1.821   2.689   0.324
 3970SOL     OW21908   3.499   7.648   3.143
 3970SOL    HW121909   3.435   7.639   3.066
 3970SOL    HW221910   3.556   7.566   3.149
 3971SOL     OW21911   2.474   4.184   4.077
 3971SOL    HW121912   2.572   4.175   4.060
 3971SOL    HW221913   2.444   4.115   4.142
 3972SOL     OW21914   2.101   7.606   0.324
 3972SOL    HW121915   2.088   7.701   0.352
 3972SOL    HW221916   2.029   7.549   0.362
 3973SOL     OW21917   5.708   5.907   5.539
 3973SOL    HW121918   5.799   5.864   5.545
 3973SOL    HW221919   5.638   5.843   5.571
 3974SOL     OW21920   0.050   7.863   3.214
 3974SOL    HW121921   0.066   7.765   3.200
 3974SOL    HW221922   0.108   7.916   3.152
 3975SOL     OW21923   4.017   6.237   4.484
 3975SOL    HW121924   4.104   6.253   4.531
 3975SOL    HW221925   3.974   6.155   4.520
 3976SOL     OW21926   0.523   7.334   6.530
 3976SOL    HW121927   0.506   7.238   6.508
 3976SOL    HW221928   0.617   7.358   6.507
 3977SOL     OW21929   2.059   4.182   3.187
 3977SOL    HW121930   2.115   4.125   3.246
 3977SOL    HW221931   2.110   4.209   3.105
 3978SOL     OW21932   6.504   5.461   6.600
 3978SOL    HW121933   6.430   5.395   6.607
 3978SOL    HW221934   6.477   5.537   6.542
 3979SOL     OW21935   0.598   4.698   6.103
 3979SOL    HW121936   0.503   4.688   6.073
 3979SOL    HW221937   0.632   4.788   6.075
 3980SOL     OW21938   7.468   3.988   2.508
 3980SOL    HW121939   7.523   3.984   2.425
 3980SOL    HW221940   7.522   4.027   2.582
 3981SOL     OW21941   7.108   6.653   2.888
 3981SOL    HW121942   7.068   6.572   2.930
 3981SOL    HW221943   7.121   6.639   2.790
 3982SOL     OW21944   1.230   6.585   4.612
 3982SOL    HW121945   1.195   6.678   4.622
 3982SOL    HW221946   1.314   6.574   4.664
 3983SOL     OW21947   7.877   1.203   2.080
 3983SOL    HW121948   7.889   1.126   2.018
 3983SOL    HW221949   7.815   1.177   2.155
 3984SOL     OW21950   5.593   7.018   6.975
 3984SOL    HW121951   5.604   6.940   6.914
 3984SOL    HW221952   5.496   7.030   6.999
 3985SOL     OW21953   6.058   3.207   0.272
 3985SOL    HW121954   5.973   3.256   0.250
 3985SOL    HW221955   6.088   3.154   0.193
 3986SOL     OW21956   6.717   4.419   7.297
 3986SOL    HW121957   6.709   4.403   7.396
 3986SOL    HW221958   6.773   4.499   7.279
 3987SOL     OW21959   7.724   1.780   6.442
 3987SOL    HW121960   7.741   1.869   6.399
 3987SOL    HW221961   7.730   1.708   6.373
 3988SOL     OW21962   4.027   7.120   7.245
 3988SOL    HW121963   4.122   7.148   7.234
 3988SOL    HW221964   3.972   7.198   7.275
 3989SOL     OW21965   5.174   4.008   0.146
 3989SOL    HW121966   5.231   4.062   0.208
 3989SOL    HW221967   5.150   3.921   0.189
 3990SOL     OW21968   5.841   3.128   5.370
 3990SOL    HW121969   5.866   3.098   5.279
 3990SOL    HW221970   5.875   3.063   5.438
 3991SOL     OW21971   2.006   3.445   4.216
 3991SOL    HW121972   2.082   3.487   4.167
 3991SOL    HW221973   2.039   3.402   4.299
 3992SOL     OW21974   4.577   6.045   2.748
 3992SOL    HW121975   4.560   5.947   2.746
 3992SOL    HW221976   4.508   6.094   2.695
 3993SOL     OW21977   3.661   4.127   6.204
 3993SOL    HW121978   3.613   4.136   6.291
 3993SOL    HW221979   3.713   4.210   6.184
 3994SOL     OW21980   1.438   4.543   6.974
 3994SOL    HW121981   1.459   4.455   7.016
 3994SOL    HW221982   1.445   4.537   6.874
 3995SOL     OW21983   3.491   5.458   7.410
 3995SOL    HW121984   3.542   5.535   7.370
 3995SOL    HW221985   3.553   5.380   7.424
 3996SOL     OW21986   3.930   1.803   0.956
 3996SOL    HW121987   3.860   1.852   1.008
 3996SOL    HW221988   3.887   1.734   0.898
 3997SOL     OW21989   2.291   5.251   0.404
 3997SOL    HW121990   2.309   5.322   0.336
 3997SOL    HW221991   2.234   5.179   0.364
 3998SOL     OW21992   6.557   0.642   0.379
 3998SOL    HW121993   6.531   0.562   0.325
 3998SOL    HW221994   6.655   0.660   0.367
 3999SOL     OW21995   3.314   5.765   0.927
 3999SOL    HW121996   3.258   5.847   0.916
 3999SOL    HW221997   3.261   5.684   0.899
 4000SOL     OW21998   1.277   7.824   6.584
 4000SOL    HW121999   1.197   7.771   6.557
 4000SOL    HW222000   1.278   7.912   6.536
 4001SOL     OW22001   7.904   6.962   1.090
 4001SOL    HW122002   7.845   7.034   1.052
 4001SOL    HW222003   7.932   6.987   1.183
 4002SOL     OW22004   4.914   4.607   5.966
 4002SOL    HW122005   4.838   4.611   5.902
 4002SOL    HW222006   4.994   4.565   5.923
 4003SOL     OW22007   5.933   6.919   1.985
 4003SOL    HW122008   5.854   6.971   1.953
 4003SOL    HW222009   5.964   6.956   2.073
 4004SOL     OW22010   7.144   0.372   5.326
 4004SOL    HW122011   7.201   0.295   5.298
 4004SOL    HW222012   7.103   0.354   5.415
 4005SOL     OW22013  -0.000   2.951   3.007
 4005SOL    HW122014   0.003   2.853   2.986
 4005SOL    HW222015   0.066   3.000   2.950
 4006SOL     OW22016   1.900   0.853   0.313
 4006SOL    HW122017   1.929   0.830   0.406
 4006SOL    HW222018   1.949   0.934   0.281
 4007SOL     OW22019   5.350   1.320   0.784
 4007SOL    HW122020   5.326   1.251   0.853
 4007SOL    HW222021   5.336   1.283   0.692
 4008SOL     OW22022   6.930   1.781   6.161
 4008SOL    HW122023   6.991   1.819   6.092
 4008SOL    HW222024   6.934   1.681   6.160
 4009SOL     OW22025   1.689   1.564   7.656
 4009SOL    HW122026   1.757   1.613   7.711
 4009SOL    HW222027   1.638   1.501   7.714
 4010SOL     OW22028   1.206   2.258   4.084
 4010SOL    HW122029   1.282   2.298   4.034
 4010SOL    HW222030   1.222   2.266   4.183
 4011SOL     OW22031   1.815   6.570   7.646
 4011SOL    HW122032   1.768   6.639   7.701
 4011SOL    HW222033   1.855   6.500   7.705
 4012SOL     OW22034   7.162   2.358   2.219
 4012SOL    HW122035   7.118   2.349   2.308
 4012SOL    HW222036   7.130   2.286   2.158
 4013SOL     OW22037   1.416   2.212   5.884
 4013SOL    HW122038   1.477   2.147   5.930
 4013SOL    HW222039   1.469   2.265   5.818
 4014SOL     OW22040   3.813   5.396   5.843
 4014SOL    HW122041   3.886   5.463   5.858
 4014SOL    HW222042   3.739   5.438   5.792
 4015SOL     OW22043   1.090   3.877   2.017
 4015SOL    HW122044   1.152   3.849   1.944
 4015SOL    HW222045   1.000   3.898   1.979
 4016SOL     OW22046   0.333   1.014   3.787
 4016SOL    HW122047   0.391   1.068   3.725
 4016SOL    HW222048   0.285   0.943   3.735
 4017SOL     OW22049   5.735   6.095   2.702
 4017SOL    HW122050   5.764   6.010   2.746
 4017SOL    HW222051   5.650   6.128   2.743
 4018SOL     OW22052   2.846   1.879   0.059
 4018SOL    HW122053   2.755   1.900   0.094
 4018SOL    HW222054   2.878   1.953  -0.000
 4019SOL     OW22055   5.012   0.499   5.948
 4019SOL    HW122056   5.013   0.408   5.906
 4019SOL    HW222057   4.936   0.552   5.912
 4020SOL     OW22058   3.113   4.767   4.378
 4020SOL    HW122059   3.062   4.685   4.351
 4020SOL    HW222060   3.150   4.756   4.470
 4021SOL     OW22061   1.690   2.166   0.064
 4021SOL    HW122062   1.705   2.262   0.040
 4021SOL    HW222063   1.622   2.159   0.137
 4022SOL     OW22064   6.538   7.247   7.420
 4022SOL    HW122065   6.595   7.177   7.464
 4022SOL    HW222066   6.563   7.257   7.324
 4023SOL     OW22067   2.485   4.231   7.227
 4023SOL    HW122068   2.547   4.308   7.242
 4023SOL    HW222069   2.429   4.247   7.146
 4024SOL     OW22070   3.162   1.225   0.028
 4024SOL    HW122071   3.224   1.298  -0.000
 4024SOL    HW222072   3.203   1.171   0.102
 4025SOL     OW22073   2.803   2.149   0.619
 4025SOL    HW122074   2.766   2.110   0.534
 4025SOL    HW222075   2.734   2.205   0.664
 4026SOL     OW22076   6.527   6.100   3.234
 4026SOL    HW122077   6.600   6.153   3.280
 4026SOL    HW222078   6.526   6.006   3.269
 4027SOL     OW22079   1.951   5.347   1.705
 4027SOL    HW122080   1.953   5.437   1.750
 4027SOL    HW222081   1.878   5.291   1.745
 4028SOL     OW22082   3.211   0.520   0.912
 4028SOL    HW122083   3.273   0.453   0.953
 4028SOL    HW222084   3.236   0.534   0.816
 4029SOL     OW22085   6.244   3.147   6.637
 4029SOL    HW122086   6.213   3.230   6.591
 4029SOL    HW222087   6.339   3.158   6.667
 4030SOL     OW22088   4.457   2.860   7.047
 4030SOL    HW122089   4.504   2.846   7.133
 4030SOL    HW222090   4.405   2.946   7.049
 4031SOL     OW22091   6.870   1.121   7.189
 4031SOL    HW122092   6.810   1.123   7.269
 4031SOL    HW222093   6.958   1.163   7.212
 4032SOL     OW22094   1.719   2.278   3.819
 4032SOL    HW122095   1.668   2.358   3.785
 4032SOL    HW222096   1.658   2.200   3.829
 4033SOL     OW22097   6.503   1.856   7.722
 4033SOL    HW122098   6.499   1.949   7.685
 4033SOL    HW222099   6.541   1.858   7.815
 4034SOL     OW22100   3.814   1.174   7.076
 4034SOL    HW122101   3.737   1.224   7.116
 4034SOL    HW222102   3.795   1.153   6.981
 4035SOL     OW22103   2.634   1.867   4.350
 4035SOL    HW122104   2.552   1.818   4.321
 4035SOL    HW222105   2.702   1.803   4.385
 4036SOL     OW22106   6.695   5.392   1.656
 4036SOL    HW122107   6.642   5.465   1.699
 4036SOL    HW222108   6.689   5.400   1.556
 4037SOL     OW22109   6.836   1.349   7.294
 4037SOL    HW122110   6.927   1.388   7.309
 4037SOL    HW222111   6.799   1.315   7.380
 4038SOL     OW22112   2.908   7.694   2.622
 4038SOL    HW122113   2.907   7.789   2.653
 4038SOL    HW222114   2.876   7.688   2.528
 4039SOL     OW22115   6.014   3.295   0.791
 4039SOL    HW122116   6.054   3.345   0.714
 4039SOL    HW222117   6.074   3.303   0.871
 4040SOL     OW22118   7.887   5.865   2.610
 4040SOL    HW122119   7.947   5.920   2.668
 4040SOL    HW222120   7.791   5.885   2.630
 4041SOL     OW22121   7.582   3.374   2.230
 4041SOL    HW122122   7.498   3.354   2.178
 4041SOL    HW222123   7.559   3.428   2.312
 4042SOL     OW22124   3.306   3.372   0.025
 4042SOL    HW122125   3.270   3.462  -0.000
 4042SOL    HW222126   3.405   3.377   0.037
 4043SOL     OW22127   3.260   4.624   3.156
 4043SOL    HW122128   3.296   4.631   3.063
 4043SOL    HW222129   3.170   4.667   3.161
 4044SOL     OW22130   2.642   4.210   6.853
 4044SOL    HW122131   2.620   4.161   6.938
 4044SOL    HW222132   2.696   4.292   6.874
 4045SOL     OW22133   7.132   0.221   4.452
 4045SOL    HW122134   7.104   0.256   4.541
 4045SOL    HW222135   7.130   0.296   4.385
 4046SOL     OW22136  -0.000   1.713   1.145
 4046SOL    HW122137   0.010   1.702   1.046
 4046SOL    HW222138   0.080   1.676   1.192
 4047SOL     OW22139   1.149   6.201   5.600
 4047SOL    HW122140   1.087   6.269   5.639
 4047SOL    HW222141   1.096   6.124   5.563
 4048SOL     OW22142   6.173   7.015   4.712
 4048SOL    HW122143   6.173   6.918   4.736
 4048SOL    HW222144   6.223   7.029   4.626
 4049SOL     OW22145   7.775   4.914   0.169
 4049SOL    HW122146   7.750   4.878   0.258
 4049SOL    HW222147   7.867   4.884   0.144
 4050SOL     OW22148   7.148   5.016   7.698
 4050SOL    HW122149   7.189   5.078   7.766
 4050SOL    HW222150   7.210   4.939   7.681
 4051SOL     OW22151   3.985   5.138   2.614
 4051SOL    HW122152   3.901   5.184   2.641
 4051SOL    HW222153   3.967   5.074   2.539
 4052SOL     OW22154   6.312   4.767   6.062
 4052SOL    HW122155   6.406   4.771   6.027
 4052SOL    HW222156   6.312   4.741   6.158
 4053SOL     OW22157   2.340   2.938   5.477
 4053SOL    HW122158   2.389   3.012   5.524
 4053SOL    HW222159   2.374   2.849   5.509
 4054SOL     OW22160   7.629   3.841   1.538
 4054SOL    HW122161   7.627   3.832   1.439
 4054SOL    HW222162   7.709   3.794   1.575
 4055SOL     OW22163   6.521   3.266   3.043
 4055SOL    HW122164   6.575   3.348   3.063
 4055SOL    HW222165   6.476   3.275   2.955
 4056SOL     OW22166   5.206   7.775   3.155
 4056SOL    HW122167   5.280   7.814   3.209
 4056SOL    HW222168   5.163   7.700   3.206
 4057SOL     OW22169   4.906   0.258   4.608
 4057SOL    HW122170   4.887   0.321   4.683
 4057SOL    HW222171   4.845   0.278   4.531
 4058SOL     OW22172   2.020   4.955   1.466
 4058SOL    HW122173   2.099   5.011   1.439
 4058SOL    HW222174   1.978   4.914   1.386
 4059SOL     OW22175   1.653   6.024   1.582
 4059SOL    HW122176   1.594   5.952   1.618
 4059SOL    HW222177   1.603   6.077   1.513
 4060SOL     OW22178   4.696   2.004   1.574
 4060SOL    HW122179   4.705   1.992   1.673
 4060SOL    HW222180   4.647   1.927   1.534
 4061SOL     OW22181   3.215   6.898   4.285
 4061SOL    HW122182   3.274   6.975   4.309
 4061SOL    HW222183   3.264   6.812   4.302
 4062SOL     OW22184   5.199   1.414   5.338
 4062SOL    HW122185   5.150   1.405   5.251
 4062SOL    HW222186   5.274   1.480   5.327
 4063SOL     OW22187   0.558   1.159   1.936
 4063SOL    HW122188   0.499   1.142   1.857
 4063SOL    HW222189   0.508   1.140   2.020
 4064SOL     OW22190   4.744   2.550   4.076
 4064SOL    HW122191   4.703   2.458   4.070
 4064SOL    HW222192   4.833   2.544   4.122
 4065SOL     OW22193   6.920   5.299   4.137
 4065SOL    HW122194   6.900   5.201   4.144
 4065SOL    HW222195   6.839   5.353   4.161
 4066SOL     OW22196   3.124   2.602   1.485
 4066SOL    HW122197   3.077   2.671   1.429
 4066SOL    HW222198   3.203   2.567   1.435
 4067SOL     OW22199   1.117   4.596   1.256
 4067SOL    HW122200   1.116   4.530   1.332
 4067SOL    HW222201   1.079   4.683   1.286
 4068SOL     OW22202   1.295   2.512   1.154
 4068SOL    HW122203   1.196   2.508   1.168
 4068SOL    HW222204   1.315   2.520   1.057
 4069SOL     OW22205   4.354   4.009   5.015
 4069SOL    HW122206   4.369   3.915   4.983
 4069SOL    HW222207   4.319   4.009   5.108
 4070SOL     OW22208   6.524   4.548   6.381
 4070SOL    HW122209   6.474   4.634   6.389
 4070SOL    HW222210   6.485   4.492   6.308
 4071SOL     OW22211   1.445   1.791   6.789
 4071SOL    HW122212   1.398   1.722   6.735
 4071SOL    HW222213   1.388   1.818   6.867
 4072SOL     OW22214   5.976   5.907   7.674
 4072SOL    HW122215   5.946   5.823   7.719
 4072SOL    HW222216   5.985   5.981   7.741
 4073SOL     OW22217   6.056   1.419   7.312
 4073SOL    HW122218   5.961   1.391   7.303
 4073SOL    HW222219   6.077   1.490   7.244
 4074SOL     OW22220   2.096   7.841   4.397
 4074SOL    HW122221   2.150   7.925   4.408
 4074SOL    HW222222   2.083   7.797   4.485
 4075SOL     OW22223   1.027   7.782   2.409
 4075SOL    HW122224   0.984   7.725   2.479
 4075SOL    HW222225   1.011   7.743   2.319
 4076SOL     OW22226   4.341   3.741   7.177
 4076SOL    HW122227   4.385   3.665   7.225
 4076SOL    HW222228   4.400   3.822   7.180
 4077SOL     OW22229   5.930   2.699   0.340
 4077SOL    HW122230   5.944   2.653   0.428
 4077SOL    HW222231   5.907   2.632   0.270
 4078SOL     OW22232   3.339   0.192   6.819
 4078SOL    HW122233   3.254   0.158   6.861
 4078SOL    HW222234   3.344   0.161   6.724
 4079SOL     OW22235   0.056   0.887   4.051
 4079SOL    HW122236  -0.000   0.876   4.134
 4079SOL    HW222237   0.141   0.934   4.073
 4080SOL     OW22238   0.005   0.791   2.240
 4080SOL    HW122239   0.001   0.878   2.289
 4080SOL    HW222240   0.043   0.720   2.299
 4081SOL     OW22241   7.663   0.466   5.977
 4081SOL    HW122242   7.707   0.389   6.024
 4081SOL    HW222243   7.733   0.526   5.938
 4082SOL     OW22244   6.123   6.205   6.738
 4082SOL    HW122245   6.090   6.240   6.825
 4082SOL    HW222246   6.213   6.163   6.750
 4083SOL     OW22247   5.829   1.882   4.153
 4083SOL    HW122248   5.753   1.817   4.152
 4083SOL    HW222249   5.804   1.963   4.205
 4084SOL     OW22250   4.615   5.956   3.672
 4084SOL    HW122251   4.565   5.985   3.590
 4084SOL    HW222252   4.641   6.036   3.727
 4085SOL     OW22253   6.368   5.570   7.754
 4085SOL    HW122254   6.372   5.503   7.828
 4085SOL    HW222255   6.446   5.632   7.760
 4086SOL     OW22256   0.086   6.955   2.395
 4086SOL    HW122257  -0.000   6.906   2.384
 4086SOL    HW222258   0.163   6.896   2.371
 4087SOL     OW22259   6.732   2.578   4.522
 4087SOL    HW122260   6.787   2.573   4.438
 4087SOL    HW222261   6.790   2.566   4.602
 4088SOL     OW22262   1.658   6.241   7.286
 4088SOL    HW122263   1.745   6.191   7.277
 4088SOL    HW222264   1.619   6.224   7.376
 4089SOL     OW22265   2.352   3.064   0.660
 4089SOL    HW122266   2.338   3.151   0.707
 4089SOL    HW222267   2.269   3.040   0.609
 4090SOL     OW22268   0.870   7.691   6.970
 4090SOL    HW122269   0.960   7.650   6.955
 4090SOL    HW222270   0.846   7.687   7.067
 4091SOL     OW22271   0.864   3.280   0.405
 4091SOL    HW122272   0.793   3.330   0.455
 4091SOL    HW222273   0.826   3.245   0.319
 4092SOL     OW22274   5.085   0.367   0.229
 4092SOL    HW122275   5.047   0.296   0.171
 4092SOL    HW222276   5.169   0.403   0.190
 4093SOL     OW22277   0.732   7.600   1.406
 4093SOL    HW122278   0.771   7.582   1.316
 4093SOL    HW222279   0.797   7.574   1.477
 4094SOL     OW22280   2.868   2.060   7.197
 4094SOL    HW122281   2.789   2.005   7.168
 4094SOL    HW222282   2.949   2.002   7.204
 4095SOL     OW22283   4.568   5.287   5.158
 4095SOL    HW122284   4.579   5.248   5.067
 4095SOL    HW222285   4.601   5.222   5.227
 4096SOL     OW22286   6.338   7.379   6.869
 4096SOL    HW122287   6.384   7.467   6.880
 4096SOL    HW222288   6.288   7.377   6.782
 4097SOL     OW22289   7.378   3.724   3.259
 4097SOL    HW122290   7.324   3.645   3.230
 4097SOL    HW222291   7.353   3.751   3.352
 4098SOL     OW22292   2.513   0.062   2.335
 4098SOL    HW122293   2.579  -0.000   2.291
 4098SOL    HW222294   2.504   0.038   2.432
 4099SOL     OW22295   5.083   2.820   3.664
 4099SOL    HW122296   4.990   2.824   3.701
 4099SOL    HW222297   5.086   2.761   3.584
 4100SOL     OW22298   0.889   5.478   6.871
 4100SOL    HW122299   0.859   5.397   6.820
 4100SOL    HW222300   0.812   5.540   6.885
 4101SOL     OW22301   2.265   0.867   0.299
 4101SOL    HW122302   2.327   0.803   0.255
 4101SOL    HW222303   2.216   0.822   0.374
 4102SOL     OW22304   0.077   1.937   3.899
 4102SOL    HW122305   0.173   1.912   3.889
 4102SOL    HW222306   0.018   1.860   3.876
 4103SOL     OW22307   7.931   1.830   6.276
 4103SOL    HW122308   7.987   1.899   6.230
 4103SOL    HW222309   7.948   1.740   6.236
 4104SOL     OW22310   5.730   1.330   3.139
 4104SOL    HW122311   5.653   1.370   3.188
 4104SOL    HW222312   5.789   1.403   3.103
 4105SOL     OW22313   5.653   1.028   6.949
 4105SOL    HW122314   5.720   0.963   6.988
 4105SOL    HW222315   5.692   1.072   6.869
 4106SOL     OW22316   3.836   6.748   4.128
 4106SOL    HW122317   3.815   6.651   4.121
 4106SOL    HW222318   3.876   6.768   4.218
 4107SOL     OW22319   4.856   0.503   0.022
 4107SOL    HW122320   4.926   0.574   0.013
 4107SOL    HW222321   4.873   0.449   0.105
 4108SOL     OW22322   0.951   1.215   0.520
 4108SOL    HW122323   0.978   1.305   0.485
 4108SOL    HW222324   0.876   1.178   0.465
 4109SOL     OW22325   1.204   1.879   7.006
 4109SOL    HW122326   1.258   1.958   6.976
 4109SOL    HW222327   1.248   1.836   7.085
 4110SOL     OW22328   6.973   3.184   6.135
 4110SOL    HW122329   7.047   3.171   6.069
 4110SOL    HW222330   6.900   3.117   6.118
 4111SOL     OW22331   5.633   4.506   3.520
 4111SOL    HW122332   5.687   4.457   3.452
 4111SOL    HW222333   5.536   4.497   3.500
 4112SOL     OW22334   0.940   0.925   5.444
 4112SOL    HW122335   0.932   1.022   5.468
 4112SOL    HW222336   1.036   0.900   5.434
 4113SOL     OW22337   1.471   0.053   4.367
 4113SOL    HW122338   1.384   0.088   4.332
 4113SOL    HW222339   1.547   0.091   4.314
 4114SOL     OW22340   3.196   1.335   6.007
 4114SOL    HW122341   3.290   1.305   6.023
 4114SOL    HW222342   3.174   1.329   5.910
 4115SOL     OW22343   4.550   4.707   7.575
 4115SOL    HW122344   4.582   4.672   7.487
 4115SOL    HW222345   4.452   4.689   7.585
 4116SOL     OW22346   7.643   4.106   6.345
 4116SOL    HW122347   7.552   4.137   6.317
 4116SOL    HW222348   7.685   4.054   6.271
 4117SOL     OW22349   3.952   7.595   7.808
 4117SOL    HW122350   3.908   7.539   7.877
 4117SOL    HW222351   3.925   7.566   7.716
 4118SOL     OW22352   6.069   7.276   3.783
 4118SOL    HW122353   6.105   7.310   3.871
 4118SOL    HW222354   5.970   7.270   3.787
 4119SOL     OW22355   7.203   7.355   2.545
 4119SOL    HW122356   7.126   7.418   2.551
 4119SOL    HW222357   7.187   7.287   2.473
 4120SOL     OW22358   5.234   7.320   7.495
 4120SOL    HW122359   5.200   7.395   7.439
 4120SOL    HW222360   5.257   7.353   7.587
 4121SOL     OW22361   7.938   5.461   7.835
 4121SOL    HW122362   7.993   5.384   7.866
 4121SOL    HW222363   7.980   5.547   7.862
 4122SOL     OW22364   7.563   3.503   6.747
 4122SOL    HW122365   7.477   3.484   6.699
 4122SOL    HW222366   7.550   3.578   6.812
 4123SOL     OW22367   6.242   3.607   6.098
 4123SOL    HW122368   6.262   3.550   6.177
 4123SOL    HW222369   6.269   3.561   6.014
 4124SOL     OW22370   3.504   6.376   3.239
 4124SOL    HW122371   3.541   6.396   3.148
 4124SOL    HW222372   3.529   6.283   3.266
 4125SOL     OW22373   0.074   4.629   5.394
 4125SOL    HW122374   0.149   4.624   5.461
 4125SOL    HW222375   0.110   4.660   5.306
 4126SOL     OW22376   6.561   0.397   5.995
 4126SOL    HW122377   6.628   0.471   5.989
 4126SOL    HW222378   6.542   0.360   5.904
 4127SOL     OW22379   2.017   2.296   0.337
 4127SOL    HW122380   1.963   2.376   0.313
 4127SOL    HW222381   2.062   2.310   0.426
 4128SOL     OW22382   3.626   6.067   1.307
 4128SOL    HW122383   3.536   6.096   1.275
 4128SOL    HW222384   3.684   6.147   1.326
 4129SOL     OW22385   5.292   1.110   4.581
 4129SOL    HW122386   5.378   1.081   4.623
 4129SOL    HW222387   5.268   1.202   4.611
 4130SOL     OW22388   4.268   1.094   5.109
 4130SOL    HW122389   4.254   1.176   5.166
 4130SOL    HW222390   4.353   1.048   5.135
 4131SOL     OW22391   3.461   2.856   3.855
 4131SOL    HW122392   3.534   2.807   3.902
 4131SOL    HW222393   3.378   2.800   3.853
 4132SOL     OW22394   2.678   7.639   5.702
 4132SOL    HW122395   2.627   7.706   5.756
 4132SOL    HW222396   2.629   7.617   5.619
 4133SOL     OW22397   3.606   7.274   0.402
 4133SOL    HW122398   3.702   7.273   0.376
 4133SOL    HW222399   3.596   7.306   0.496
 4134SOL     OW22400   6.687   4.941   2.342
 4134SOL    HW122401   6.760   4.944   2.274
 4134SOL    HW222402   6.717   4.980   2.428
 4135SOL     OW22403   1.740   6.671   6.823
 4135SOL    HW122404   1.734   6.588   6.767
 4135SOL    HW222405   1.714   6.649   6.917
 4136SOL     OW22406   2.029   2.866   0.599
 4136SOL    HW122407   2.128   2.855   0.597
 4136SOL    HW222408   1.999   2.920   0.520
 4137SOL     OW22409   1.992   7.756   2.007
 4137SOL    HW122410   2.033   7.844   2.034
 4137SOL    HW222411   2.022   7.684   2.069
 4138SOL     OW22412   0.663   6.017   2.822
 4138SOL    HW122413   0.569   6.006   2.856
 4138SOL    HW222414   0.671   5.976   2.731
 4139SOL     OW22415   1.614   2.748   7.145
 4139SOL    HW122416   1.705   2.709   7.134
 4139SOL    HW222417   1.587   2.747   7.242
 4140SOL     OW22418   1.469   4.645   0.753
 4140SOL    HW122419   1.432   4.693   0.833
 4140SOL    HW222420   1.568   4.655   0.749
 4141SOL     OW22421   4.032   6.876   3.994
 4141SOL    HW122422   4.002   6.804   3.932
 4141SOL    HW222423   4.126   6.902   3.974
 4142SOL     OW22424   5.830   4.643   1.737
 4142SOL    HW122425   5.922   4.669   1.707
 4142SOL    HW222426   5.831   4.622   1.835
 4143SOL     OW22427   5.448   7.089   1.764
 4143SOL    HW122428   5.470   7.000   1.805
 4143SOL    HW222429   5.488   7.095   1.673
 4144SOL     OW22430   2.365   1.418   5.234
 4144SOL    HW122431   2.300   1.493   5.229
 4144SOL    HW222432   2.318   1.331   5.222
 4145SOL     OW22433   4.520   0.301   3.569
 4145SOL    HW122434   4.590   0.360   3.608
 4145SOL    HW222435   4.504   0.326   3.474
 4146SOL     OW22436   6.659   6.554   3.346
 4146SOL    HW122437   6.662   6.540   3.247
 4146SOL    HW222438   6.662   6.465   3.392
 4147SOL     OW22439   2.384   2.205   5.084
 4147SOL    HW122440   2.395   2.304   5.095
 4147SOL    HW222441   2.333   2.167   5.161
 4148SOL     OW22442   0.359   4.729   5.661
 4148SOL    HW122443   0.267   4.691   5.650
 4148SOL    HW222444   0.371   4.767   5.752
 4149SOL     OW22445   6.593   6.396   4.833
 4149SOL    HW122446   6.594   6.296   4.823
 4149SOL    HW222447   6.498   6.430   4.831
 4150SOL     OW22448   5.106   1.193   3.473
 4150SOL    HW122449   5.179   1.126   3.459
 4150SOL    HW222450   5.063   1.179   3.562
 4151SOL     OW22451   5.226   0.617   4.610
 4151SOL    HW122452   5.261   0.689   4.671
 4151SOL    HW222453   5.205   0.655   4.520
 4152SOL     OW22454   0.504   6.223   0.386
 4152SOL    HW122455   0.451   6.263   0.461
 4152SOL    HW222456   0.480   6.267   0.300
 4153SOL     OW22457   3.646   0.321   7.028
 4153SOL    HW122458   3.618   0.360   6.941
 4153SOL    HW222459   3.746   0.312   7.032
 4154SOL     OW22460   1.970   5.704   1.853
 4154SOL    HW122461   2.054   5.652   1.870
 4154SOL    HW222462   1.988   5.802   1.861
 4155SOL     OW22463   1.761   4.338   7.091
 4155SOL    HW122464   1.752   4.249   7.047
 4155SOL    HW222465   1.802   4.404   7.028
 4156SOL     OW22466   0.380   0.776   7.936
 4156SOL    HW122467   0.386   0.730   7.847
 4156SOL    HW222468   0.374   0.875   7.924
 4157SOL     OW22469   3.946   4.173   2.910
 4157SOL    HW122470   4.020   4.234   2.937
 4157SOL    HW222471   3.950   4.088   2.962
 4158SOL     OW22472   7.962   0.922   3.252
 4158SOL    HW122473   7.939   0.850   3.318
 4158SOL    HW222474   8.001   0.880   3.170
 4159SOL     OW22475   2.111   5.664   6.042
 4159SOL    HW122476   2.020   5.645   6.004
 4159SOL    HW222477   2.180   5.654   5.970
 4160SOL     OW22478   5.954   1.358   7.661
 4160SOL    HW122479   6.028   1.297   7.691
 4160SOL    HW222480   5.923   1.332   7.570
 4161SOL     OW22481   4.959   3.426   2.926
 4161SOL    HW122482   4.957   3.507   2.985
 4161SOL    HW222483   4.872   3.418   2.877
 4162SOL     OW22484   2.168   2.236   3.109
 4162SOL    HW122485   2.080   2.244   3.062
 4162SOL    HW222486   2.160   2.175   3.187
 4163SOL     OW22487   1.509   5.445   1.781
 4163SOL    HW122488   1.553   5.357   1.760
 4163SOL    HW222489   1.520   5.508   1.704
 4164SOL     OW22490   1.174   0.471   0.231
 4164SOL    HW122491   1.266   0.461   0.269
 4164SOL    HW222492   1.179   0.510   0.139
 4165SOL     OW22493   7.942   0.540   3.797
 4165SOL    HW122494   7.998   0.473   3.846
 4165SOL    HW222495   7.942   0.627   3.845
 4166SOL     OW22496   3.091   0.949   6.300
 4166SOL    HW122497   3.070   1.018   6.370
 4166SOL    HW222498   3.114   0.993   6.214
 4167SOL     OW22499   6.418   0.524   4.196
 4167SOL    HW122500   6.512   0.554   4.212
 4167SOL    HW222501   6.391   0.543   4.101
 4168SOL     OW22502   0.903   4.303   1.085
 4168SOL    HW122503   0.968   4.252   1.140
 4168SOL    HW222504   0.934   4.308   0.991
 4169SOL     OW22505   6.668   5.618   2.507
 4169SOL    HW122506   6.614   5.563   2.571
 4169SOL    HW222507   6.645   5.715   2.517
 4170SOL     OW22508   1.177   7.359   5.931
 4170SOL    HW122509   1.249   7.428   5.937
 4170SOL    HW222510   1.210   7.280   5.880
 4171SOL     OW22511   5.466   7.707   2.767
 4171SOL    HW122512   5.498   7.802   2.764
 4171SOL    HW222513   5.389   7.696   2.704
 4172SOL     OW22514   6.995   0.224   4.997
 4172SOL    HW122515   7.089   0.198   5.019
 4172SOL    HW222516   6.986   0.239   4.899
 4173SOL     OW22517   3.904   0.619   6.993
 4173SOL    HW122518   3.845   0.688   6.951
 4173SOL    HW222519   3.885   0.614   7.091
 4174SOL     OW22520   0.199   5.265   5.696
 4174SOL    HW122521   0.213   5.350   5.747
 4174SOL    HW222522   0.249   5.190   5.740
 4175SOL     OW22523   0.009   6.144   0.419
 4175SOL    HW122524  -0.000   6.044   0.429
 4175SOL    HW222525   0.060   6.166   0.337
 4176SOL     OW22526   4.346   6.653   0.046
 4176SOL    HW122527   4.402   6.570   0.046
 4176SOL    HW222528   4.335   6.688   0.139
 4177SOL     OW22529   5.735   7.718   7.784
 4177SOL    HW122530   5.642   7.680   7.782
 4177SOL    HW222531   5.779   7.703   7.695
 4178SOL     OW22532   6.209   3.467   5.656
 4178SOL    HW122533   6.141   3.489   5.586
 4178SOL    HW222534   6.270   3.395   5.623
 4179SOL     OW22535   7.789   0.273   1.544
 4179SOL    HW122536   7.859   0.313   1.485
 4179SOL    HW222537   7.711   0.242   1.489
 4180SOL     OW22538   5.351   5.191   0.698
 4180SOL    HW122539   5.284   5.123   0.728
 4180SOL    HW222540   5.373   5.178   0.602
 4181SOL     OW22541   0.192   0.191   0.587
 4181SOL    HW122542   0.282   0.162   0.620
 4181SOL    HW222543   0.197   0.215   0.491
 4182SOL     OW22544   3.126   2.105   2.760
 4182SOL    HW122545   3.142   2.201   2.738
 4182SOL    HW222546   3.142   2.048   2.680
 4183SOL     OW22547   5.285   4.091   5.738
 4183SOL    HW122548   5.381   4.115   5.732
 4183SOL    HW222549   5.263   4.018   5.672
 4184SOL     OW22550   4.068   5.000   2.939
 4184SOL    HW122551   4.122   5.060   2.997
 4184SOL    HW222552   4.040   5.048   2.856
 4185SOL     OW22553   7.330   7.746   7.112
 4185SOL    HW122554   7.267   7.817   7.081
 4185SOL    HW222555   7.359   7.766   7.206
 4186SOL     OW22556   3.983   3.660   4.082
 4186SOL    HW122557   3.956   3.695   3.993
 4186SOL    HW222558   3.902   3.627   4.132
 4187SOL     OW22559   4.674   0.183   0.604
 4187SOL    HW122560   4.673   0.132   0.690
 4187SOL    HW222561   4.766   0.221   0.589
 4188SOL     OW22562   4.214   7.808   8.000
 4188SOL    HW122563   4.200   7.709   7.996
 4188SOL    HW222564   4.163   7.853   7.927
 4189SOL     OW22565   4.086   1.341   4.539
 4189SOL    HW122566   4.121   1.316   4.629
 4189SOL    HW222567   4.025   1.420   4.547
 4190SOL     OW22568   3.453   5.776   3.957
 4190SOL    HW122569   3.533   5.765   3.897
 4190SOL    HW222570   3.460   5.713   4.035
 4191SOL     OW22571   0.515   0.509   0.102
 4191SOL    HW122572   0.509   0.410   0.112
 4191SOL    HW222573   0.571   0.533   0.023
 4192SOL     OW22574   7.332   7.952   1.422
 4192SOL    HW122575   7.406   8.001   1.469
 4192SOL    HW222576   7.309   7.999   1.337
 4193SOL     OW22577   1.637   2.390   7.842
 4193SOL    HW122578   1.675   2.419   7.930
 4193SOL    HW222579   1.690   2.430   7.767
 4194SOL     OW22580   4.390   3.688   2.428
 4194SOL    HW122581   4.390   3.784   2.402
 4194SOL    HW222582   4.443   3.676   2.512
 4195SOL     OW22583   4.800   6.237   1.758
 4195SOL    HW122584   4.790   6.330   1.722
 4195SOL    HW222585   4.836   6.241   1.851
 4196SOL     OW22586   6.106   6.997   0.380
 4196SOL    HW122587   6.119   6.899   0.366
 4196SOL    HW222588   6.071   7.015   0.472
 4197SOL     OW22589   5.252   0.015   3.236
 4197SOL    HW122590   5.175   0.026   3.173
 4197SOL    HW222591   5.294   0.104   3.253
 4198SOL     OW22592   5.744   5.994   7.685
 4198SOL    HW122593   5.727   6.076   7.740
 4198SOL    HW222594   5.705   5.914   7.729
 4199SOL     OW22595   7.172   7.672   0.143
 4199SOL    HW122596   7.236   7.602   0.172
 4199SOL    HW222597   7.138   7.651   0.051
 4200SOL     OW22598   0.666   6.459   2.156
 4200SOL    HW122599   0.582   6.466   2.101
 4200SOL    HW222600   0.706   6.369   2.146
 4201SOL     OW22601   7.159   1.721   2.470
 4201SOL    HW122602   7.153   1.623   2.489
 4201SOL    HW222603   7.149   1.772   2.556
 4202SOL     OW22604   7.533   5.382   1.580
 4202SOL    HW122605   7.466   5.356   1.511
 4202SOL    HW222606   7.614   5.422   1.536
 4203SOL     OW22607   4.932   4.388   2.372
 4203SOL    HW122608   4.885   4.467   2.333
 4203SOL    HW222609   4.962   4.409   2.466
 4204SOL     OW22610   1.290   6.069   0.520
 4204SOL    HW122611   1.277   6.163   0.491
 4204SOL    HW222612   1.311   6.011   0.441
 4205SOL     OW22613   4.507   0.223   2.125
 4205SOL    HW122614   4.601   0.194   2.144
 4205SOL    HW222615   4.445   0.185   2.193
 4206SOL     OW22616   1.511   4.665   1.037
 4206SOL    HW122617   1.444   4.723   1.082
 4206SOL    HW222618   1.579   4.633   1.103
 4207SOL     OW22619   3.726   7.481   2.341
 4207SOL    HW122620   3.634   7.466   2.305
 4207SOL    HW222621   3.724   7.489   2.440
 4208SOL     OW22622   3.402   0.826   4.831
 4208SOL    HW122623   3.339   0.748   4.834
 4208SOL    HW222624   3.376   0.888   4.757
 4209SOL     OW22625   1.892   5.439   7.310
 4209SOL    HW122626   1.923   5.434   7.215
 4209SOL    HW222627   1.935   5.367   7.364
 4210SOL     OW22628   1.626   7.152   1.657
 4210SOL    HW122629   1.526   7.143   1.657
 4210SOL    HW222630   1.664   7.107   1.738
 4211SOL     OW22631   3.632   4.463   1.881
 4211SOL    HW122632   3.633   4.381   1.939
 4211SOL    HW222633   3.650   4.544   1.937
 4212SOL     OW22634   6.568   3.051   1.626
 4212SOL    HW122635   6.658   3.048   1.583
 4212SOL    HW222636   6.573   3.013   1.718
 4213SOL     OW22637   5.402   4.122   4.666
 4213SOL    HW122638   5.447   4.162   4.746
 4213SOL    HW222639   5.470   4.086   4.603
 4214SOL     OW22640   0.665   0.773   0.260
 4214SOL    HW122641   0.652   0.862   0.215
 4214SOL    HW222642   0.693   0.787   0.355
 4215SOL     OW22643   2.665   4.139   4.309
 4215SOL    HW122644   2.614   4.225   4.294
 4215SOL    HW222645   2.635   4.070   4.243
 4216SOL     OW22646   2.524   0.746   2.271
 4216SOL    HW122647   2.606   0.693   2.293
 4216SOL    HW222648   2.536   0.794   2.184
 4217SOL     OW22649   5.519   2.614   5.827
 4217SOL    HW122650   5.577   2.533   5.840
 4217SOL    HW222651   5.508   2.633   5.730
 4218SOL     OW22652   1.409   1.897   6.056
 4218SOL    HW122653   1.502   1.929   6.074
 4218SOL    HW222654   1.400   1.872   5.959
 4219SOL     OW22655   3.658   1.383   2.945
 4219SOL    HW122656   3.623   1.293   2.918
 4219SOL    HW222657   3.624   1.407   3.036
 4220SOL     OW22658   7.195   6.340   2.789
 4220SOL    HW122659   7.265   6.325   2.718
 4220SOL    HW222660   7.174   6.253   2.835
 4221SOL     OW22661   7.093   3.532   5.920
 4221SOL    HW122662   7.170   3.592   5.944
 4221SOL    HW222663   7.010   3.563   5.966
 4222SOL     OW22664   1.766   7.365   0.201
 4222SOL    HW122665   1.757   7.279   0.150
 4222SOL    HW222666   1.677   7.409   0.210
 4223SOL     OW22667   4.525   6.653   7.183
 4223SOL    HW122668   4.545   6.629   7.278
 4223SOL    HW222669   4.504   6.571   7.130
 4224SOL     OW22670   4.977   5.146   1.994
 4224SOL    HW122671   4.880   5.119   1.986
 4224SOL    HW222672   4.997   5.172   2.088
 4225SOL     OW22673   0.585   2.887   5.837
 4225SOL    HW122674   0.661   2.826   5.858
 4225SOL    HW222675   0.572   2.893   5.738
 4226SOL     OW22676   7.780   4.174   4.609
 4226SOL    HW122677   7.869   4.139   4.642
 4226SOL    HW222678   7.795   4.250   4.547
 4227SOL     OW22679   7.276   2.967   1.344
 4227SOL    HW122680   7.186   2.999   1.372
 4227SOL    HW222681   7.271   2.925   1.253
 4228SOL     OW22682   5.977   4.988   0.204
 4228SOL    HW122683   6.006   5.006   0.110
 4228SOL    HW222684   5.929   4.900   0.209
 4229SOL     OW22685   4.244   0.954   5.382
 4229SOL    HW122686   4.286   1.036   5.344
 4229SOL    HW222687   4.158   0.935   5.334
 4230SOL     OW22688   6.489   0.773   4.011
 4230SOL    HW122689   6.473   0.748   4.107
 4230SOL    HW222690   6.540   0.700   3.965
 4231SOL     OW22691   6.609   1.589   1.970
 4231SOL    HW122692   6.572   1.658   1.908
 4231SOL    HW222693   6.626   1.630   2.060
 4232SOL     OW22694   4.139   1.482   3.570
 4232SOL    HW122695   4.084   1.441   3.643
 4232SOL    HW222696   4.203   1.548   3.608
 4233SOL     OW22697   1.101   3.813   1.151
 4233SOL    HW122698   1.154   3.877   1.094
 4233SOL    HW222699   1.004   3.818   1.127
 4234SOL     OW22700   5.276   6.385   6.144
 4234SOL    HW122701   5.251   6.299   6.099
 4234SOL    HW222702   5.315   6.366   6.234
 4235SOL     OW22703   4.194   2.184   0.923
 4235SOL    HW122704   4.200   2.269   0.870
 4235SOL    HW222705   4.187   2.205   1.020
 4236SOL     OW22706   3.553   7.051   4.905
 4236SOL    HW122707   3.591   7.003   4.985
 4236SOL    HW222708   3.455   7.036   4.899
 4237SOL     OW22709   4.855   0.434   3.945
 4237SOL    HW122710   4.883   0.426   4.041
 4237SOL    HW222711   4.917   0.496   3.898
 4238SOL     OW22712   2.970   4.181   7.580
 4238SOL    HW122713   2.894   4.246   7.582
 4238SOL    HW222714   2.981   4.138   7.669
 4239SOL     OW22715   5.417   1.834   5.276
 4239SOL    HW122716   5.439   1.781   5.358
 4239SOL    HW222717   5.493   1.894   5.252
 4240SOL     OW22718   6.012   1.618   3.923
 4240SOL    HW122719   5.928   1.623   3.977
 4240SOL    HW222720   5.996   1.650   3.830
 4241SOL     OW22721   3.855   3.613   6.460
 4241SOL    HW122722   3.836   3.659   6.547
 4241SOL    HW222723   3.800   3.654   6.387
 4242SOL     OW22724   2.934   3.962   1.423
 4242SOL    HW122725   2.863   3.950   1.354
 4242SOL    HW222726   2.902   3.928   1.512
 4243SOL     OW22727   5.330   4.128   3.339
 4243SOL    HW122728   5.308   4.065   3.265
 4243SOL    HW222729   5.263   4.119   3.412
 4244SOL     OW22730   0.090   6.229   7.592
 4244SOL    HW122731   0.167   6.292   7.579
 4244SOL    HW222732   0.072   6.179   7.508
 4245SOL     OW22733   0.572   1.919   3.516
 4245SOL    HW122734   0.510   1.974   3.572
 4245SOL    HW222735   0.667   1.939   3.539
 4246SOL     OW22736   3.715   6.720   4.396
 4246SOL    HW122737   3.697   6.675   4.308
 4246SOL    HW222738   3.736   6.817   4.381
 4247SOL     OW22739   4.262   2.875   7.304
 4247SOL    HW122740   4.316   2.815   7.244
 4247SOL    HW222741   4.251   2.834   7.394
 4248SOL     OW22742   4.455   0.689   2.144
 4248SOL    HW122743   4.389   0.647   2.205
 4248SOL    HW222744   4.458   0.638   2.057
 4249SOL     OW22745   3.943   1.299   5.174
 4249SOL    HW122746   3.977   1.360   5.245
 4249SOL    HW222747   3.858   1.336   5.135
 4250SOL     OW22748   6.582   2.256   7.698
 4250SOL    HW122749   6.510   2.323   7.680
 4250SOL    HW222750   6.610   2.213   7.612
 4251SOL     OW22751   5.530   5.050   0.361
 4251SOL    HW122752   5.461   4.987   0.325
 4251SOL    HW222753   5.543   5.126   0.297
 4252SOL     OW22754   0.977   2.439   5.797
 4252SOL    HW122755   0.930   2.362   5.842
 4252SOL    HW222756   1.019   2.407   5.712
 4253SOL     OW22757   6.494   0.214   7.726
 4253SOL    HW122758   6.489   0.298   7.672
 4253SOL    HW222759   6.453   0.228   7.816
 4254SOL     OW22760   5.853   3.463   3.008
 4254SOL    HW122761   5.860   3.552   3.054
 4254SOL    HW222762   5.943   3.418   3.008
 4255SOL     OW22763   5.817   1.373   0.409
 4255SOL    HW122764   5.801   1.313   0.488
 4255SOL    HW222765   5.730   1.402   0.370
 4256SOL     OW22766   4.604   1.609   1.383
 4256SOL    HW122767   4.674   1.570   1.324
 4256SOL    HW222768   4.615   1.574   1.476
 4257SOL     OW22769   1.685   4.811   4.140
 4257SOL    HW122770   1.707   4.784   4.234
 4257SOL    HW222771   1.745   4.763   4.076
 4258SOL     OW22772   6.246   1.371   1.280
 4258SOL    HW122773   6.324   1.410   1.328
 4258SOL    HW222774   6.258   1.272   1.269
 4259SOL     OW22775   5.069   2.745   6.393
 4259SOL    HW122776   5.144   2.779   6.335
 4259SOL    HW222777   5.063   2.799   6.477
 4260SOL     OW22778   7.721   2.019   3.772
 4260SOL    HW122779   7.785   2.085   3.732
 4260SOL    HW222780   7.657   1.987   3.703
 4261SOL     OW22781   7.801   4.820   1.871
 4261SOL    HW122782   7.782   4.895   1.808
 4261SOL    HW222783   7.809   4.854   1.965
 4262SOL     OW22784   2.329   4.856   5.614
 4262SOL    HW122785   2.347   4.879   5.710
 4262SOL    HW222786   2.232   4.833   5.602
 4263SOL     OW22787   4.005   7.775   4.938
 4263SOL    HW122788   4.005   7.680   4.906
 4263SOL    HW222789   3.949   7.783   5.021
 4264SOL     OW22790   1.676   3.494   1.794
 4264SOL    HW122791   1.687   3.512   1.696
 4264SOL    HW222792   1.748   3.433   1.826
 4265SOL     OW22793   2.589   3.504   2.497
 4265SOL    HW122794   2.683   3.533   2.475
 4265SOL    HW222795   2.527   3.582   2.489
 4266SOL     OW22796   3.649   1.768   0.368
 4266SOL    HW122797   3.589   1.819   0.306
 4266SOL    HW222798   3.638   1.800   0.462
 4267SOL     OW22799   5.952   5.580   1.878
 4267SOL    HW122800   5.884   5.650   1.856
 4267SOL    HW222801   6.026   5.583   1.811
 4268SOL     OW22802   0.990   5.614   5.823
 4268SOL    HW122803   0.954   5.530   5.783
 4268SOL    HW222804   0.959   5.624   5.917
 4269SOL     OW22805   7.610   4.342   6.868
 4269SOL    HW122806   7.615   4.418   6.933
 4269SOL    HW222807   7.699   4.328   6.825
 4270SOL     OW22808   2.842   6.431   5.705
 4270SOL    HW122809   2.815   6.524   5.681
 4270SOL    HW222810   2.798   6.366   5.643
 4271SOL     OW22811   0.152   0.044   3.841
 4271SOL    HW122812   0.063   0.013   3.806
 4271SOL    HW222813   0.143   0.135   3.881
 4272SOL     OW22814   0.124   5.312   3.189
 4272SOL    HW122815   0.060   5.261   3.246
 4272SOL    HW222816   0.136   5.405   3.226
 4273SOL     OW22817   7.550   7.408   4.989
 4273SOL    HW122818   7.583   7.484   5.045
 4273SOL    HW222819   7.624   7.374   4.931
 4274SOL     OW22820   6.628   1.931   2.996
 4274SOL    HW122821   6.638   2.030   3.009
 4274SOL    HW222822   6.577   1.912   2.912
 4275SOL     OW22823   4.430   7.756   1.917
 4275SOL    HW122824   4.470   7.848   1.908
 4275SOL    HW222825   4.379   7.750   2.003
 4276SOL     OW22826   4.783   6.578   6.205
 4276SOL    HW122827   4.689   6.590   6.238
 4276SOL    HW222828   4.785   6.517   6.126
 4277SOL     OW22829   4.048   2.601   6.366
 4277SOL    HW122830   4.147   2.609   6.356
 4277SOL    HW222831   4.004   2.684   6.332
 4278SOL     OW22832   0.924   3.981   7.610
 4278SOL    HW122833   0.891   3.928   7.688
 4278SOL    HW222834   0.952   3.921   7.536
 4279SOL     OW22835   7.003   2.352   4.264
 4279SOL    HW122836   6.934   2.357   4.192
 4279SOL    HW222837   7.026   2.257   4.283
 4280SOL     OW22838   3.891   2.340   2.219
 4280SOL    HW122839   3.869   2.410   2.287
 4280SOL    HW222840   3.990   2.338   2.204
 4281SOL     OW22841   6.281   1.512   4.860
 4281SOL    HW122842   6.352   1.442   4.863
 4281SOL    HW222843   6.211   1.487   4.793
 4282SOL     OW22844   3.092   0.448   3.861
 4282SOL    HW122845   3.114   0.369   3.804
 4282SOL    HW222846   2.998   0.442   3.892
 4283SOL     OW22847   3.323   2.194   4.719
 4283SOL    HW122848   3.297   2.108   4.765
 4283SOL    HW222849   3.396   2.239   4.771
 4284SOL     OW22850   7.638   4.286   2.541
 4284SOL    HW122851   7.543   4.297   2.573
 4284SOL    HW222852   7.658   4.190   2.525
 4285SOL     OW22853   2.586   3.215   7.470
 4285SOL    HW122854   2.624   3.163   7.393
 4285SOL    HW222855   2.489   3.234   7.455
 4286SOL     OW22856   5.892   3.362   2.304
 4286SOL    HW122857   5.799   3.325   2.302
 4286SOL    HW222858   5.890   3.457   2.335
 4287SOL     OW22859   1.978   6.214   5.804
 4287SOL    HW122860   1.891   6.175   5.773
 4287SOL    HW222861   1.969   6.245   5.898
 4288SOL     OW22862   0.160   0.647   0.126
 4288SOL    HW122863   0.212   0.707   0.187
 4288SOL    HW222864   0.192   0.658   0.032
 4289SOL     OW22865   5.547   1.256   0.503
 4289SOL    HW122866   5.597   1.218   0.425
 4289SOL    HW222867   5.453   1.222   0.503
 4290SOL     OW22868   5.812   2.710   2.043
 4290SOL    HW122869   5.865   2.785   2.003
 4290SOL    HW222870   5.781   2.648   1.970
 4291SOL     OW22871  -0.000   7.959   4.771
 4291SOL    HW122872   0.047   8.000   4.693
 4291SOL    HW222873   0.061   7.896   4.819
 4292SOL     OW22874   5.411   3.824   1.242
 4292SOL    HW122875   5.491   3.765   1.232
 4292SOL    HW222876   5.345   3.781   1.304
 4293SOL     OW22877   7.444   0.641   4.617
 4293SOL    HW122878   7.393   0.576   4.560
 4293SOL    HW222879   7.490   0.592   4.692
 4294SOL     OW22880   4.941   4.756   3.704
 4294SOL    HW122881   4.962   4.847   3.670
 4294SOL    HW222882   4.896   4.702   3.632
 4295SOL     OW22883   6.936   5.917   6.140
 4295SOL    HW122884   6.965   5.971   6.061
 4295SOL    HW222885   6.934   5.973   6.222
 4296SOL     OW22886   3.904   0.080   4.561
 4296SOL    HW122887   3.878   0.048   4.470
 4296SOL    HW222888   3.835   0.143   4.596
 4297SOL     OW22889   5.607   2.570   1.181
 4297SOL    HW122890   5.579   2.637   1.113
 4297SOL    HW222891   5.669   2.612   1.247
 4298SOL     OW22892   2.911   1.454   4.289
 4298SOL    HW122893   2.919   1.541   4.240
 4298SOL    HW222894   2.997   1.432   4.335
 4299SOL     OW22895   3.636   8.000   7.671
 4299SOL    HW122896   3.543   7.975   7.697
 4299SOL    HW222897   3.648   7.989   7.572
 4300SOL     OW22898   7.006   2.415   7.227
 4300SOL    HW122899   6.968   2.503   7.199
 4300SOL    HW222900   6.942   2.369   7.288
 4301SOL     OW22901   7.777   2.201   1.706
 4301SOL    HW122902   7.807   2.128   1.766
 4301SOL    HW222903   7.808   2.184   1.613
 4302SOL     OW22904   1.229   3.000   0.456
 4302SOL    HW122905   1.155   2.971   0.518
 4302SOL    HW222906   1.298   2.928   0.449
 4303SOL     OW22907   1.643   3.175   5.155
 4303SOL    HW122908   1.675   3.105   5.219
 4303SOL    HW222909   1.612   3.131   5.070
 4304SOL     OW22910   7.808   2.081   6.450
 4304SOL    HW122911   7.881   2.048   6.390
 4304SOL    HW222912   7.812   2.181   6.457
 4305SOL     OW22913   0.659   7.818   3.355
 4305SOL    HW122914   0.566   7.787   3.372
 4305SOL    HW222915   0.698   7.769   3.277
 4306SOL     OW22916   7.577   0.277   4.680
 4306SOL    HW122917   7.668   0.306   4.650
 4306SOL    HW222918   7.572   0.177   4.681
 4307SOL     OW22919   3.697   3.297   6.104
 4307SOL    HW122920   3.752   3.314   6.022
 4307SOL    HW222921   3.600   3.291   6.079
 4308SOL     OW22922   7.285   6.473   0.778
 4308SOL    HW122923   7.266   6.423   0.693
 4308SOL    HW222924   7.251   6.421   0.856
 4309SOL     OW22925   4.467   1.149   2.457
 4309SOL    HW122926   4.385   1.104   2.421
 4309SOL    HW222927   4.449   1.188   2.547
 4310SOL     OW22928   5.918   5.569   0.086
 4310SOL    HW122929   5.952   5.482   0.123
 4310SOL    HW222930   5.971   5.645   0.124
 4311SOL     OW22931   5.334   0.092   1.194
 4311SOL    HW122932   5.377   0.111   1.106
 4311SOL    HW222933   5.242   0.055   1.180
 4312SOL     OW22934   1.070   6.016   7.150
 4312SOL    HW122935   1.010   6.042   7.074
 4312SOL    HW222936   1.081   6.092   7.213
 4313SOL     OW22937   6.742   6.973   6.107
 4313SOL    HW122938   6.694   6.886   6.102
 4313SOL    HW222939   6.813   6.970   6.177
 4314SOL     OW22940   6.802   5.681   1.611
 4314SOL    HW122941   6.752   5.611   1.560
 4314SOL    HW222942   6.743   5.759   1.630
 4315SOL     OW22943   4.146   7.867   1.481
 4315SOL    HW122944   4.207   7.940   1.511
 4315SOL    HW222945   4.082   7.902   1.413
 4316SOL     OW22946   4.874   1.263   7.966
 4316SOL    HW122947   4.912   1.286   7.876
 4316SOL    HW222948   4.917   1.179   8.000
 4317SOL     OW22949   2.081   1.187   7.077
 4317SOL    HW122950   2.040   1.262   7.130
 4317SOL    HW222951   2.018   1.156   7.006
 4318SOL     OW22952   6.673   3.765   6.545
 4318SOL    HW122953   6.732   3.688   6.572
 4318SOL    HW222954   6.713   3.814   6.469
 4319SOL     OW22955   7.971   4.353   3.029
 4319SOL    HW122956   7.957   4.256   3.053
 4319SOL    HW222957   8.000   4.360   2.934
 4320SOL     OW22958   0.625   6.387   4.053
 4320SOL    HW122959   0.667   6.316   4.109
 4320SOL    HW222960   0.695   6.450   4.020
 4321SOL     OW22961   2.586   1.598   2.239
 4321SOL    HW122962   2.519   1.669   2.258
 4321SOL    HW222963   2.629   1.615   2.150
 4322SOL     OW22964   0.453   3.185   5.174
 4322SOL    HW122965   0.512   3.107   5.194
 4322SOL    HW222966   0.364   3.172   5.219
 4323SOL     OW22967   4.390   7.735   2.578
 4323SOL    HW122968   4.395   7.635   2.574
 4323SOL    HW222969   4.320   7.764   2.643
 4324SOL     OW22970   0.067   7.596   6.682
 4324SOL    HW122971  -0.000   7.526   6.708
 4324SOL    HW222972   0.033   7.649   6.604
 4325SOL     OW22973   4.331   6.518   5.923
 4325SOL    HW122974   4.300   6.460   5.848
 4325SOL    HW222975   4.430   6.514   5.931
 4326SOL     OW22976   2.473   2.328   7.518
 4326SOL    HW122977   2.518   2.343   7.606
 4326SOL    HW222978   2.382   2.289   7.532
 4327SOL     OW22979   5.009   2.399   5.536
 4327SOL    HW122980   5.017   2.304   5.566
 4327SOL    HW222981   5.045   2.408   5.444
 4328SOL     OW22982   1.157   2.253   3.589
 4328SOL    HW122983   1.181   2.319   3.659
 4328SOL    HW222984   1.127   2.300   3.506
 4329SOL     OW22985   1.408   2.319   2.900
 4329SOL    HW122986   1.490   2.376   2.890
 4329SOL    HW222987   1.414   2.265   2.984
 4330SOL     OW22988   3.918   4.456   2.130
 4330SOL    HW122989   3.860   4.379   2.104
 4330SOL    HW222990   3.908   4.475   2.228
 4331SOL     OW22991   4.243   7.937   0.582
 4331SOL    HW122992   4.219   7.854   0.634
 4331SOL    HW222993   4.248   7.915   0.485
 4332SOL     OW22994   0.788   3.520   5.234
 4332SOL    HW122995   0.884   3.512   5.262
 4332SOL    HW222996   0.778   3.494   5.138
 4333SOL     OW22997   7.234   2.724   3.038
 4333SOL    HW122998   7.174   2.700   2.961
 4333SOL    HW222999   7.326   2.744   3.004
 4334SOL     OW23000   2.878   2.335   7.428
 4334SOL    HW123001   2.881   2.311   7.525
 4334SOL    HW223002   2.971   2.333   7.390
 4335SOL     OW23003   2.070   5.045   7.204
 4335SOL    HW123004   2.131   4.975   7.167
 4335SOL    HW223005   2.035   5.016   7.293
 4336SOL     OW23006   0.497   5.577   6.683
 4336SOL    HW123007   0.515   5.674   6.663
 4336SOL    HW223008   0.513   5.522   6.601
 4337SOL     OW23009   4.613   3.127   5.014
 4337SOL    HW123010   4.528   3.094   5.054
 4337SOL    HW223011   4.633   3.078   4.929
 4338SOL     OW23012   1.807   4.470   0.527
 4338SOL    HW123013   1.886   4.425   0.486
 4338SOL    HW223014   1.765   4.411   0.595
 4339SOL     OW23015   4.536   4.618   3.460
 4339SOL    HW123016   4.515   4.571   3.375
 4339SOL    HW223017   4.618   4.579   3.501
 4340SOL     OW23018   5.140   4.439   0.427
 4340SOL    HW123019   5.180   4.531   0.420
 4340SOL    HW223020   5.052   4.436   0.380
 4341SOL     OW23021   4.580   3.566   1.396
 4341SOL    HW123022   4.650   3.637   1.405
 4341SOL    HW223023   4.600   3.508   1.318
 4342SOL     OW23024   2.367   5.783   1.942
 4342SOL    HW123025   2.459   5.819   1.960
 4342SOL    HW223026   2.331   5.824   1.858
 4343SOL     OW23027   2.225   6.321   7.348
 4343SOL    HW123028   2.151   6.260   7.375
 4343SOL    HW223029   2.289   6.333   7.424
 4344SOL     OW23030   0.062   7.026   6.874
 4344SOL    HW123031   0.056   6.943   6.930
 4344SOL    HW223032   0.143   7.022   6.815
 4345SOL     OW23033   2.812   4.143   3.149
 4345SOL    HW123034   2.816   4.234   3.108
 4345SOL    HW223035   2.863   4.142   3.236
 4346SOL     OW23036   2.124   5.925   4.629
 4346SOL    HW123037   2.203   5.871   4.658
 4346SOL    HW223038   2.136   5.956   4.535
 4347SOL     OW23039   7.678   0.900   3.530
 4347SOL    HW123040   7.691   0.988   3.576
 4347SOL    HW223041   7.616   0.910   3.452
 4348SOL     OW23042   0.575  -0.000   6.096
 4348SOL    HW123043   0.496   0.044   6.138
 4348SOL    HW223044   0.573   0.015   5.997
 4349SOL     OW23045   3.842   1.393   1.466
 4349SOL    HW123046   3.830   1.480   1.515
 4349SOL    HW223047   3.791   1.395   1.380
 4350SOL     OW23048   4.919   1.780   5.718
 4350SOL    HW123049   4.983   1.766   5.643
 4350SOL    HW223050   4.826   1.762   5.688
 4351SOL     OW23051   1.250   5.772   6.607
 4351SOL    HW123052   1.169   5.756   6.550
 4351SOL    HW223053   1.223   5.809   6.696
 4352SOL     OW23054   4.006   2.378   0.166
 4352SOL    HW123055   3.976   2.302   0.109
 4352SOL    HW223056   4.101   2.402   0.145
 4353SOL     OW23057   7.357   5.659   7.200
 4353SOL    HW123058   7.349   5.567   7.239
 4353SOL    HW223059   7.391   5.653   7.106
 4354SOL     OW23060   5.811   7.464   4.346
 4354SOL    HW123061   5.866   7.407   4.285
 4354SOL    HW223062   5.799   7.418   4.434
 4355SOL     OW23063   6.185   6.413   2.387
 4355SOL    HW123064   6.245   6.377   2.316
 4355SOL    HW223065   6.239   6.448   2.463
 4356SOL     OW23066   7.887   5.899   6.412
 4356SOL    HW123067   7.984   5.920   6.400
 4356SOL    HW223068   7.875   5.836   6.488
 4357SOL     OW23069   0.842   0.882   5.908
 4357SOL    HW123070   0.933   0.907   5.943
 4357SOL    HW223071   0.835   0.905   5.811
 4358SOL     OW23072   5.305   7.773   0.515
 4358SOL    HW123073   5.351   7.861   0.533
 4358SOL    HW223074   5.373   7.701   0.505
 4359SOL     OW23075   1.010   0.970   1.338
 4359SOL    HW123076   1.088   1.003   1.285
 4359SOL    HW223077   0.949   0.917   1.280
 4360SOL     OW23078   2.208   0.966   1.360
 4360SOL    HW123079   2.118   0.923   1.360
 4360SOL    HW223080   2.229   1.003   1.269
 4361SOL     OW23081   1.486   3.421   3.333
 4361SOL    HW123082   1.498   3.480   3.253
 4361SOL    HW223083   1.544   3.341   3.326
 4362SOL     OW23084   4.218   2.958   2.788
 4362SOL    HW123085   4.182   2.871   2.755
 4362SOL    HW223086   4.176   2.980   2.876
 4363SOL     OW23087   6.834   0.350   3.350
 4363SOL    HW123088   6.830   0.262   3.304
 4363SOL    HW223089   6.801   0.341   3.444
 4364SOL     OW23090   5.083   0.398   4.188
 4364SOL    HW123091   5.143   0.335   4.237
 4364SOL    HW223092   5.091   0.490   4.225
 4365SOL     OW23093   4.476   5.876   7.770
 4365SOL    HW123094   4.388   5.828   7.780
 4365SOL    HW223095   4.523   5.843   7.688
 4366SOL     OW23096   6.459   7.285   5.802
 4366SOL    HW123097   6.477   7.374   5.843
 4366SOL    HW223098   6.385   7.240   5.851
 4367SOL     OW23099   4.175   0.954   0.069
 4367SOL    HW123100   4.130   1.011   0.000
 4367SOL    HW223101   4.274   0.969   0.066
 4368SOL     OW23102   1.658   0.769   6.481
 4368SOL    HW123103   1.583   0.706   6.461
 4368SOL    HW223104   1.667   0.781   6.580
 4369SOL     OW23105   1.015   3.453   4.611
 4369SOL    HW123106   0.925   3.485   4.641
 4369SOL    HW223107   1.004   3.382   4.541
 4370SOL     OW23108   4.776   0.842   2.886
 4370SOL    HW123109   4.703   0.906   2.913
 4370SOL    HW223110   4.772   0.826   2.788
 4371SOL     OW23111   2.523   5.278   1.877
 4371SOL    HW123112   2.487   5.224   1.953
 4371SOL    HW223113   2.534   5.220   1.796
 4372SOL     OW23114   4.213   5.000   6.571
 4372SOL    HW123115   4.249   4.946   6.495
 4372SOL    HW223116   4.216   4.946   6.655
 4373SOL     OW23117   7.156   2.452   1.600
 4373SOL    HW123118   7.178   2.450   1.698
 4373SOL    HW223119   7.146   2.547   1.569
 4374SOL     OW23120   5.455   1.756   6.522
 4374SOL    HW123121   5.441   1.849   6.488
 4374SOL    HW223122   5.489   1.758   6.616
 4375SOL     OW23123   0.415   0.800   3.071
 4375SOL    HW123124   0.431   0.844   3.160
 4375SOL    HW223125   0.495   0.814   3.011
 4376SOL     OW23126   3.294   4.708   1.286
 4376SOL    HW123127   3.220   4.738   1.226
 4376SOL    HW223128   3.285   4.751   1.376
 4377SOL     OW23129   5.827   3.338   6.097
 4377SOL    HW123130   5.738   3.370   6.066
 4377SOL    HW223131   5.839   3.359   6.194
 4378SOL     OW23132   3.412   7.960   3.982
 4378SOL    HW123133   3.502   8.000   4.001
 4378SOL    HW223134   3.384   7.981   3.888
 4379SOL     OW23135   7.411   3.459   1.235
 4379SOL    HW123136   7.347   3.382   1.243
 4379SOL    HW223137   7.368   3.535   1.187
 4380SOL     OW23138   1.796   2.398   7.235
 4380SOL    HW123139   1.783   2.323   7.171
 4380SOL    HW223140   1.777   2.368   7.328
 4381SOL     OW23141   3.448   5.323   0.540
 4381SOL    HW123142   3.408   5.393   0.600
 4381SOL    HW223143   3.393   5.312   0.458
 4382SOL     OW23144   1.443   6.196   4.645
 4382SOL    HW123145   1.367   6.146   4.687
 4382SOL    HW223146   1.456   6.284   4.690
 4383SOL     OW23147   4.638   7.113   2.805
 4383SOL    HW123148   4.727   7.070   2.822
 4383SOL    HW223149   4.632   7.199   2.856
 4384SOL     OW23150   3.470   5.739   4.940
 4384SOL    HW123151   3.475   5.643   4.911
 4384SOL    HW223152   3.502   5.798   4.866
 4385SOL     OW23153   0.553   3.911   0.306
 4385SOL    HW123154   0.586   3.817   0.292
 4385SOL    HW223155   0.531   3.925   0.402
 4386SOL     OW23156   5.881   2.200   3.633
 4386SOL    HW123157   5.894   2.225   3.729
 4386SOL    HW223158   5.785   2.211   3.608
 4387SOL     OW23159   7.507   6.773   0.767
 4387SOL    HW123160   7.492   6.811   0.859
 4387SOL    HW223161   7.490   6.675   0.768
 4388SOL     OW23162   2.723   0.914   2.771
 4388SOL    HW123163   2.664   0.991   2.741
 4388SOL    HW223164   2.738   0.920   2.869
 4389SOL     OW23165   2.388   3.878   1.117
 4389SOL    HW123166   2.442   3.890   1.200
 4389SOL    HW223167   2.436   3.919   1.039
 4390SOL     OW23168   2.261   0.120   1.311
 4390SOL    HW123169   2.332   0.189   1.326
 4390SOL    HW223170   2.280   0.038   1.366
 4391SOL     OW23171   0.084   3.600   3.879
 4391SOL    HW123172   0.050   3.526   3.820
 4391SOL    HW223173   0.024   3.610   3.958
 4392SOL     OW23174   0.784   0.352   1.710
 4392SOL    HW123175   0.689   0.342   1.681
 4392SOL    HW223176   0.827   0.427   1.661
 4393SOL     OW23177   2.901   3.120   4.957
 4393SOL    HW123178   2.820   3.139   4.902
 4393SOL    HW223179   2.886   3.152   5.051
 4394SOL     OW23180   1.533   2.799   1.189
 4394SOL    HW123181   1.581   2.720   1.229
 4394SOL    HW223182   1.472   2.840   1.258
 4395SOL     OW23183   5.726   4.267   1.731
 4395SOL    HW123184   5.769   4.245   1.643
 4395SOL    HW223185   5.665   4.192   1.758
 4396SOL     OW23186   5.947   7.101   3.511
 4396SOL    HW123187   5.944   7.149   3.599
 4396SOL    HW223188   5.874   7.033   3.506
 4397SOL     OW23189   0.618   6.313   3.106
 4397SOL    HW123190   0.653   6.220   3.111
 4397SOL    HW223191   0.691   6.377   3.083
 4398SOL     OW23192   4.151   3.728   2.655
 4398SOL    HW123193   4.182   3.789   2.582
 4398SOL    HW223194   4.181   3.763   2.744
 4399SOL     OW23195   7.369   1.712   7.700
 4399SOL    HW123196   7.330   1.802   7.678
 4399SOL    HW223197   7.387   1.661   7.616
 4400SOL     OW23198   4.570   4.168   0.660
 4400SOL    HW123199   4.544   4.081   0.703
 4400SOL    HW223200   4.570   4.158   0.561
 4401SOL     OW23201   2.859   7.380   4.367
 4401SOL    HW123202   2.936   7.442   4.348
 4401SOL    HW223203   2.876   7.327   4.449
 4402SOL     OW23204   0.520   5.049   0.907
 4402SOL    HW123205   0.589   4.982   0.879
 4402SOL    HW223206   0.489   5.029   1.000
 4403SOL     OW23207   4.632   6.652   2.561
 4403SOL    HW123208   4.583   6.579   2.609
 4403SOL    HW223209   4.722   6.665   2.603
 4404SOL     OW23210   6.877   4.677   4.813
 4404SOL    HW123211   6.975   4.664   4.823
 4404SOL    HW223212   6.831   4.589   4.807
 4405SOL     OW23213   7.463   7.076   2.485
 4405SOL    HW123214   7.555   7.043   2.465
 4405SOL    HW223215   7.414   7.009   2.540
 4406SOL     OW23216   7.545   4.379   6.301
 4406SOL    HW123217   7.582   4.343   6.388
 4406SOL    HW223218   7.586   4.468   6.281
 4407SOL     OW23219   5.757   7.268   6.605
 4407SOL    HW123220   5.790   7.243   6.696
 4407SOL    HW223221   5.740   7.366   6.600
 4408SOL     OW23222   0.640   1.918   7.604
 4408SOL    HW123223   0.546   1.884   7.600
 4408SOL    HW223224   0.663   1.965   7.519
 4409SOL     OW23225   1.680   3.658   3.607
 4409SOL    HW123226   1.589   3.670   3.568
 4409SOL    HW223227   1.748   3.651   3.534
 4410SOL     OW23228   5.169   6.056   1.054
 4410SOL    HW123229   5.098   6.116   1.091
 4410SOL    HW223230   5.253   6.107   1.040
 4411SOL     OW23231   3.632   1.397   6.495
 4411SOL    HW123232   3.670   1.334   6.563
 4411SOL    HW223233   3.664   1.373   6.404
 4412SOL     OW23234   3.193   6.081   7.017
 4412SOL    HW123235   3.103   6.086   7.060
 4412SOL    HW223236   3.191   6.013   6.943
 4413SOL     OW23237   0.716   3.677   0.504
 4413SOL    HW123238   0.629   3.724   0.487
 4413SOL    HW223239   0.792   3.731   0.468
 4414SOL     OW23240   5.006   2.777   1.837
 4414SOL    HW123241   5.101   2.759   1.866
 4414SOL    HW223242   5.006   2.825   1.749
 4415SOL     OW23243   5.212   7.545   1.917
 4415SOL    HW123244   5.236   7.603   1.995
 4415SOL    HW223245   5.272   7.564   1.840
 4416SOL     OW23246   3.642   7.859   6.301
 4416SOL    HW123247   3.570   7.797   6.271
 4416SOL    HW223248   3.625   7.887   6.396
 4417SOL     OW23249   4.744   3.668   2.298
 4417SOL    HW123250   4.685   3.594   2.331
 4417SOL    HW223251   4.785   3.642   2.210
 4418SOL     OW23252   4.428   1.467   1.757
 4418SOL    HW123253   4.521   1.506   1.757
 4418SOL    HW223254   4.362   1.538   1.782
 4419SOL     OW23255   0.109   0.374   7.065
 4419SOL    HW123256   0.141   0.335   6.979
 4419SOL    HW223257   0.179   0.433   7.105
 4420SOL     OW23258   1.287   7.178   4.716
 4420SOL    HW123259   1.357   7.166   4.645
 4420SOL    HW223260   1.252   7.271   4.714
 4421SOL     OW23261   3.600   3.179   5.036
 4421SOL    HW123262   3.679   3.124   5.011
 4421SOL    HW223263   3.520   3.151   4.983
 4422SOL     OW23264   4.295   3.785   6.017
 4422SOL    HW123265   4.325   3.877   6.043
 4422SOL    HW223266   4.258   3.786   5.924
 4423SOL     OW23267   5.096   5.701   6.253
 4423SOL    HW123268   5.137   5.695   6.161
 4423SOL    HW223269   5.153   5.757   6.312
 4424SOL     OW23270   3.869   7.825   6.696
 4424SOL    HW123271   3.941   7.773   6.744
 4424SOL    HW223272   3.787   7.827   6.753
 4425SOL     OW23273   7.738   7.146   5.059
 4425SOL    HW123274   7.802   7.212   5.099
 4425SOL    HW223275   7.741   7.150   4.959
 4426SOL     OW23276   7.745   0.839   0.875
 4426SOL    HW123277   7.806   0.909   0.914
 4426SOL    HW223278   7.722   0.863   0.780
 4427SOL     OW23279   7.993   3.321   5.965
 4427SOL    HW123280   8.000   3.415   5.998
 4427SOL    HW223281   7.941   3.266   6.031
 4428SOL     OW23282   1.244   5.104   6.252
 4428SOL    HW123283   1.253   5.005   6.268
 4428SOL    HW223284   1.221   5.122   6.157
 4429SOL     OW23285   7.812   1.503   5.430
 4429SOL    HW123286   7.883   1.546   5.375
 4429SOL    HW223287   7.729   1.488   5.375
 4430SOL     OW23288   6.603   7.087   1.657
 4430SOL    HW123289   6.648   7.025   1.722
 4430SOL    HW223290   6.669   7.118   1.588
 4431SOL     OW23291   6.228   3.450   3.845
 4431SOL    HW123292   6.245   3.547   3.823
 4431SOL    HW223293   6.313   3.409   3.879
 4432SOL     OW23294   1.373   0.150   3.223
 4432SOL    HW123295   1.398   0.072   3.280
 4432SOL    HW223296   1.455   0.185   3.177
 4433SOL     OW23297   6.217   2.603   5.313
 4433SOL    HW123298   6.295   2.581   5.372
 4433SOL    HW223299   6.247   2.608   5.217
 4434SOL     OW23300   4.789   6.423   3.100
 4434SOL    HW123301   4.690   6.430   3.112
 4434SOL    HW223302   4.813   6.433   3.004
 4435SOL     OW23303   6.567   5.476   2.810
 4435SOL    HW123304   6.555   5.575   2.802
 4435SOL    HW223305   6.664   5.453   2.812
 4436SOL     OW23306   5.408   0.983   7.865
 4436SOL    HW123307   5.432   1.079   7.845
 4436SOL    HW223308   5.330   0.980   7.926
 4437SOL     OW23309   3.783   6.019   1.483
 4437SOL    HW123310   3.786   6.004   1.582
 4437SOL    HW223311   3.875   6.015   1.445
 4438SOL     OW23312   3.116   7.930   6.303
 4438SOL    HW123313   3.209   7.913   6.336
 4438SOL    HW223314   3.072   8.000   6.359
 4439SOL     OW23315   0.692   6.447   5.228
 4439SOL    HW123316   0.780   6.402   5.246
 4439SOL    HW223317   0.656   6.486   5.312
 4440SOL     OW23318   7.455   0.775   5.012
 4440SOL    HW123319   7.374   0.834   5.017
 4440SOL    HW223320   7.474   0.751   4.917
 4441SOL     OW23321   7.005   2.758   4.955
 4441SOL    HW123322   6.934   2.805   5.006
 4441SOL    HW223323   7.008   2.792   4.861
 4442SOL     OW23324   6.243   1.346   1.567
 4442SOL    HW123325   6.293   1.431   1.545
 4442SOL    HW223326   6.237   1.336   1.666
 4443SOL     OW23327   5.504   7.035   2.068
 4443SOL    HW123328   5.419   7.062   2.022
 4443SOL    HW223329   5.507   7.075   2.159
 4444SOL     OW23330   3.470   2.528   7.357
 4444SOL    HW123331   3.566   2.544   7.381
 4444SOL    HW223332   3.439   2.596   7.291
 4445SOL     OW23333   4.246   0.474   3.549
 4445SOL    HW123334   4.245   0.540   3.625
 4445SOL    HW223335   4.181   0.400   3.568
 4446SOL     OW23336   7.714   4.484   4.318
 4446SOL    HW123337   7.733   4.435   4.233
 4446SOL    HW223338   7.620   4.518   4.318
 4447SOL     OW23339   4.881   2.637   7.491
 4447SOL    HW123340   4.854   2.716   7.545
 4447SOL    HW223341   4.852   2.553   7.536
 4448SOL     OW23342   1.901   3.855   3.713
 4448SOL    HW123343   1.903   3.861   3.813
 4448SOL    HW223344   1.852   3.771   3.685
 4449SOL     OW23345   2.783   1.272   4.134
 4449SOL    HW123346   2.796   1.188   4.188
 4449SOL    HW223347   2.820   1.259   4.042
 4450SOL     OW23348   4.739   5.704   1.830
 4450SOL    HW123349   4.745   5.792   1.782
 4450SOL    HW223350   4.682   5.641   1.777
 4451SOL     OW23351   0.100   0.936   3.133
 4451SOL    HW123352   0.179   0.875   3.145
 4451SOL    HW223353   0.067   0.967   3.221
 4452SOL     OW23354   6.146   1.737   3.342
 4452SOL    HW123355   6.082   1.669   3.306
 4452SOL    HW223356   6.232   1.691   3.368
 4453SOL     OW23357   0.536   1.307   2.181
 4453SOL    HW123358   0.616   1.252   2.203
 4453SOL    HW223359   0.521   1.376   2.252
 4454SOL     OW23360   6.486   1.478   6.383
 4454SOL    HW123361   6.462   1.546   6.314
 4454SOL    HW223362   6.580   1.492   6.413
 4455SOL     OW23363   1.979   4.582   0.302
 4455SOL    HW123364   1.895   4.571   0.249
 4455SOL    HW223365   2.022   4.492   0.317
 4456SOL     OW23366   4.275   0.338   5.105
 4456SOL    HW123367   4.185   0.319   5.144
 4456SOL    HW223368   4.342   0.274   5.142
 4457SOL     OW23369   5.709   2.346   3.931
 4457SOL    HW123370   5.646   2.270   3.916
 4457SOL    HW223371   5.722   2.397   3.847
 4458SOL     OW23372   4.322   4.388   6.601
 4458SOL    HW123373   4.386   4.315   6.577
 4458SOL    HW223374   4.372   4.468   6.634
 4459SOL     OW23375   3.409   0.426   2.429
 4459SOL    HW123376   3.332   0.369   2.402
 4459SOL    HW223377   3.390   0.470   2.516
 4460SOL     OW23378   3.350   6.018   2.372
 4460SOL    HW123379   3.327   6.115   2.378
 4460SOL    HW223380   3.327   5.982   2.282
 4461SOL     OW23381   4.815   0.700   6.171
 4461SOL    HW123382   4.787   0.645   6.092
 4461SOL    HW223383   4.884   0.766   6.143
 4462SOL     OW23384   5.569   7.906   7.661
 4462SOL    HW123385   5.561   8.001   7.692
 4462SOL    HW223386   5.665   7.883   7.645
 4463SOL     OW23387   0.117   0.565   1.311
 4463SOL    HW123388   0.072   0.477   1.323
 4463SOL    HW223389   0.147   0.576   1.217
 4464SOL     OW23390   6.716   4.247   3.796
 4464SOL    HW123391   6.668   4.249   3.709
 4464SOL    HW223392   6.662   4.196   3.864
 4465SOL     OW23393   1.719   1.212   7.967
 4465SOL    HW123394   1.687   1.123   8.000
 4465SOL    HW223395   1.707   1.218   7.868
 4466SOL     OW23396   1.998   5.004   5.629
 4466SOL    HW123397   2.026   4.923   5.679
 4466SOL    HW223398   2.019   4.994   5.532
 4467SOL     OW23399   5.396   2.095   5.296
 4467SOL    HW123400   5.355   2.066   5.209
 4467SOL    HW223401   5.331   2.083   5.371
 4468SOL     OW23402   7.125   1.015   4.355
 4468SOL    HW123403   7.119   0.923   4.316
 4468SOL    HW223404   7.198   1.066   4.310
 4469SOL     OW23405   1.561   3.656   7.651
 4469SOL    HW123406   1.552   3.751   7.681
 4469SOL    HW223407   1.586   3.598   7.728
 4470SOL     OW23408   6.422   4.695   0.828
 4470SOL    HW123409   6.463   4.674   0.739
 4470SOL    HW223410   6.400   4.792   0.835
 4471SOL     OW23411   4.581   0.904   7.476
 4471SOL    HW123412   4.560   0.886   7.380
 4471SOL    HW223413   4.663   0.854   7.503
 4472SOL     OW23414   6.512   5.082   2.844
 4472SOL    HW123415   6.559   5.009   2.796
 4472SOL    HW223416   6.490   5.054   2.938
 4473SOL     OW23417   3.411   6.464   2.278
 4473SOL    HW123418   3.439   6.498   2.368
 4473SOL    HW223419   3.488   6.465   2.215
 4474SOL     OW23420   2.478   7.631   1.186
 4474SOL    HW123421   2.578   7.640   1.194
 4474SOL    HW223422   2.448   7.668   1.098
 4475SOL     OW23423   0.980   5.668   5.534
 4475SOL    HW123424   0.891   5.694   5.574
 4475SOL    HW223425   1.037   5.626   5.603
 4476SOL     OW23426   6.838   1.722   1.937
 4476SOL    HW123427   6.881   1.747   1.850
 4476SOL    HW223428   6.758   1.780   1.952
 4477SOL     OW23429   0.502   5.732   7.604
 4477SOL    HW123430   0.492   5.712   7.507
 4477SOL    HW223431   0.594   5.707   7.635
 4478SOL     OW23432   4.852   2.303   2.551
 4478SOL    HW123433   4.914   2.378   2.576
 4478SOL    HW223434   4.826   2.311   2.455
 4479SOL     OW23435   6.390   6.728   0.371
 4479SOL    HW123436   6.404   6.669   0.451
 4479SOL    HW223437   6.423   6.683   0.289
 4480SOL     OW23438   1.382   2.680   2.802
 4480SOL    HW123439   1.464   2.636   2.767
 4480SOL    HW223440   1.390   2.779   2.794
 4481SOL     OW23441   7.352   7.916   0.883
 4481SOL    HW123442   7.395   7.851   0.819
 4481SOL    HW223443   7.406   8.000   0.886
 4482SOL     OW23444   0.339   3.679   0.568
 4482SOL    HW123445   0.417   3.731   0.605
 4482SOL    HW223446   0.316   3.712   0.477
 4483SOL     OW23447   4.868   4.796   7.381
 4483SOL    HW123448   4.917   4.881   7.399
 4483SOL    HW223449   4.905   4.722   7.438
 4484SOL     OW23450   7.670   1.758   5.540
 4484SOL    HW123451   7.656   1.832   5.473
 4484SOL    HW223452   7.681   1.796   5.631
 4485SOL     OW23453   4.782   2.383   4.527
 4485SOL    HW123454   4.816   2.340   4.444
 4485SOL    HW223455   4.851   2.447   4.563
 4486SOL     OW23456   6.107   3.812   1.856
 4486SOL    HW123457   6.090   3.724   1.900
 4486SOL    HW223458   6.143   3.799   1.764
 4487SOL     OW23459   5.103   3.567   3.369
 4487SOL    HW123460   5.184   3.575   3.312
 4487SOL    HW223461   5.076   3.471   3.376
 4488SOL     OW23462   4.103   2.166   7.592
 4488SOL    HW123463   4.109   2.266   7.596
 4488SOL    HW223464   4.041   2.133   7.663
 4489SOL     OW23465   2.993   3.469   3.305
 4489SOL    HW123466   3.043   3.401   3.359
 4489SOL    HW223467   3.022   3.466   3.210
 4490SOL     OW23468   7.754   5.417   5.344
 4490SOL    HW123469   7.833   5.472   5.371
 4490SOL    HW223470   7.727   5.440   5.250
 4491SOL     OW23471   2.294   1.417   6.989
 4491SOL    HW123472   2.300   1.318   6.973
 4491SOL    HW223473   2.297   1.436   7.087
 4492SOL     OW23474   6.114   4.063   3.949
 4492SOL    HW123475   6.058   4.145   3.959
 4492SOL    HW223476   6.066   3.996   3.892
 4493SOL     OW23477   6.922   2.310   5.102
 4493SOL    HW123478   6.953   2.404   5.113
 4493SOL    HW223479   6.894   2.294   5.007
 4494SOL     OW23480   0.000   1.836   5.766
 4494SOL    HW123481   0.044   1.917   5.728
 4494SOL    HW223482   0.070   1.772   5.799
 4495SOL     OW23483   4.082   0.573   3.869
 4495SOL    HW123484   4.182   0.577   3.868
 4495SOL    HW223485   4.049   0.546   3.959
 4496SOL     OW23486   6.436   7.778   1.186
 4496SOL    HW123487   6.371   7.850   1.159
 4496SOL    HW223488   6.393   7.717   1.253
 4497SOL     OW23489   2.190   5.192   6.561
 4497SOL    HW123490   2.165   5.104   6.519
 4497SOL    HW223491   2.128   5.212   6.637
 4498SOL     OW23492   2.221   0.363   4.918
 4498SOL    HW123493   2.163   0.380   4.997
 4498SOL    HW223494   2.175   0.391   4.834
 4499SOL     OW23495   6.666   1.298   4.041
 4499SOL    HW123496   6.751   1.266   3.998
 4499SOL    HW223497   6.660   1.264   4.135
 4500SOL     OW23498   1.728   3.139   7.489
 4500SOL    HW123499   1.827   3.151   7.485
 4500SOL    HW223500   1.705   3.046   7.516
 4501SOL     OW23501   4.327   2.369   6.942
 4501SOL    HW123502   4.240   2.331   6.912
 4501SOL    HW223503   4.320   2.401   7.036
 4502SOL     OW23504   6.009   1.137   0.424
 4502SOL    HW123505   5.925   1.103   0.383
 4502SOL    HW223506   5.988   1.196   0.502
 4503SOL     OW23507   4.390   3.004   0.778
 4503SOL    HW123508   4.339   2.925   0.813
 4503SOL    HW223509   4.426   2.984   0.687
 4504SOL     OW23510   1.758   5.337   1.380
 4504SOL    HW123511   1.818   5.258   1.392
 4504SOL    HW223512   1.663   5.308   1.377
 4505SOL     OW23513   1.429   6.350   6.754
 4505SOL    HW123514   1.425   6.398   6.667
 4505SOL    HW223515   1.354   6.380   6.813
 4506SOL     OW23516   7.025   2.145   1.863
 4506SOL    HW123517   6.926   2.147   1.848
 4506SOL    HW223518   7.053   2.052   1.888
 4507SOL     OW23519   3.128   6.306   1.532
 4507SOL    HW123520   3.158   6.376   1.598
 4507SOL    HW223521   3.031   6.287   1.543
 4508SOL     OW23522   3.598   4.747   7.728
 4508SOL    HW123523   3.531   4.690   7.776
 4508SOL    HW223524   3.607   4.717   7.633
 4509SOL     OW23525   0.686   0.818   6.127
 4509SOL    HW123526   0.735   0.743   6.081
 4509SOL    HW223527   0.655   0.788   6.217
 4510SOL     OW23528   3.504   1.178   3.508
 4510SOL    HW123529   3.431   1.113   3.532
 4510SOL    HW223530   3.483   1.268   3.547
 4511SOL     OW23531   7.948   5.540   4.133
 4511SOL    HW123532   7.990   5.598   4.064
 4511SOL    HW223533   8.000   5.546   4.218
 4512SOL     OW23534   4.630   1.047   5.154
 4512SOL    HW123535   4.556   1.080   5.213
 4512SOL    HW223536   4.609   1.066   5.059
 4513SOL     OW23537   0.263   7.222   1.991
 4513SOL    HW123538   0.194   7.151   2.005
 4513SOL    HW223539   0.226   7.295   1.932
 4514SOL     OW23540   2.310   7.562   0.376
 4514SOL    HW123541   2.382   7.580   0.443
 4514SOL    HW223542   2.336   7.598   0.287
 4515SOL     OW23543   4.578   2.822   5.495
 4515SOL    HW123544   4.633   2.743   5.521
 4515SOL    HW223545   4.489   2.792   5.460
 4516SOL     OW23546   3.991   6.830   3.713
 4516SOL    HW123547   4.011   6.867   3.622
 4516SOL    HW223548   4.034   6.740   3.723
 4517SOL     OW23549   1.659   5.426   6.023
 4517SOL    HW123550   1.711   5.351   5.983
 4517SOL    HW223551   1.631   5.403   6.116
 4518SOL     OW23552   0.498   0.873   3.622
 4518SOL    HW123553   0.553   0.800   3.580
 4518SOL    HW223554   0.487   0.857   3.720
 4519SOL     OW23555   4.715   7.285   5.941
 4519SOL    HW123556   4.768   7.369   5.928
 4519SOL    HW223557   4.733   7.246   6.031
 4520SOL     OW23558   7.921   6.033   4.897
 4520SOL    HW123559   7.956   5.947   4.859
 4520SOL    HW223560   7.947   6.040   4.994
 4521SOL     OW23561   3.600   6.944   3.235
 4521SOL    HW123562   3.510   6.983   3.255
 4521SOL    HW223563   3.589   6.856   3.187
 4522SOL     OW23564   2.916   4.426   0.424
 4522SOL    HW123565   2.883   4.333   0.408
 4522SOL    HW223566   3.015   4.430   0.411
 4523SOL     OW23567   7.103   6.376   4.016
 4523SOL    HW123568   7.182   6.425   4.056
 4523SOL    HW223569   7.085   6.411   3.924
 4524SOL     OW23570   5.962   4.184   6.266
 4524SOL    HW123571   6.054   4.185   6.305
 4524SOL    HW223572   5.932   4.089   6.253
 4525SOL     OW23573   6.042   3.517   5.188
 4525SOL    HW123574   6.077   3.576   5.261
 4525SOL    HW223575   5.958   3.471   5.219
 4526SOL     OW23576   0.575   4.667   6.392
 4526SOL    HW123577   0.497   4.617   6.431
 4526SOL    HW223578   0.628   4.607   6.332
 4527SOL     OW23579   1.656   1.306   1.150
 4527SOL    HW123580   1.716   1.335   1.226
 4527SOL    HW223581   1.707   1.248   1.087
 4528SOL     OW23582   7.659   1.651   2.133
 4528SOL    HW123583   7.584   1.597   2.095
 4528SOL    HW223584   7.647   1.660   2.232
 4529SOL     OW23585   7.233   1.399   2.974
 4529SOL    HW123586   7.148   1.346   2.975
 4529SOL    HW223587   7.265   1.415   3.067
 4530SOL     OW23588   6.788   3.020   6.957
 4530SOL    HW123589   6.699   3.002   6.998
 4530SOL    HW223590   6.787   2.991   6.861
 4531SOL     OW23591   2.140   3.347   4.942
 4531SOL    HW123592   2.069   3.277   4.947
 4531SOL    HW223593   2.230   3.306   4.958
 4532SOL     OW23594   5.509   1.673   0.957
 4532SOL    HW123595   5.469   1.667   0.865
 4532SOL    HW223596   5.447   1.723   1.018
 4533SOL     OW23597   6.906   0.093   2.658
 4533SOL    HW123598   6.955   0.150   2.725
 4533SOL    HW223599   6.823   0.140   2.628
 4534SOL     OW23600   2.107   6.528   2.040
 4534SOL    HW123601   2.087   6.440   2.082
 4534SOL    HW223602   2.203   6.530   2.010
 4535SOL     OW23603   4.308   6.352   2.283
 4535SOL    HW123604   4.392   6.339   2.230
 4535SOL    HW223605   4.234   6.298   2.243
 4536SOL     OW23606   6.201   4.344   3.833
 4536SOL    HW123607   6.246   4.397   3.905
 4536SOL    HW223608   6.232   4.249   3.836
 4537SOL     OW23609   3.616   2.196   1.673
 4537SOL    HW123610   3.686   2.249   1.722
 4537SOL    HW223611   3.543   2.170   1.737
 4538SOL     OW23612   7.756   3.654   6.553
 4538SOL    HW123613   7.691   3.720   6.516
 4538SOL    HW223614   7.784   3.682   6.645
 4539SOL     OW23615   3.628   4.176   3.947
 4539SOL    HW123616   3.635   4.265   3.994
 4539SOL    HW223617   3.641   4.189   3.849
 4540SOL     OW23618   7.535   0.755   4.086
 4540SOL    HW123619   7.545   0.744   4.185
 4540SOL    HW223620   7.600   0.823   4.053
 4541SOL     OW23621   7.391   7.948   5.151
 4541SOL    HW123622   7.453   7.911   5.221
 4541SOL    HW223623   7.442   7.980   5.072
 4542SOL     OW23624   4.691   2.076   2.216
 4542SOL    HW123625   4.644   2.106   2.133
 4542SOL    HW223626   4.677   1.979   2.230
 4543SOL     OW23627   0.650   3.057   3.922
 4543SOL    HW123628   0.747   3.040   3.904
 4543SOL    HW223629   0.639   3.117   4.001
 4544SOL     OW23630   3.932   2.154   6.904
 4544SOL    HW123631   3.843   2.110   6.897
 4544SOL    HW223632   3.944   2.220   6.830
 4545SOL     OW23633   5.380   5.534   6.571
 4545SOL    HW123634   5.369   5.577   6.661
 4545SOL    HW223635   5.322   5.580   6.503
 4546SOL     OW23636   4.247   1.308   3.226
 4546SOL    HW123637   4.207   1.228   3.180
 4546SOL    HW223638   4.243   1.296   3.325
 4547SOL     OW23639   7.670   7.703   5.732
 4547SOL    HW123640   7.588   7.666   5.688
 4547SOL    HW223641   7.677   7.801   5.714
 4548SOL     OW23642   3.840   4.352   3.481
 4548SOL    HW123643   3.885   4.441   3.480
 4548SOL    HW223644   3.770   4.348   3.409
 4549SOL     OW23645   3.946   3.014   3.132
 4549SOL    HW123646   4.012   3.086   3.112
 4549SOL    HW223647   3.853   3.046   3.111
 4550SOL     OW23648   4.472   7.070   3.418
 4550SOL    HW123649   4.385   7.024   3.437
 4550SOL    HW223650   4.548   7.012   3.446
 4551SOL     OW23651   3.695   3.715   2.059
 4551SOL    HW123652   3.761   3.790   2.045
 4551SOL    HW223653   3.612   3.732   2.008
 4552SOL     OW23654   3.103   1.898   4.035
 4552SOL    HW123655   3.141   1.941   4.117
 4552SOL    HW223656   3.175   1.886   3.967
 4553SOL     OW23657   3.676   3.651   4.822
 4553SOL    HW123658   3.765   3.681   4.857
 4553SOL    HW223659   3.658   3.692   4.733
 4554SOL     OW23660   0.218   7.919   7.403
 4554SOL    HW123661   0.156   7.930   7.480
 4554SOL    HW223662   0.215   8.000   7.345
 4555SOL     OW23663   4.810   7.667   3.304
 4555SOL    HW123664   4.872   7.738   3.273
 4555SOL    HW223665   4.830   7.642   3.398
 4556SOL     OW23666   1.635   1.365   0.783
 4556SOL    HW123667   1.661   1.272   0.808
 4556SOL    HW223668   1.694   1.431   0.829
 4557SOL     OW23669   5.730   5.411   0.032
 4557SOL    HW123670   5.709   5.313   0.036
 4557SOL    HW223671   5.650   5.461  -0.000
 4558SOL     OW23672   2.645   3.505   4.370
 4558SOL    HW123673   2.717   3.446   4.408
 4558SOL    HW223674   2.599   3.555   4.444
 4559SOL     OW23675   4.658   3.591   0.504
 4559SOL    HW123676   4.715   3.614   0.425
 4559SOL    HW223677   4.641   3.673   0.559
 4560SOL     OW23678   5.529   5.260   2.876
 4560SOL    HW123679   5.454   5.317   2.841
 4560SOL    HW223680   5.591   5.237   2.801
 4561SOL     OW23681   2.532   3.692   4.042
 4561SOL    HW123682   2.473   3.681   3.962
 4561SOL    HW223683   2.526   3.786   4.075
 4562SOL     OW23684   6.059   6.944   6.067
 4562SOL    HW123685   5.987   7.009   6.092
 4562SOL    HW223686   6.111   6.980   5.989
 4563SOL     OW23687   2.229   5.696   3.457
 4563SOL    HW123688   2.274   5.770   3.507
 4563SOL    HW223689   2.265   5.693   3.363
 4564SOL     OW23690   2.110   0.328   7.953
 4564SOL    HW123691   2.103   0.241   8.002
 4564SOL    HW223692   2.057   0.398   8.000
 4565SOL     OW23693   2.532   6.991   3.885
 4565SOL    HW123694   2.515   6.981   3.983
 4565SOL    HW223695   2.466   7.054   3.845
 4566SOL     OW23696   6.723   2.385   3.024
 4566SOL    HW123697   6.798   2.449   3.005
 4566SOL    HW223698   6.670   2.369   2.941
 4567SOL     OW23699   0.636   5.419   4.843
 4567SOL    HW123700   0.584   5.500   4.872
 4567SOL    HW223701   0.597   5.337   4.885
 4568SOL     OW23702   1.362   6.331   0.110
 4568SOL    HW123703   1.284   6.389   0.135
 4568SOL    HW223704   1.333   6.262   0.043
 4569SOL     OW23705   0.650   5.978   7.040
 4569SOL    HW123706   0.567   5.946   6.995
 4569SOL    HW223707   0.730   5.958   6.984
 4570SOL     OW23708   5.656   3.512   2.776
 4570SOL    HW123709   5.734   3.452   2.797
 4570SOL    HW223710   5.679   3.572   2.700
 4571SOL     OW23711   0.463   6.740   0.596
 4571SOL    HW123712   0.521   6.813   0.632
 4571SOL    HW223713   0.507   6.698   0.517
 4572SOL     OW23714   6.589   7.905   3.124
 4572SOL    HW123715   6.658   7.846   3.081
 4572SOL    HW223716   6.615   8.001   3.114
 4573SOL     OW23717   3.943   7.037   5.517
 4573SOL    HW123718   3.946   7.109   5.447
 4573SOL    HW223719   4.033   6.995   5.525
 4574SOL     OW23720   2.451   7.524   6.584
 4574SOL    HW123721   2.460   7.553   6.489
 4574SOL    HW223722   2.538   7.486   6.616
 4575SOL     OW23723   0.274   2.163   0.717
 4575SOL    HW123724   0.233   2.074   0.733
 4575SOL    HW223725   0.354   2.154   0.658
 4576SOL     OW23726   3.246   3.609   2.571
 4576SOL    HW123727   3.320   3.663   2.531
 4576SOL    HW223728   3.263   3.597   2.669
 4577SOL     OW23729   3.410   6.185   7.383
 4577SOL    HW123730   3.316   6.150   7.374
 4577SOL    HW223731   3.461   6.168   7.299
 4578SOL     OW23732   1.440   2.879   7.962
 4578SOL    HW123733   1.462   2.782   7.961
 4578SOL    HW223734   1.510   2.930   7.912
 4579SOL     OW23735   0.512   0.105   3.819
 4579SOL    HW123736   0.525   0.007   3.833
 4579SOL    HW223737   0.416   0.124   3.799
 4580SOL     OW23738   7.337   1.396   2.151
 4580SOL    HW123739   7.401   1.374   2.225
 4580SOL    HW223740   7.378   1.377   2.063
 4581SOL     OW23741   7.242   6.474   6.227
 4581SOL    HW123742   7.316   6.415   6.195
 4581SOL    HW223743   7.215   6.448   6.320
 4582SOL     OW23744   7.655   5.612   4.729
 4582SOL    HW123745   7.653   5.710   4.749
 4582SOL    HW223746   7.641   5.597   4.632
 4583SOL     OW23747   3.978   3.408   7.249
 4583SOL    HW123748   3.885   3.393   7.218
 4583SOL    HW223749   4.021   3.482   7.195
 4584SOL     OW23750   7.565   3.651   0.294
 4584SOL    HW123751   7.589   3.734   0.344
 4584SOL    HW223752   7.571   3.668   0.196
 4585SOL     OW23753   1.485   2.626   0.288
 4585SOL    HW123754   1.394   2.642   0.248
 4585SOL    HW223755   1.541   2.708   0.278
 4586SOL     OW23756   0.200   2.533   0.538
 4586SOL    HW123757   0.179   2.564   0.445
 4586SOL    HW223758   0.255   2.450   0.534
 4587SOL     OW23759   4.298   7.244   1.229
 4587SOL    HW123760   4.252   7.325   1.194
 4587SOL    HW223761   4.327   7.259   1.324
 4588SOL     OW23762   6.531   7.478   0.753
 4588SOL    HW123763   6.435   7.494   0.732
 4588SOL    HW223764   6.589   7.510   0.678
 4589SOL     OW23765   0.909   4.074   5.972
 4589SOL    HW123766   1.005   4.069   6.000
 4589SOL    HW223767   0.854   4.112   6.047
 4590SOL     OW23768   7.193   5.502   5.994
 4590SOL    HW123769   7.187   5.432   5.922
 4590SOL    HW223770   7.184   5.593   5.953
 4591SOL     OW23771   1.347   6.140   3.269
 4591SOL    HW123772   1.319   6.214   3.331
 4591SOL    HW223773   1.360   6.055   3.320
 4592SOL     OW23774   3.992   3.895   7.566
 4592SOL    HW123775   3.929   3.951   7.512
 4592SOL    HW223776   4.063   3.857   7.506
 4593SOL     OW23777   0.974   4.177   7.920
 4593SOL    HW123778   1.009   4.236   7.993
 4593SOL    HW223779   0.940   4.233   7.844
 4594SOL     OW23780   0.569   3.358   3.498
 4594SOL    HW123781   0.651   3.325   3.451
 4594SOL    HW223782   0.578   3.344   3.596
 4595SOL     OW23783   6.729   5.447   3.508
 4595SOL    HW123784   6.821   5.407   3.501
 4595SOL    HW223785   6.736   5.547   3.507
 4596SOL     OW23786   1.225   3.696   6.045
 4596SOL    HW123787   1.317   3.715   6.011
 4596SOL    HW223788   1.212   3.740   6.134
 4597SOL     OW23789   2.379   7.836   1.545
 4597SOL    HW123790   2.327   7.760   1.584
 4597SOL    HW223791   2.457   7.857   1.604
 4598SOL     OW23792   2.355   7.710   3.924
 4598SOL    HW123793   2.414   7.789   3.940
 4598SOL    HW223794   2.304   7.722   3.839
 4599SOL     OW23795   4.419   2.347   5.516
 4599SOL    HW123796   4.363   2.317   5.439
 4599SOL    HW223797   4.391   2.439   5.544
 4600SOL     OW23798   2.579   0.198   4.799
 4600SOL    HW123799   2.667   0.161   4.829
 4600SOL    HW223800   2.590   0.291   4.764
 4601SOL     OW23801   7.036   4.391   4.471
 4601SOL    HW123802   6.966   4.447   4.426
 4601SOL    HW223803   7.011   4.295   4.465
 4602SOL     OW23804   6.637   5.058   3.757
 4602SOL    HW123805   6.648   5.064   3.857
 4602SOL    HW223806   6.689   4.980   3.723
 4603SOL     OW23807   7.508   4.057   4.653
 4603SOL    HW123808   7.495   3.958   4.645
 4603SOL    HW223809   7.444   4.105   4.593
 4604SOL     OW23810   5.225   2.805   7.883
 4604SOL    HW123811   5.234   2.806   7.784
 4604SOL    HW223812   5.156   2.738   7.911
 4605SOL     OW23813   0.244   7.561   1.363
 4605SOL    HW123814   0.302   7.552   1.282
 4605SOL    HW223815   0.278   7.502   1.436
 4606SOL     OW23816   5.242   2.105   2.419
 4606SOL    HW123817   5.328   2.148   2.447
 4606SOL    HW223818   5.205   2.152   2.338
 4607SOL     OW23819   6.156   0.002   4.010
 4607SOL    HW123820   6.229  -0.000   3.941
 4607SOL    HW223821   6.123   0.095   4.022
 4608SOL     OW23822   4.364   7.923   5.083
 4608SOL    HW123823   4.333   7.925   5.179
 4608SOL    HW223824   4.348   7.832   5.044
 4609SOL     OW23825   3.881  -0.000   7.905
 4609SOL    HW123826   3.803   0.049   7.864
 4609SOL    HW223827   3.904   0.041   7.994
 4610SOL     OW23828   2.690   3.516   3.705
 4610SOL    HW123829   2.690   3.418   3.724
 4610SOL    HW223830   2.752   3.535   3.628
 4611SOL     OW23831   6.448   1.415   2.425
 4611SOL    HW123832   6.511   1.412   2.348
 4611SOL    HW223833   6.386   1.337   2.423
 4612SOL     OW23834   5.396   5.552   2.481
 4612SOL    HW123835   5.417   5.640   2.439
 4612SOL    HW223836   5.384   5.482   2.411
 4613SOL     OW23837   5.077   4.998   6.315
 4613SOL    HW123838   5.095   4.902   6.336
 4613SOL    HW223839   5.159   5.053   6.334
 4614SOL     OW23840   4.857   7.552   1.438
 4614SOL    HW123841   4.939   7.507   1.473
 4614SOL    HW223842   4.781   7.487   1.437
 4615SOL     OW23843   6.887   7.632   5.534
 4615SOL    HW123844   6.800   7.673   5.559
 4615SOL    HW223845   6.938   7.606   5.616
 4616SOL     OW23846   4.287   4.848   1.677
 4616SOL    HW123847   4.264   4.762   1.721
 4616SOL    HW223848   4.207   4.908   1.675
 4617SOL     OW23849   1.557   1.463   3.473
 4617SOL    HW123850   1.514   1.389   3.525
 4617SOL    HW223851   1.652   1.473   3.500
 4618SOL     OW23852   5.291   0.123   1.492
 4618SOL    HW123853   5.290   0.221   1.470
 4618SOL    HW223854   5.324   0.071   1.414
 4619SOL     OW23855   5.895   4.286   7.904
 4619SOL    HW123856   5.804   4.328   7.894
 4619SOL    HW223857   5.921   4.284   8.001
 4620SOL     OW23858   2.800   1.877   2.495
 4620SOL    HW123859   2.721   1.899   2.553
 4620SOL    HW223860   2.771   1.828   2.414
 4621SOL     OW23861   6.389   3.537   2.262
 4621SOL    HW123862   6.443   3.620   2.278
 4621SOL    HW223863   6.358   3.499   2.349
 4622SOL     OW23864   7.525   1.594   7.915
 4622SOL    HW123865   7.493   1.551   8.000
 4622SOL    HW223866   7.484   1.684   7.905
 4623SOL     OW23867   2.688   4.746   3.547
 4623SOL    HW123868   2.746   4.825   3.526
 4623SOL    HW223869   2.600   4.776   3.584
 4624SOL     OW23870   1.231   1.870   0.772
 4624SOL    HW123871   1.247   1.944   0.706
 4624SOL    HW223872   1.317   1.846   0.817
 4625SOL     OW23873   5.264   6.529   6.660
 4625SOL    HW123874   5.262   6.437   6.699
 4625SOL    HW223875   5.305   6.527   6.569
 4626SOL     OW23876   0.334   0.673   6.324
 4626SOL    HW123877   0.356   0.769   6.337
 4626SOL    HW223878   0.368   0.642   6.235
 4627SOL     OW23879   5.356   6.203   5.209
 4627SOL    HW123880   5.415   6.283   5.219
 4627SOL    HW223881   5.308   6.207   5.121
 4628SOL     OW23882   3.412   5.032   2.997
 4628SOL    HW123883   3.405   4.935   3.021
 4628SOL    HW223884   3.459   5.082   3.070
 4629SOL     OW23885   6.260   2.089   6.853
 4629SOL    HW123886   6.291   2.184   6.861
 4629SOL    HW223887   6.163   2.086   6.828
 4630SOL     OW23888   5.756   6.095   4.409
 4630SOL    HW123889   5.711   6.017   4.454
 4630SOL    HW223890   5.827   6.133   4.469
 4631SOL     OW23891   6.618   3.287   6.145
 4631SOL    HW123892   6.635   3.270   6.048
 4631SOL    HW223893   6.672   3.365   6.176
 4632SOL     OW23894   5.910   0.644   0.341
 4632SOL    HW123895   5.862   0.715   0.289
 4632SOL    HW223896   5.847   0.571   0.366
 4633SOL     OW23897   5.560   4.689   6.558
 4633SOL    HW123898   5.626   4.633   6.507
 4633SOL    HW223899   5.600   4.721   6.643
 4634SOL     OW23900   0.196   1.764   0.568
 4634SOL    HW123901   0.278   1.726   0.527
 4634SOL    HW223902   0.183   1.729   0.661
 4635SOL     OW23903   3.184   6.614   3.032
 4635SOL    HW123904   3.098   6.626   3.083
 4635SOL    HW223905   3.260   6.650   3.085
 4636SOL     OW23906   6.273   3.538   0.891
 4636SOL    HW123907   6.201   3.488   0.843
 4636SOL    HW223908   6.362   3.518   0.850
 4637SOL     OW23909   6.217   0.923   2.263
 4637SOL    HW123910   6.235   0.991   2.334
 4637SOL    HW223911   6.208   0.968   2.174
 4638SOL     OW23912   1.381   2.718   5.170
 4638SOL    HW123913   1.374   2.628   5.129
 4638SOL    HW223914   1.346   2.717   5.264
 4639SOL     OW23915   7.323   6.159   1.079
 4639SOL    HW123916   7.421   6.149   1.063
 4639SOL    HW223917   7.304   6.161   1.177
 4640SOL     OW23918   3.068   4.062   5.908
 4640SOL    HW123919   3.061   3.964   5.890
 4640SOL    HW223920   3.035   4.114   5.830
 4641SOL     OW23921   1.522   5.511   2.880
 4641SOL    HW123922   1.447   5.564   2.841
 4641SOL    HW223923   1.550   5.550   2.968
 4642SOL     OW23924   6.565   3.885   4.805
 4642SOL    HW123925   6.497   3.915   4.738
 4642SOL    HW223926   6.622   3.962   4.833
 4643SOL     OW23927   4.479   4.682   2.920
 4643SOL    HW123928   4.541   4.707   2.996
 4643SOL    HW223929   4.485   4.584   2.902
 4644SOL     OW23930   6.877   4.140   7.580
 4644SOL    HW123931   6.958   4.190   7.552
 4644SOL    HW223932   6.804   4.152   7.513
 4645SOL     OW23933   6.051   0.169   7.859
 4645SOL    HW123934   6.044   0.104   7.935
 4645SOL    HW223935   6.061   0.119   7.773
 4646SOL     OW23936   0.048   7.699   7.573
 4646SOL    HW123937   0.140   7.682   7.537
 4646SOL    HW223938   0.025   7.629   7.641
 4647SOL     OW23939   1.043   0.842   1.956
 4647SOL    HW123940   1.118   0.813   1.896
 4647SOL    HW223941   0.958   0.850   1.903
 4648SOL     OW23942   0.964   6.312   5.038
 4648SOL    HW123943   1.051   6.296   5.084
 4648SOL    HW223944   0.979   6.327   4.940
 4649SOL     OW23945   3.944   0.345   4.593
 4649SOL    HW123946   3.993   0.339   4.680
 4649SOL    HW223947   3.977   0.424   4.541
 4650SOL     OW23948   4.970   2.085   6.544
 4650SOL    HW123949   4.924   2.003   6.578
 4650SOL    HW223950   4.908   2.163   6.550
 4651SOL     OW23951   2.193   6.992   7.396
 4651SOL    HW123952   2.230   7.029   7.311
 4651SOL    HW223953   2.211   7.055   7.472
 4652SOL     OW23954   1.544   7.865   4.864
 4652SOL    HW123955   1.620   7.929   4.861
 4652SOL    HW223956   1.524   7.831   4.772
 4653SOL     OW23957   5.671   2.170   3.319
 4653SOL    HW123958   5.771   2.176   3.310
 4653SOL    HW223959   5.645   2.174   3.416
 4654SOL     OW23960   7.154   3.246   6.527
 4654SOL    HW123961   7.150   3.190   6.444
 4654SOL    HW223962   7.074   3.229   6.584
 4655SOL     OW23963   7.772   0.501   4.752
 4655SOL    HW123964   7.824   0.415   4.763
 4655SOL    HW223965   7.705   0.509   4.826
 4656SOL     OW23966   2.909   2.473   2.105
 4656SOL    HW123967   2.816   2.490   2.072
 4656SOL    HW223968   2.922   2.518   2.193
 4657SOL     OW23969   5.159   1.230   3.141
 4657SOL    HW123970   5.073   1.207   3.188
 4657SOL    HW223971   5.236   1.205   3.199
 4658SOL     OW23972   6.884   2.826   6.269
 4658SOL    HW123973   6.847   2.884   6.342
 4658SOL    HW223974   6.968   2.865   6.234
 4659SOL     OW23975   5.658   3.897   2.202
 4659SOL    HW123976   5.720   3.874   2.127
 4659SOL    HW223977   5.626   3.991   2.193
 4660SOL     OW23978   4.472   1.980   2.005
 4660SOL    HW123979   4.395   2.044   2.005
 4660SOL    HW223980   4.474   1.928   1.920
 4661SOL     OW23981   5.626   0.069   5.564
 4661SOL    HW123982   5.719   0.101   5.583
 4661SOL    HW223983   5.591   0.016   5.642
 4662SOL     OW23984   3.618   0.304   2.208
 4662SOL    HW123985   3.544   0.245   2.172
 4662SOL    HW223986   3.595   0.335   2.300
 4663SOL     OW23987   7.944   0.429   5.652
 4663SOL    HW123988   7.848   0.435   5.682
 4663SOL    HW223989   7.950   0.373   5.570
 4664SOL     OW23990   2.496   6.265   3.458
 4664SOL    HW123991   2.448   6.220   3.382
 4664SOL    HW223992   2.460   6.357   3.471
 4665SOL     OW23993   3.207   7.852   2.708
 4665SOL    HW123994   3.112   7.863   2.735
 4665SOL    HW223995   3.253   7.788   2.770
 4666SOL     OW23996   4.209   1.546   6.705
 4666SOL    HW123997   4.255   1.635   6.701
 4666SOL    HW223998   4.145   1.545   6.782
 4667SOL     OW23999   0.693   7.751   2.401
 4667SOL    HW124000   0.599   7.732   2.428
 4667SOL    HW224001   0.705   7.734   2.303
 4668SOL     OW24002   3.299   2.172   7.531
 4668SOL    HW124003   3.278   2.079   7.561
 4668SOL    HW224004   3.398   2.184   7.522
 4669SOL     OW24005   3.038   3.413   2.491
 4669SOL    HW124006   3.046   3.450   2.584
 4669SOL    HW224007   2.996   3.322   2.494
 4670SOL     OW24008   1.070   0.542   0.975
 4670SOL    HW124009   1.065   0.450   0.935
 4670SOL    HW224010   1.035   0.540   1.069
 4671SOL     OW24011   1.032   7.858   1.865
 4671SOL    HW124012   1.124   7.820   1.869
 4671SOL    HW224013   1.005   7.893   1.955
 4672SOL     OW24014   6.137   5.614   6.575
 4672SOL    HW124015   6.109   5.523   6.545
 4672SOL    HW224016   6.086   5.641   6.656
 4673SOL     OW24017   7.666   1.099   1.561
 4673SOL    HW124018   7.762   1.079   1.577
 4673SOL    HW224019   7.630   1.157   1.634
 4674SOL     OW24020   6.845   1.707   5.294
 4674SOL    HW124021   6.924   1.745   5.245
 4674SOL    HW224022   6.769   1.694   5.230
 4675SOL     OW24023   4.528   2.456   5.765
 4675SOL    HW124024   4.442   2.507   5.767
 4675SOL    HW224025   4.517   2.372   5.712
 4676SOL     OW24026   0.601   1.410   2.626
 4676SOL    HW124027   0.646   1.329   2.589
 4676SOL    HW224028   0.569   1.392   2.719
 4677SOL     OW24029   0.947   7.148   7.949
 4677SOL    HW124030   0.878   7.143   7.877
 4677SOL    HW224031   1.037   7.124   7.913
 4678SOL     OW24032   7.511   4.888   0.487
 4678SOL    HW124033   7.601   4.846   0.503
 4678SOL    HW224034   7.503   4.913   0.391
 4679SOL     OW24035   2.122   0.350   2.901
 4679SOL    HW124036   2.193   0.304   2.847
 4679SOL    HW224037   2.162   0.423   2.955
 4680SOL     OW24038   4.472   6.800   3.958
 4680SOL    HW124039   4.373   6.793   3.965
 4680SOL    HW224040   4.505   6.873   4.018
 4681SOL     OW24041   5.918   2.544   5.042
 4681SOL    HW124042   6.008   2.501   5.036
 4681SOL    HW224043   5.893   2.586   4.955
 4682SOL     OW24044   3.252   5.347   1.276
 4682SOL    HW124045   3.306   5.337   1.192
 4682SOL    HW224046   3.313   5.348   1.355
 4683SOL     OW24047   6.230   2.974   4.237
 4683SOL    HW124048   6.132   2.952   4.238
 4683SOL    HW224049   6.271   2.943   4.152
 4684SOL     OW24050   2.385   5.007   4.050
 4684SOL    HW124051   2.406   4.946   4.126
 4684SOL    HW224052   2.320   5.077   4.080
 4685SOL     OW24053   6.411   6.918   7.642
 4685SOL    HW124054   6.410   6.824   7.607
 4685SOL    HW224055   6.490   6.967   7.606
 4686SOL     OW24056   1.272   5.069   2.377
 4686SOL    HW124057   1.239   5.019   2.297
 4686SOL    HW224058   1.339   5.015   2.427
 4687SOL     OW24059   4.894   2.251   3.799
 4687SOL    HW124060   4.904   2.192   3.879
 4687SOL    HW224061   4.981   2.296   3.778
 4688SOL     OW24062   6.658   5.695   4.042
 4688SOL    HW124063   6.561   5.677   4.061
 4688SOL    HW224064   6.712   5.613   4.059
 4689SOL     OW24065   0.911   6.528   1.518
 4689SOL    HW124066   0.920   6.519   1.617
 4689SOL    HW224067   0.952   6.449   1.472
 4690SOL     OW24068   7.223   7.208   4.988
 4690SOL    HW124069   7.241   7.111   4.997
 4690SOL    HW224070   7.266   7.244   4.905
 4691SOL     OW24071   5.012   7.647   4.562
 4691SOL    HW124072   5.041   7.734   4.601
 4691SOL    HW224073   4.983   7.661   4.467
 4692SOL     OW24074   3.286   6.854   6.460
 4692SOL    HW124075   3.187   6.838   6.458
 4692SOL    HW224076   3.316   6.873   6.553
 4693SOL     OW24077   6.624   4.098   0.627
 4693SOL    HW124078   6.567   4.073   0.705
 4693SOL    HW224079   6.705   4.041   0.624
 4694SOL     OW24080   1.059   6.740   7.336
 4694SOL    HW124081   1.143   6.741   7.390
 4694SOL    HW224082   0.982   6.772   7.392
 4695SOL     OW24083   7.995   5.167   5.448
 4695SOL    HW124084   7.976   5.079   5.405
 4695SOL    HW224085   8.000   5.156   5.547
 4696SOL     OW24086   5.594   1.245   3.381
 4696SOL    HW124087   5.511   1.281   3.335
 4696SOL    HW224088   5.584   1.147   3.397
 4697SOL     OW24089   1.546   2.458   3.483
 4697SOL    HW124090   1.622   2.430   3.541
 4697SOL    HW224091   1.549   2.557   3.467
 4698SOL     OW24092   2.844   7.646   3.404
 4698SOL    HW124093   2.790   7.715   3.453
 4698SOL    HW224094   2.785   7.589   3.348
 4699SOL     OW24095   4.859   4.397   6.506
 4699SOL    HW124096   4.866   4.496   6.494
 4699SOL    HW224097   4.919   4.368   6.581
 4700SOL     OW24098   6.734   1.487   7.964
 4700SOL    HW124099   6.799   1.554   8.000
 4700SOL    HW224100   6.705   1.514   7.872
 4701SOL     OW24101   5.235   3.732   1.108
 4701SOL    HW124102   5.223   3.639   1.071
 4701SOL    HW224103   5.177   3.796   1.058
 4702SOL     OW24104   4.208   7.255   3.014
 4702SOL    HW124105   4.303   7.284   3.023
 4702SOL    HW224106   4.197   7.163   3.051
 4703SOL     OW24107   3.367   7.463   6.043
 4703SOL    HW124108   3.300   7.396   6.074
 4703SOL    HW224109   3.388   7.448   5.946
 4704SOL     OW24110   0.634   2.317   0.827
 4704SOL    HW124111   0.640   2.366   0.741
 4704SOL    HW224112   0.651   2.379   0.904
 4705SOL     OW24113   3.754   7.891   7.212
 4705SOL    HW124114   3.703   7.975   7.190
 4705SOL    HW224115   3.844   7.915   7.247
 4706SOL     OW24116   1.879   5.446   4.891
 4706SOL    HW124117   1.964   5.446   4.944
 4706SOL    HW224118   1.801   5.449   4.952
 4707SOL     OW24119   5.420   5.738   5.496
 4707SOL    HW124120   5.434   5.837   5.489
 4707SOL    HW224121   5.507   5.691   5.481
 4708SOL     OW24122   2.280   0.300   0.032
 4708SOL    HW124123   2.378   0.295   0.053
 4708SOL    HW224124   2.239   0.210   0.044
 4709SOL     OW24125   0.027   3.934   7.474
 4709SOL    HW124126  -0.000   4.003   7.540
 4709SOL    HW224127   0.116   3.895   7.499
 4710SOL     OW24128   1.873   4.675   1.161
 4710SOL    HW124129   1.956   4.716   1.198
 4710SOL    HW224130   1.887   4.650   1.065
 4711SOL     OW24131   0.496   5.102   2.788
 4711SOL    HW124132   0.400   5.099   2.814
 4711SOL    HW224133   0.508   5.061   2.697
 4712SOL     OW24134   2.959   1.482   5.436
 4712SOL    HW124135   3.046   1.530   5.419
 4712SOL    HW224136   2.957   1.448   5.530
 4713SOL     OW24137   2.126   4.605   2.870
 4713SOL    HW124138   2.203   4.643   2.921
 4713SOL    HW224139   2.049   4.588   2.931
 4714SOL     OW24140   0.995   5.110   0.469
 4714SOL    HW124141   0.935   5.189   0.485
 4714SOL    HW224142   0.992   5.048   0.547
 4715SOL     OW24143   0.197   5.305   4.034
 4715SOL    HW124144   0.259   5.263   4.100
 4715SOL    HW224145   0.123   5.352   4.081
 4716SOL     OW24146   7.198   5.209   2.792
 4716SOL    HW124147   7.167   5.120   2.826
 4716SOL    HW224148   7.208   5.206   2.692
 4717SOL     OW24149   0.419   7.015   3.778
 4717SOL    HW124150   0.346   6.972   3.831
 4717SOL    HW224151   0.406   6.996   3.681
 4718SOL     OW24152   5.649   5.080   6.272
 4718SOL    HW124153   5.713   5.083   6.349
 4718SOL    HW224154   5.594   4.996   6.277
 4719SOL     OW24155   6.101   5.045   4.912
 4719SOL    HW124156   6.076   5.016   4.820
 4719SOL    HW224157   6.198   5.066   4.917
 4720SOL     OW24158   1.445   1.460   3.220
 4720SOL    HW124159   1.426   1.382   3.160
 4720SOL    HW224160   1.413   1.544   3.177
 4721SOL     OW24161   4.936   0.222   2.673
 4721SOL    HW124162   4.984   0.304   2.705
 4721SOL    HW224163   4.941   0.215   2.574
 4722SOL     OW24164   4.569   1.097   4.634
 4722SOL    HW124165   4.666   1.112   4.652
 4722SOL    HW224166   4.545   1.132   4.543
 4723SOL     OW24167   7.941   3.593   6.112
 4723SOL    HW124168   7.847   3.589   6.147
 4723SOL    HW224169   7.942   3.640   6.024
 4724SOL     OW24170   1.878   5.724   2.181
 4724SOL    HW124171   1.874   5.670   2.097
 4724SOL    HW224172   1.814   5.687   2.248
 4725SOL     OW24173   4.589   3.233   6.874
 4725SOL    HW124174   4.537   3.318   6.886
 4725SOL    HW224175   4.580   3.176   6.956
 4726SOL     OW24176   3.811   3.633   0.136
 4726SOL    HW124177   3.840   3.723   0.103
 4726SOL    HW224178   3.812   3.631   0.236
 4727SOL     OW24179   4.456   3.993   1.638
 4727SOL    HW124180   4.491   4.061   1.573
 4727SOL    HW224181   4.497   3.904   1.621
 4728SOL     OW24182   7.811   2.526   1.602
 4728SOL    HW124183   7.761   2.506   1.687
 4728SOL    HW224184   7.906   2.496   1.610
 4729SOL     OW24185   4.136   1.193   1.073
 4729SOL    HW124186   4.036   1.194   1.075
 4729SOL    HW224187   4.172   1.286   1.077
 4730SOL     OW24188   0.045   6.055   6.565
 4730SOL    HW124189  -0.000   6.114   6.633
 4730SOL    HW224190   0.001   6.067   6.476
 4731SOL     OW24191   0.266   6.164   2.512
 4731SOL    HW124192   0.350   6.198   2.556
 4731SOL    HW224193   0.259   6.202   2.420
 4732SOL     OW24194   4.501   4.929   5.471
 4732SOL    HW124195   4.496   4.830   5.457
 4732SOL    HW224196   4.461   4.952   5.560
 4733SOL     OW24197   1.974   3.197   4.637
 4733SOL    HW124198   2.015   3.271   4.691
 4733SOL    HW224199   1.977   3.219   4.540
 4734SOL     OW24200   2.840   3.770   0.799
 4734SOL    HW124201   2.748   3.795   0.828
 4734SOL    HW224202   2.838   3.734   0.706
 4735SOL     OW24203   7.883   4.834   7.041
 4735SOL    HW124204   7.871   4.773   6.963
 4735SOL    HW224205   7.794   4.858   7.080
 4736SOL     OW24206   2.130   6.466   4.024
 4736SOL    HW124207   2.035   6.459   3.994
 4736SOL    HW224208   2.135   6.514   4.111
 4737SOL     OW24209   7.695   6.005   7.794
 4737SOL    HW124210   7.610   5.969   7.756
 4737SOL    HW224211   7.679   6.041   7.886
 4738SOL     OW24212   1.778   2.004   1.292
 4738SOL    HW124213   1.735   1.914   1.278
 4738SOL    HW224214   1.731   2.054   1.364
 4739SOL     OW24215   5.743   0.488   7.487
 4739SOL    HW124216   5.664   0.497   7.426
 4739SOL    HW224217   5.727   0.414   7.552
 4740SOL     OW24218   3.061   2.362   6.260
 4740SOL    HW124219   3.131   2.384   6.328
 4740SOL    HW224220   3.059   2.432   6.189
 4741SOL     OW24221   4.546   2.454   6.324
 4741SOL    HW124222   4.642   2.430   6.339
 4741SOL    HW224223   4.521   2.438   6.228
 4742SOL     OW24224   3.926   0.591   6.552
 4742SOL    HW124225   3.826   0.587   6.555
 4742SOL    HW224226   3.960   0.533   6.478
 4743SOL     OW24227   0.221   6.167   0.861
 4743SOL    HW124228   0.290   6.123   0.918
 4743SOL    HW224229   0.139   6.110   0.856
 4744SOL     OW24230   5.327   0.428   5.500
 4744SOL    HW124231   5.255   0.432   5.569
 4744SOL    HW224232   5.287   0.431   5.409
 4745SOL     OW24233   3.176   5.483   2.406
 4745SOL    HW124234   3.269   5.508   2.378
 4745SOL    HW224235   3.175   5.458   2.503
 4746SOL     OW24236   5.052   0.393   1.500
 4746SOL    HW124237   5.125   0.345   1.549
 4746SOL    HW224238   5.084   0.420   1.409
 4747SOL     OW24239   2.284   1.976   0.694
 4747SOL    HW124240   2.227   2.049   0.657
 4747SOL    HW224241   2.315   2.000   0.786
 4748SOL     OW24242   3.793   2.396   2.891
 4748SOL    HW124243   3.802   2.298   2.908
 4748SOL    HW224244   3.814   2.416   2.795
 4749SOL     OW24245   4.946   2.629   3.878
 4749SOL    HW124246   4.968   2.532   3.886
 4749SOL    HW224247   4.959   2.674   3.966
 4750SOL     OW24248   1.899   6.558   7.393
 4750SOL    HW124249   1.943   6.470   7.407
 4750SOL    HW224250   1.803   6.554   7.422
 4751SOL     OW24251   3.799   4.928   6.664
 4751SOL    HW124252   3.819   4.838   6.624
 4751SOL    HW224253   3.872   4.954   6.727
 4752SOL     OW24254   2.705   7.041   0.981
 4752SOL    HW124255   2.766   7.120   0.990
 4752SOL    HW224256   2.718   6.978   1.057
 4753SOL     OW24257   3.120   2.151   5.156
 4753SOL    HW124258   3.145   2.244   5.132
 4753SOL    HW224259   3.028   2.131   5.123
 4754SOL     OW24260   3.998   7.138   2.822
 4754SOL    HW124261   3.948   7.060   2.786
 4754SOL    HW224262   4.029   7.119   2.915
 4755SOL     OW24263   1.466   7.245   6.348
 4755SOL    HW124264   1.438   7.338   6.371
 4755SOL    HW224265   1.549   7.221   6.398
 4756SOL     OW24266   7.681   4.777   1.531
 4756SOL    HW124267   7.668   4.836   1.610
 4756SOL    HW224268   7.685   4.831   1.447
 4757SOL     OW24269   4.290   7.033   1.095
 4757SOL    HW124270   4.193   7.025   1.117
 4757SOL    HW224271   4.308   6.996   1.004
 4758SOL     OW24272   2.214   7.502   1.471
 4758SOL    HW124273   2.226   7.516   1.570
 4758SOL    HW224274   2.283   7.438   1.438
 4759SOL     OW24275   4.013   0.207   6.473
 4759SOL    HW124276   3.982   0.250   6.558
 4759SOL    HW224277   4.001   0.271   6.397
 4760SOL     OW24278   2.140   3.352   1.792
 4760SOL    HW124279   2.230   3.307   1.788
 4760SOL    HW224280   2.117   3.390   1.702
 4761SOL     OW24281   6.361   2.945   3.239
 4761SOL    HW124282   6.289   2.875   3.245
 4761SOL    HW224283   6.374   2.972   3.143
 4762SOL     OW24284   4.299   3.864   3.786
 4762SOL    HW124285   4.332   3.957   3.770
 4762SOL    HW224286   4.336   3.828   3.872
 4763SOL     OW24287   7.608   7.366   1.352
 4763SOL    HW124288   7.704   7.379   1.329
 4763SOL    HW224289   7.585   7.417   1.434
 4764SOL     OW24290   3.094   1.459   5.137
 4764SOL    HW124291   3.170   1.499   5.190
 4764SOL    HW224292   3.012   1.454   5.194
 4765SOL     OW24293   0.250   4.602   1.614
 4765SOL    HW124294   0.198   4.558   1.688
 4765SOL    HW224295   0.317   4.665   1.652
 4766SOL     OW24296   5.781   0.488   5.631
 4766SOL    HW124297   5.857   0.467   5.693
 4766SOL    HW224298   5.806   0.564   5.570
 4767SOL     OW24299   3.350   0.594   2.738
 4767SOL    HW124300   3.256   0.590   2.703
 4767SOL    HW224301   3.354   0.653   2.819
 4768SOL     OW24302   1.705   2.648   5.092
 4768SOL    HW124303   1.724   2.554   5.065
 4768SOL    HW224304   1.610   2.671   5.071
 4769SOL     OW24305   3.064   0.033   6.982
 4769SOL    HW124306   3.013   0.113   6.951
 4769SOL    HW224307   3.040   0.013   7.078
 4770SOL     OW24308   7.458   5.878   4.454
 4770SOL    HW124309   7.510   5.962   4.441
 4770SOL    HW224310   7.391   5.890   4.527
 4771SOL     OW24311   1.369   0.047   4.885
 4771SOL    HW124312   1.328   0.035   4.794
 4771SOL    HW224313   1.391   0.144   4.899
 4772SOL     OW24314   3.913   2.443   6.877
 4772SOL    HW124315   3.840   2.504   6.908
 4772SOL    HW224316   3.911   2.435   6.777
 4773SOL     OW24317   7.907   7.176   3.832
 4773SOL    HW124318   7.954   7.207   3.749
 4773SOL    HW224319   7.844   7.102   3.809
 4774SOL     OW24320   7.907   4.061   3.228
 4774SOL    HW124321   7.907   3.961   3.237
 4774SOL    HW224322   8.000   4.094   3.213
 4775SOL     OW24323   5.332   2.710   3.006
 4775SOL    HW124324   5.391   2.708   2.925
 4775SOL    HW224325   5.269   2.632   3.005
 4776SOL     OW24326   5.367   0.501   3.805
 4776SOL    HW124327   5.451   0.462   3.842
 4776SOL    HW224328   5.365   0.489   3.705
 4777SOL     OW24329   3.776   0.349   5.229
 4777SOL    HW124330   3.692   0.373   5.180
 4777SOL    HW224331   3.797   0.417   5.298
 4778SOL     OW24332   0.073   1.220   1.941
 4778SOL    HW124333   0.147   1.232   2.007
 4778SOL    HW224334   0.111   1.192   1.853
 4779SOL     OW24335   0.534   4.950   4.710
 4779SOL    HW124336   0.526   4.883   4.636
 4779SOL    HW224337   0.475   5.028   4.693
 4780SOL     OW24338   4.156   0.809   1.030
 4780SOL    HW124339   4.199   0.773   0.947
 4780SOL    HW224340   4.169   0.745   1.105
 4781SOL     OW24341   2.041   5.818   3.456
 4781SOL    HW124342   1.960   5.800   3.401
 4781SOL    HW224343   2.107   5.872   3.404
 4782SOL     OW24344   5.295   5.557   5.503
 4782SOL    HW124345   5.381   5.508   5.517
 4782SOL    HW224346   5.236   5.507   5.440
 4783SOL     OW24347   7.811   5.121   6.283
 4783SOL    HW124348   7.857   5.042   6.324
 4783SOL    HW224349   7.866   5.160   6.210
 4784SOL     OW24350   1.957   6.453   3.613
 4784SOL    HW124351   1.894   6.476   3.688
 4784SOL    HW224352   1.984   6.536   3.565
 4785SOL     OW24353   2.912   2.486   4.933
 4785SOL    HW124354   2.997   2.535   4.953
 4785SOL    HW224355   2.844   2.550   4.897
 4786SOL     OW24356   3.622   6.148   2.008
 4786SOL    HW124357   3.613   6.144   1.909
 4786SOL    HW224358   3.673   6.229   2.035
 4787SOL     OW24359   0.703   0.843   4.942
 4787SOL    HW124360   0.640   0.919   4.931
 4787SOL    HW224361   0.654   0.756   4.930
 4788SOL     OW24362   6.658   7.762   4.037
 4788SOL    HW124363   6.714   7.842   4.059
 4788SOL    HW224364   6.692   7.682   4.085
 4789SOL     OW24365   5.416   7.362   5.807
 4789SOL    HW124366   5.442   7.268   5.783
 4789SOL    HW224367   5.483   7.400   5.871
 4790SOL     OW24368   4.540   7.147   7.336
 4790SOL    HW124369   4.629   7.136   7.290
 4790SOL    HW224370   4.545   7.112   7.429
 4791SOL     OW24371   2.603   4.025   5.876
 4791SOL    HW124372   2.553   4.074   5.947
 4791SOL    HW224373   2.587   4.068   5.787
 4792SOL     OW24374   3.267   7.191   5.069
 4792SOL    HW124375   3.303   7.100   5.046
 4792SOL    HW224376   3.339   7.259   5.058
 4793SOL     OW24377   1.401   3.325   1.278
 4793SOL    HW124378   1.455   3.394   1.229
 4793SOL    HW224379   1.448   3.297   1.361
 4794SOL     OW24380   3.804   3.586   1.465
 4794SOL    HW124381   3.839   3.492   1.477
 4794SOL    HW224382   3.855   3.648   1.524
 4795SOL     OW24383   5.935   6.378   5.256
 4795SOL    HW124384   6.027   6.373   5.215
 4795SOL    HW224385   5.935   6.446   5.329
 4796SOL     OW24386   0.646   7.201   0.945
 4796SOL    HW124387   0.648   7.124   1.009
 4796SOL    HW224388   0.696   7.177   0.862
 4797SOL     OW24389   6.334   7.436   3.708
 4797SOL    HW124390   6.415   7.430   3.766
 4797SOL    HW224391   6.268   7.365   3.734
 4798SOL     OW24392   1.563   0.122   7.667
 4798SOL    HW124393   1.484   0.172   7.632
 4798SOL    HW224394   1.582   0.043   7.610
 4799SOL     OW24395   1.426   2.132   7.375
 4799SOL    HW124396   1.465   2.182   7.453
 4799SOL    HW224397   1.356   2.188   7.331
 4800SOL     OW24398   1.593   2.988   4.573
 4800SOL    HW124399   1.628   3.007   4.664
 4800SOL    HW224400   1.516   2.925   4.578
 4801SOL     OW24401   6.513   5.212   3.275
 4801SOL    HW124402   6.611   5.209   3.256
 4801SOL    HW224403   6.496   5.186   3.370
 4802SOL     OW24404   5.031   7.360   7.061
 4802SOL    HW124405   4.962   7.430   7.041
 4802SOL    HW224406   5.097   7.396   7.128
 4803SOL     OW24407   1.150   1.422   7.916
 4803SOL    HW124408   1.210   1.460   7.845
 4803SOL    HW224409   1.195   1.346   7.962
 4804SOL     OW24410   5.089   0.167   5.105
 4804SOL    HW124411   5.171   0.150   5.051
 4804SOL    HW224412   5.035   0.240   5.064
 4805SOL     OW24413   7.669   7.043   2.691
 4805SOL    HW124414   7.657   7.142   2.696
 4805SOL    HW224415   7.580   6.998   2.685
 4806SOL     OW24416   3.437   2.459   7.666
 4806SOL    HW124417   3.514   2.395   7.661
 4806SOL    HW224418   3.370   2.436   7.595
 4807SOL     OW24419   1.511   1.486   1.110
 4807SOL    HW124420   1.451   1.414   1.145
 4807SOL    HW224421   1.549   1.459   1.022
 4808SOL     OW24422   5.764   4.733   7.478
 4808SOL    HW124423   5.781   4.719   7.575
 4808SOL    HW224424   5.842   4.701   7.424
 4809SOL     OW24425   5.851   4.710   5.644
 4809SOL    HW124426   5.909   4.668   5.714
 4809SOL    HW224427   5.839   4.807   5.664
 4810SOL     OW24428   7.746   7.367   2.223
 4810SOL    HW124429   7.672   7.368   2.289
 4810SOL    HW224430   7.758   7.458   2.183
 4811SOL     OW24431   4.528   5.945   1.456
 4811SOL    HW124432   4.564   6.003   1.383
 4811SOL    HW224433   4.479   5.867   1.416
 4812SOL     OW24434   0.857   5.673   7.390
 4812SOL    HW124435   0.761   5.697   7.401
 4812SOL    HW224436   0.868   5.574   7.387
 4813SOL     OW24437   1.145   4.576   2.189
 4813SOL    HW124438   1.122   4.639   2.115
 4813SOL    HW224439   1.186   4.625   2.265
 4814SOL     OW24440   1.903   4.712   5.210
 4814SOL    HW124441   1.855   4.689   5.125
 4814SOL    HW224442   1.968   4.786   5.193
 4815SOL     OW24443   7.410   6.907   3.277
 4815SOL    HW124444   7.371   6.976   3.217
 4815SOL    HW224445   7.509   6.903   3.264
 4816SOL     OW24446   0.228   2.450   0.227
 4816SOL    HW124447   0.276   2.537   0.223
 4816SOL    HW224448   0.138   2.459   0.184
 4817SOL     OW24449   3.061   0.853   3.416
 4817SOL    HW124450   2.977   0.856   3.471
 4817SOL    HW224451   3.038   0.831   3.321
 4818SOL     OW24452   7.130   6.355   3.148
 4818SOL    HW124453   7.227   6.342   3.131
 4818SOL    HW224454   7.098   6.438   3.102
 4819SOL     OW24455   5.564   1.884   3.949
 4819SOL    HW124456   5.554   1.834   4.035
 4819SOL    HW224457   5.572   1.982   3.968
 4820SOL     OW24458   1.919   2.857   2.855
 4820SOL    HW124459   1.823   2.885   2.864
 4820SOL    HW224460   1.957   2.840   2.946
 4821SOL     OW24461   6.794   5.337   0.022
 4821SOL    HW124462   6.819   5.310   0.115
 4821SOL    HW224463   6.799   5.437   0.013
 4822SOL     OW24464   1.653   5.926   0.147
 4822SOL    HW124465   1.605   5.869   0.081
 4822SOL    HW224466   1.591   5.953   0.220
 4823SOL     OW24467   5.428   7.051   3.607
 4823SOL    HW124468   5.392   6.966   3.646
 4823SOL    HW224469   5.462   7.035   3.515
 4824SOL     OW24470   2.791   6.075   6.682
 4824SOL    HW124471   2.768   5.979   6.664
 4824SOL    HW224472   2.763   6.100   6.775
 4825SOL     OW24473   6.861   7.501   3.907
 4825SOL    HW124474   6.768   7.471   3.883
 4825SOL    HW224475   6.885   7.583   3.855
 4826SOL     OW24476   0.962   2.083   3.442
 4826SOL    HW124477   0.944   1.989   3.411
 4826SOL    HW224478   1.060   2.097   3.455
 4827SOL     OW24479   2.868   4.553   4.774
 4827SOL    HW124480   2.904   4.495   4.701
 4827SOL    HW224481   2.777   4.587   4.750
 4828SOL     OW24482   7.100   4.547   7.664
 4828SOL    HW124483   7.019   4.605   7.654
 4828SOL    HW224484   7.115   4.526   7.760
 4829SOL     OW24485   3.685   0.685   2.205
 4829SOL    HW124486   3.734   0.605   2.171
 4829SOL    HW224487   3.662   0.673   2.301
 4830SOL     OW24488   6.552   5.246   5.489
 4830SOL    HW124489   6.643   5.232   5.528
 4830SOL    HW224490   6.537   5.343   5.468
 4831SOL     OW24491   3.836   6.428   2.284
 4831SOL    HW124492   3.885   6.512   2.260
 4831SOL    HW224493   3.868   6.395   2.373
 4832SOL     OW24494   5.315   1.899   3.485
 4832SOL    HW124495   5.400   1.951   3.496
 4832SOL    HW224496   5.316   1.819   3.545
 4833SOL     OW24497   7.900   5.422   3.725
 4833SOL    HW124498   7.984   5.419   3.779
 4833SOL    HW224499   7.916   5.379   3.636
 4834SOL     OW24500   0.320   7.244   3.671
 4834SOL    HW124501   0.241   7.285   3.626
 4834SOL    HW224502   0.291   7.193   3.752
 4835SOL     OW24503   2.040   4.979   1.165
 4835SOL    HW124504   2.123   5.035   1.174
 4835SOL    HW224505   2.020   4.965   1.069
 4836SOL     OW24506   2.348   0.198   5.267
 4836SOL    HW124507   2.295   0.230   5.189
 4836SOL    HW224508   2.301   0.219   5.352
 4837SOL     OW24509   6.565   0.195   0.660
 4837SOL    HW124510   6.631   0.211   0.734
 4837SOL    HW224511   6.521   0.106   0.672
 4838SOL     OW24512   2.417   5.256   7.485
 4838SOL    HW124513   2.384   5.167   7.453
 4838SOL    HW224514   2.354   5.328   7.456
 4839SOL     OW24515   4.025   1.448   2.792
 4839SOL    HW124516   4.029   1.396   2.707
 4839SOL    HW224517   4.117   1.463   2.827
 4840SOL     OW24518   4.680   0.650   3.145
 4840SOL    HW124519   4.753   0.595   3.184
 4840SOL    HW224520   4.706   0.683   3.054
 4841SOL     OW24521   7.189   6.951   2.144
 4841SOL    HW124522   7.230   6.919   2.058
 4841SOL    HW224523   7.166   6.873   2.202
 4842SOL     OW24524   1.892   0.696   1.017
 4842SOL    HW124525   1.950   0.614   1.010
 4842SOL    HW224526   1.918   0.750   1.096
 4843SOL     OW24527   4.177   4.530   5.335
 4843SOL    HW124528   4.264   4.580   5.339
 4843SOL    HW224529   4.193   4.432   5.352
 4844SOL     OW24530   5.793   5.044   2.038
 4844SOL    HW124531   5.849   4.977   2.086
 4844SOL    HW224532   5.845   5.087   1.965
 4845SOL     OW24533   5.921   0.783   2.507
 4845SOL    HW124534   5.849   0.715   2.517
 4845SOL    HW224535   5.895   0.867   2.555
 4846SOL     OW24536   0.744   7.918   0.256
 4846SOL    HW124537   0.695   8.000   0.284
 4846SOL    HW224538   0.684   7.858   0.203
 4847SOL     OW24539   2.086   3.665   0.972
 4847SOL    HW124540   2.082   3.765   0.964
 4847SOL    HW224541   1.995   3.626   0.961
 4848SOL     OW24542   0.467   0.482   5.837
 4848SOL    HW124543   0.566   0.488   5.820
 4848SOL    HW224544   0.436   0.388   5.828
 4849SOL     OW24545   4.803   4.383   6.013
 4849SOL    HW124546   4.898   4.376   5.982
 4849SOL    HW224547   4.794   4.459   6.077
 4850SOL     OW24548   7.748   6.492   2.118
 4850SOL    HW124549   7.787   6.429   2.185
 4850SOL    HW224550   7.758   6.455   2.026
 4851SOL     OW24551   7.552   7.920   7.207
 4851SOL    HW124552   7.466   7.955   7.246
 4851SOL    HW224553   7.627   7.980   7.232
 4852SOL     OW24554   3.723   2.301   0.467
 4852SOL    HW124555   3.709   2.202   0.462
 4852SOL    HW224556   3.669   2.339   0.542
 4853SOL     OW24557   0.035   2.597   5.428
 4853SOL    HW124558   0.014   2.523   5.363
 4853SOL    HW224559   0.032   2.685   5.381
 4854SOL     OW24560   5.904   0.940   7.154
 4854SOL    HW124561   5.837   0.878   7.195
 4854SOL    HW224562   5.922   0.914   7.059
 4855SOL     OW24563   5.756   2.714   5.978
 4855SOL    HW124564   5.657   2.724   5.991
 4855SOL    HW224565   5.775   2.672   5.890
 4856SOL     OW24566   7.730   7.430   4.149
 4856SOL    HW124567   7.778   7.498   4.206
 4856SOL    HW224568   7.709   7.349   4.203
 4857SOL     OW24569   5.107   1.183   6.213
 4857SOL    HW124570   5.030   1.120   6.224
 4857SOL    HW224571   5.102   1.230   6.124
 4858SOL     OW24572   0.616   7.443   1.110
 4858SOL    HW124573   0.575   7.355   1.085
 4858SOL    HW224574   0.631   7.447   1.209
 4859SOL     OW24575   5.089   3.375   0.482
 4859SOL    HW124576   5.073   3.276   0.485
 4859SOL    HW224577   5.142   3.399   0.401
 4860SOL     OW24578   3.600   5.467   6.913
 4860SOL    HW124579   3.638   5.512   6.832
 4860SOL    HW224580   3.500   5.473   6.912
 4861SOL     OW24581   1.614   7.275   3.580
 4861SOL    HW124582   1.577   7.354   3.629
 4861SOL    HW224583   1.703   7.297   3.541
 4862SOL     OW24584   5.818   6.621   0.487
 4862SOL    HW124585   5.916   6.602   0.485
 4862SOL    HW224586   5.802   6.719   0.501
 4863SOL     OW24587   6.655   5.826   1.412
 4863SOL    HW124588   6.614   5.735   1.406
 4863SOL    HW224589   6.605   5.881   1.479
 4864SOL     OW24590   5.124   4.056   1.238
 4864SOL    HW124591   5.197   3.988   1.241
 4864SOL    HW224592   5.094   4.079   1.330
 4865SOL     OW24593   3.744   5.241   1.449
 4865SOL    HW124594   3.821   5.235   1.384
 4865SOL    HW224595   3.702   5.332   1.442
 4866SOL     OW24596   7.091   4.676   5.076
 4866SOL    HW124597   7.079   4.768   5.039
 4866SOL    HW224598   7.132   4.680   5.167
 4867SOL     OW24599   4.636   0.597   0.507
 4867SOL    HW124600   4.695   0.524   0.470
 4867SOL    HW224601   4.606   0.572   0.599
 4868SOL     OW24602   2.133   6.358   6.933
 4868SOL    HW124603   2.207   6.293   6.914
 4868SOL    HW224604   2.051   6.309   6.960
 4869SOL     OW24605   2.451   7.109   6.088
 4869SOL    HW124606   2.518   7.073   6.153
 4869SOL    HW224607   2.497   7.160   6.015
 4870SOL     OW24608   0.185   3.249   4.424
 4870SOL    HW124609   0.214   3.294   4.509
 4870SOL    HW224610   0.235   3.286   4.346
 4871SOL     OW24611   2.430   6.128   6.332
 4871SOL    HW124612   2.399   6.061   6.399
 4871SOL    HW224613   2.485   6.198   6.377
 4872SOL     OW24614   2.480   6.033   3.108
 4872SOL    HW124615   2.388   6.056   3.141
 4872SOL    HW224616   2.474   5.992   3.017
 4873SOL     OW24617   2.564   3.223   0.225
 4873SOL    HW124618   2.555   3.144   0.286
 4873SOL    HW224619   2.595   3.193   0.134
 4874SOL     OW24620   7.906   1.103   2.434
 4874SOL    HW124621   7.842   1.146   2.371
 4874SOL    HW224622   8.000   1.122   2.406
 4875SOL     OW24623   7.477   1.091   6.959
 4875SOL    HW124624   7.480   1.169   7.021
 4875SOL    HW224625   7.403   1.029   6.986
 4876SOL     OW24626   7.119   3.803   0.062
 4876SOL    HW124627   7.074   3.818   0.151
 4876SOL    HW224628   7.099   3.880   0.001
 4877SOL     OW24629   4.583   0.785   5.964
 4877SOL    HW124630   4.675   0.814   5.987
 4877SOL    HW224631   4.525   0.865   5.948
 4878SOL     OW24632   0.735   5.676   5.801
 4878SOL    HW124633   0.670   5.740   5.760
 4878SOL    HW224634   0.755   5.704   5.895
 4879SOL     OW24635   1.747   7.734   4.529
 4879SOL    HW124636   1.653   7.714   4.556
 4879SOL    HW224637   1.758   7.718   4.431
 4880SOL     OW24638   7.290   1.121   6.237
 4880SOL    HW124639   7.357   1.084   6.302
 4880SOL    HW224640   7.334   1.137   6.148
 4881SOL     OW24641   7.639   2.507   4.327
 4881SOL    HW124642   7.688   2.422   4.310
 4881SOL    HW224643   7.594   2.504   4.416
 4882SOL     OW24644   1.760   5.514   3.065
 4882SOL    HW124645   1.705   5.430   3.067
 4882SOL    HW224646   1.726   5.579   3.133
 4883SOL     OW24647   1.945   0.567   2.187
 4883SOL    HW124648   2.030   0.520   2.214
 4883SOL    HW224649   1.968   0.655   2.144
 4884SOL     OW24650   7.345   2.959   2.311
 4884SOL    HW124651   7.443   2.979   2.319
 4884SOL    HW224652   7.330   2.890   2.241
 4885SOL     OW24653   5.858   2.607   3.908
 4885SOL    HW124654   5.948   2.602   3.954
 4885SOL    HW224655   5.868   2.584   3.812
 4886SOL     OW24656   1.530   1.375   3.814
 4886SOL    HW124657   1.478   1.295   3.843
 4886SOL    HW224658   1.621   1.347   3.784
 4887SOL     OW24659   4.428   0.179   3.826
 4887SOL    HW124660   4.395   0.259   3.875
 4887SOL    HW224661   4.364   0.103   3.838
 4888SOL     OW24662   3.022   4.975   0.595
 4888SOL    HW124663   2.952   5.032   0.553
 4888SOL    HW224664   3.038   5.005   0.689
 4889SOL     OW24665   2.258   5.251   3.841
 4889SOL    HW124666   2.299   5.268   3.931
 4889SOL    HW224667   2.198   5.327   3.816
 4890SOL     OW24668   3.528   0.849   3.171
 4890SOL    HW124669   3.442   0.877   3.128
 4890SOL    HW224670   3.516   0.845   3.270
 4891SOL     OW24671   4.842   6.617   2.344
 4891SOL    HW124672   4.752   6.652   2.317
 4891SOL    HW224673   4.865   6.649   2.436
 4892SOL     OW24674   2.943   7.946   1.245
 4892SOL    HW124675   2.880   8.000   1.302
 4892SOL    HW224676   2.953   7.854   1.283
 4893SOL     OW24677   2.378   2.497   3.573
 4893SOL    HW124678   2.282   2.488   3.598
 4893SOL    HW224679   2.388   2.557   3.494
 4894SOL     OW24680   1.144   3.564   4.946
 4894SOL    HW124681   1.147   3.579   4.847
 4894SOL    HW224682   1.220   3.611   4.990
 4895SOL     OW24683   6.585   2.073   0.576
 4895SOL    HW124684   6.677   2.052   0.609
 4895SOL    HW224685   6.521   2.003   0.609
 4896SOL     OW24686   6.525   7.023   1.396
 4896SOL    HW124687   6.479   7.060   1.477
 4896SOL    HW224688   6.615   6.987   1.420
 4897SOL     OW24689   0.826   7.057   7.283
 4897SOL    HW124690   0.885   6.977   7.269
 4897SOL    HW224691   0.780   7.080   7.197
 4898SOL     OW24692   0.364   5.251   0.853
 4898SOL    HW124693   0.368   5.167   0.798
 4898SOL    HW224694   0.335   5.230   0.946
 4899SOL     OW24695   3.953   6.613   3.122
 4899SOL    HW124696   3.906   6.534   3.163
 4899SOL    HW224697   3.982   6.591   3.029
 4900SOL     OW24698   2.123   0.041   2.204
 4900SOL    HW124699   2.179   0.003   2.130
 4900SOL    HW224700   2.149  -0.000   2.291
 4901SOL     OW24701   3.560   4.519   2.863
 4901SOL    HW124702   3.566   4.442   2.800
 4901SOL    HW224703   3.651   4.558   2.879
 4902SOL     OW24704   1.711   5.608   5.910
 4902SOL    HW124705   1.779   5.569   5.847
 4902SOL    HW224706   1.752   5.681   5.964
 4903SOL     OW24707   5.150   0.038   0.044
 4903SOL    HW124708   5.143   0.006   0.139
 4903SOL    HW224709   5.231  -0.000  -0.000
 4904SOL     OW24710   2.765   3.837   7.573
 4904SOL    HW124711   2.808   3.924   7.549
 4904SOL    HW224712   2.815   3.762   7.530
 4905SOL     OW24713   5.188   2.839   4.646
 4905SOL    HW124714   5.089   2.856   4.649
 4905SOL    HW224715   5.207   2.745   4.672
 4906SOL     OW24716   3.144   5.913   2.434
 4906SOL    HW124717   3.083   5.959   2.369
 4906SOL    HW224718   3.128   5.948   2.526
 4907SOL     OW24719   7.972   1.362   7.393
 4907SOL    HW124720   7.901   1.368   7.464
 4907SOL    HW224721   7.930   1.337   7.306
 4908SOL     OW24722   6.354   7.548   5.785
 4908SOL    HW124723   6.305   7.579   5.866
 4908SOL    HW224724   6.291   7.504   5.721
 4909SOL     OW24725   0.730   3.461   6.116
 4909SOL    HW124726   0.747   3.559   6.106
 4909SOL    HW224727   0.693   3.441   6.206
 4910SOL     OW24728   7.058   3.552   2.969
 4910SOL    HW124729   6.971   3.524   2.928
 4910SOL    HW224730   7.046   3.634   3.024
 4911SOL     OW24731   3.337   6.561   5.650
 4911SOL    HW124732   3.287   6.617   5.584
 4911SOL    HW224733   3.288   6.558   5.738
 4912SOL     OW24734   5.070   1.352   0.663
 4912SOL    HW124735   5.102   1.438   0.622
 4912SOL    HW224736   5.108   1.343   0.756
 4913SOL     OW24737   7.318   5.394   1.679
 4913SOL    HW124738   7.260   5.351   1.610
 4913SOL    HW224739   7.261   5.435   1.750
 4914SOL     OW24740   0.294   5.501   6.554
 4914SOL    HW124741   0.218   5.447   6.517
 4914SOL    HW224742   0.271   5.535   6.645
 4915SOL     OW24743   3.468   0.551   3.183
 4915SOL    HW124744   3.410   0.581   3.106
 4915SOL    HW224745   3.512   0.630   3.225
 4916SOL     OW24746   6.600   5.391   4.127
 4916SOL    HW124747   6.653   5.376   4.043
 4916SOL    HW224748   6.624   5.323   4.195
 4917SOL     OW24749   4.193   2.888   3.135
 4917SOL    HW124750   4.102   2.862   3.100
 4917SOL    HW224751   4.183   2.944   3.217
 4918SOL     OW24752   6.314   0.131   3.580
 4918SOL    HW124753   6.397   0.181   3.607
 4918SOL    HW224754   6.283   0.162   3.490
 4919SOL     OW24755   0.350   2.276   7.226
 4919SOL    HW124756   0.302   2.356   7.264
 4919SOL    HW224757   0.447   2.298   7.212
 4920SOL     OW24758   3.692   7.209   5.194
 4920SOL    HW124759   3.635   7.166   5.265
 4920SOL    HW224760   3.691   7.152   5.111
 4921SOL     OW24761   4.552   1.906   5.951
 4921SOL    HW124762   4.496   1.830   5.918
 4921SOL    HW224763   4.648   1.892   5.927
 4922SOL     OW24764   0.631   5.580   5.570
 4922SOL    HW124765   0.690   5.592   5.491
 4922SOL    HW224766   0.544   5.628   5.556
 4923SOL     OW24767   2.180   5.703   3.770
 4923SOL    HW124768   2.204   5.790   3.727
 4923SOL    HW224769   2.196   5.628   3.706
 4924SOL     OW24770   4.142   6.588   0.397
 4924SOL    HW124771   4.234   6.614   0.368
 4924SOL    HW224772   4.145   6.547   0.488
 4925SOL     OW24773   5.456   1.868   1.506
 4925SOL    HW124774   5.456   1.798   1.434
 4925SOL    HW224775   5.474   1.826   1.595
 4926SOL     OW24776   5.966   0.760   4.849
 4926SOL    HW124777   5.928   0.669   4.830
 4926SOL    HW224778   5.957   0.781   4.946
 4927SOL     OW24779   8.005   3.925   3.584
 4927SOL    HW124780   8.002   3.980   3.501
 4927SOL    HW224781   7.977   3.980   3.663
 4928SOL     OW24782   4.720   5.167   0.602
 4928SOL    HW124783   4.762   5.103   0.537
 4928SOL    HW224784   4.730   5.133   0.695
 4929SOL     OW24785   7.323   0.463   0.418
 4929SOL    HW124786   7.370   0.384   0.456
 4929SOL    HW224787   7.358   0.483   0.326
 4930SOL     OW24788   7.862   7.064   2.291
 4930SOL    HW124789   7.960   7.079   2.283
 4930SOL    HW224790   7.816   7.094   2.207
 4931SOL     OW24791   7.097   3.007   4.956
 4931SOL    HW124792   7.012   3.055   4.932
 4931SOL    HW224793   7.125   3.030   5.049
 4932SOL     OW24794   4.811   7.706   1.028
 4932SOL    HW124795   4.890   7.644   1.033
 4932SOL    HW224796   4.762   7.690   0.942
 4933SOL     OW24797   2.056   2.686   3.644
 4933SOL    HW124798   2.156   2.689   3.651
 4933SOL    HW224799   2.029   2.682   3.548
 4934SOL     OW24800   5.767   0.304   7.131
 4934SOL    HW124801   5.797   0.372   7.199
 4934SOL    HW224802   5.815   0.317   7.045
 4935SOL     OW24803   3.555   0.518   3.410
 4935SOL    HW124804   3.577   0.587   3.480
 4935SOL    HW224805   3.569   0.426   3.447
 4936SOL     OW24806   4.088   7.763   0.835
 4936SOL    HW124807   4.031   7.829   0.784
 4936SOL    HW224808   4.086   7.785   0.932
 4937SOL     OW24809   7.192   0.710   5.302
 4937SOL    HW124810   7.226   0.718   5.208
 4937SOL    HW224811   7.193   0.614   5.331
 4938SOL     OW24812   1.333   0.684   5.381
 4938SOL    HW124813   1.357   0.781   5.376
 4938SOL    HW224814   1.250   0.666   5.328
 4939SOL     OW24815   1.510   4.207   2.510
 4939SOL    HW124816   1.481   4.111   2.511
 4939SOL    HW224817   1.433   4.266   2.487
 4940SOL     OW24818   1.259   7.400   7.747
 4940SOL    HW124819   1.297   7.488   7.773
 4940SOL    HW224820   1.209   7.408   7.660
 4941SOL     OW24821   1.594   3.311   6.883
 4941SOL    HW124822   1.554   3.364   6.957
 4941SOL    HW224823   1.529   3.242   6.851
 4942SOL     OW24824   1.295   6.703   0.703
 4942SOL    HW124825   1.371   6.728   0.643
 4942SOL    HW224826   1.326   6.700   0.798
 4943SOL     OW24827   1.366   6.936   0.758
 4943SOL    HW124828   1.357   6.917   0.856
 4943SOL    HW224829   1.352   7.034   0.742
 4944SOL     OW24830   5.143   1.468   5.942
 4944SOL    HW124831   5.089   1.389   5.974
 4944SOL    HW224832   5.142   1.540   6.011
 4945SOL     OW24833   0.680   0.695   7.009
 4945SOL    HW124834   0.748   0.726   6.942
 4945SOL    HW224835   0.592   0.739   6.992
 4946SOL     OW24836   2.648   7.944   0.995
 4946SOL    HW124837   2.581   7.875   1.022
 4946SOL    HW224838   2.685   7.922   0.905
 4947SOL     OW24839   1.863   7.765   2.743
 4947SOL    HW124840   1.895   7.682   2.698
 4947SOL    HW224841   1.783   7.802   2.696
 4948SOL     OW24842   1.136   6.134   1.656
 4948SOL    HW124843   1.078   6.069   1.705
 4948SOL    HW224844   1.085   6.175   1.580
 4949SOL     OW24845   6.106   7.476   7.520
 4949SOL    HW124846   6.119   7.418   7.439
 4949SOL    HW224847   6.012   7.467   7.553
 4950SOL     OW24848   2.855   3.027   7.545
 4950SOL    HW124849   2.833   3.052   7.640
 4950SOL    HW224850   2.773   3.033   7.488
 4951SOL     OW24851   2.419   4.490   3.115
 4951SOL    HW124852   2.484   4.424   3.075
 4951SOL    HW224853   2.416   4.477   3.215
 4952SOL     OW24854   1.743   2.269   5.756
 4952SOL    HW124855   1.819   2.260   5.821
 4952SOL    HW224856   1.676   2.334   5.791
 4953SOL     OW24857   5.784   6.216   2.894
 4953SOL    HW124858   5.789   6.304   2.941
 4953SOL    HW224859   5.870   6.167   2.904
 4954SOL     OW24860   0.686   7.666   6.344
 4954SOL    HW124861   0.739   7.747   6.323
 4954SOL    HW224862   0.741   7.584   6.331
 4955SOL     OW24863   4.572   5.604   1.377
 4955SOL    HW124864   4.513   5.634   1.301
 4955SOL    HW224865   4.600   5.684   1.431
 4956SOL     OW24866   2.264   7.038   4.201
 4956SOL    HW124867   2.261   6.970   4.274
 4956SOL    HW224868   2.300   7.124   4.237
 4957SOL     OW24869   5.401   0.177   3.709
 4957SOL    HW124870   5.375   0.271   3.733
 4957SOL    HW224871   5.337   0.141   3.642
 4958SOL     OW24872   3.917   1.300   6.024
 4958SOL    HW124873   3.995   1.252   6.064
 4958SOL    HW224874   3.949   1.370   5.960
 4959SOL     OW24875   0.056   4.939   3.809
 4959SOL    HW124876   0.096   4.964   3.897
 4959SOL    HW224877  -0.000   5.013   3.774
 4960SOL     OW24878   6.754   1.243   1.376
 4960SOL    HW124879   6.851   1.227   1.396
 4960SOL    HW224880   6.700   1.163   1.401
 4961SOL     OW24881   3.988   1.406   7.300
 4961SOL    HW124882   4.074   1.395   7.351
 4961SOL    HW224883   4.003   1.387   7.203
 4962SOL     OW24884   7.160   6.728   4.361
 4962SOL    HW124885   7.255   6.754   4.381
 4962SOL    HW224886   7.100   6.760   4.433
 4963SOL     OW24887   6.430   4.151   2.123
 4963SOL    HW124888   6.386   4.194   2.044
 4963SOL    HW224889   6.470   4.221   2.182
 4964SOL     OW24890   2.137   5.320   5.072
 4964SOL    HW124891   2.049   5.272   5.080
 4964SOL    HW224892   2.211   5.261   5.105
 4965SOL     OW24893   6.974   6.708   6.715
 4965SOL    HW124894   6.878   6.728   6.696
 4965SOL    HW224895   6.994   6.723   6.812
 4966SOL     OW24896   2.211   2.058   0.413
 4966SOL    HW124897   2.284   2.000   0.450
 4966SOL    HW224898   2.210   2.146   0.460
 4967SOL     OW24899   2.338   1.014   4.747
 4967SOL    HW124900   2.317   0.926   4.791
 4967SOL    HW224901   2.353   1.084   4.816
 4968SOL     OW24902   7.605   2.775   1.997
 4968SOL    HW124903   7.608   2.868   2.034
 4968SOL    HW224904   7.560   2.775   1.908
 4969SOL     OW24905   3.373   4.051   3.146
 4969SOL    HW124906   3.467   4.087   3.141
 4969SOL    HW224907   3.308   4.120   3.117
 4970SOL     OW24908   3.996   1.130   0.224
 4970SOL    HW124909   4.049   1.072   0.285
 4970SOL    HW224910   4.054   1.167   0.152
 4971SOL     OW24911   1.130   5.530   4.786
 4971SOL    HW124912   1.063   5.602   4.803
 4971SOL    HW224913   1.096   5.468   4.715
 4972SOL     OW24914   4.239   1.626   5.832
 4972SOL    HW124915   4.313   1.624   5.766
 4972SOL    HW224916   4.271   1.663   5.919
 4973SOL     OW24917   3.350   0.835   1.246
 4973SOL    HW124918   3.252   0.857   1.250
 4973SOL    HW224919   3.368   0.752   1.299
 4974SOL     OW24920   4.890   2.108   2.374
 4974SOL    HW124921   4.894   2.047   2.295
 4974SOL    HW224922   4.827   2.070   2.442
 4975SOL     OW24923   2.807   1.929   4.956
 4975SOL    HW124924   2.900   1.950   4.985
 4975SOL    HW224925   2.796   1.950   4.859
 4976SOL     OW24926   1.063   2.417   1.641
 4976SOL    HW124927   1.091   2.344   1.579
 4976SOL    HW224928   1.038   2.379   1.730
 4977SOL     OW24929   0.976   5.277   5.156
 4977SOL    HW124930   1.023   5.217   5.091
 4977SOL    HW224931   1.042   5.338   5.201
 4978SOL     OW24932   0.622   6.701   0.819
 4978SOL    HW124933   0.629   6.621   0.878
 4978SOL    HW224934   0.674   6.687   0.735
 4979SOL     OW24935   4.037   3.574   3.482
 4979SOL    HW124936   4.054   3.609   3.574
 4979SOL    HW224937   3.945   3.599   3.452
 4980SOL     OW24938   7.380   4.517   6.346
 4980SOL    HW124939   7.295   4.494   6.299
 4980SOL    HW224940   7.361   4.535   6.443
 4981SOL     OW24941   7.379   4.568   4.507
 4981SOL    HW124942   7.307   4.598   4.570
 4981SOL    HW224943   7.345   4.570   4.413
 4982SOL     OW24944   6.301   6.530   7.644
 4982SOL    HW124945   6.383   6.576   7.611
 4982SOL    HW224946   6.314   6.501   7.739
 4983SOL     OW24947   6.016   6.212   1.964
 4983SOL    HW124948   6.102   6.232   2.011
 4983SOL    HW224949   5.999   6.280   1.893
 4984SOL     OW24950   1.642   2.423   1.024
 4984SOL    HW124951   1.574   2.396   0.956
 4984SOL    HW224952   1.609   2.403   1.116
 4985SOL     OW24953   0.028   0.176   6.575
 4985SOL    HW124954  -0.000   0.272   6.584
 4985SOL    HW224955   0.095   0.153   6.645
 4986SOL     OW24956   1.846   0.256   6.504
 4986SOL    HW124957   1.850   0.259   6.604
 4986SOL    HW224958   1.763   0.300   6.472
 4987SOL     OW24959   1.497   1.733   7.480
 4987SOL    HW124960   1.439   1.809   7.510
 4987SOL    HW224961   1.529   1.681   7.560
 4988SOL     OW24962   1.732   6.618   3.230
 4988SOL    HW124963   1.756   6.524   3.205
 4988SOL    HW224964   1.732   6.676   3.148
 4989SOL     OW24965   4.788   7.846   6.134
 4989SOL    HW124966   4.696   7.882   6.118
 4989SOL    HW224967   4.847   7.918   6.171
 4990SOL     OW24968   6.327   2.093   2.012
 4990SOL    HW124969   6.369   2.020   2.067
 4990SOL    HW224970   6.328   2.179   2.063
 4991SOL     OW24971   7.123   6.969   3.938
 4991SOL    HW124972   7.043   7.009   3.982
 4991SOL    HW224973   7.145   6.881   3.980
 4992SOL     OW24974   4.374   1.355   5.225
 4992SOL    HW124975   4.409   1.446   5.206
 4992SOL    HW224976   4.400   1.327   5.317
 4993SOL     OW24977   0.326   4.903   7.004
 4993SOL    HW124978   0.235   4.941   7.021
 4993SOL    HW224979   0.325   4.848   6.921
 4994SOL     OW24980   0.973   6.332   2.069
 4994SOL    HW124981   0.935   6.261   2.128
 4994SOL    HW224982   0.924   6.418   2.082
 4995SOL     OW24983   3.962   1.905   4.840
 4995SOL    HW124984   4.033   1.940   4.779
 4995SOL    HW224985   3.936   1.812   4.812
 4996SOL     OW24986   7.293   6.084   3.927
 4996SOL    HW124987   7.220   6.141   3.966
 4996SOL    HW224988   7.353   6.052   3.999
 4997SOL     OW24989   6.773   1.546   0.170
 4997SOL    HW124990   6.823   1.600   0.102
 4997SOL    HW224991   6.838   1.500   0.231
 4998SOL     OW24992   0.371   1.608   3.157
 4998SOL    HW124993   0.307   1.656   3.096
 4998SOL    HW224994   0.444   1.669   3.185
 4999SOL     OW24995   5.377   5.816   1.526
 4999SOL    HW124996   5.294   5.760   1.520
 4999SOL    HW224997   5.399   5.835   1.621
 5000SOL     OW24998   2.233   6.364   3.493
 5000SOL    HW124999   2.253   6.268   3.469
 5000SOL    HW225000   2.196   6.369   3.586
 5001SOL     OW25001   0.145   1.417   5.834
 5001SOL    HW125002   0.185   1.466   5.912
 5001SOL    HW225003   0.172   1.321   5.838
 5002SOL     OW25004   3.347   0.686   0.479
 5002SOL    HW125005   3.439   0.722   0.463
 5002SOL    HW225006   3.279   0.758   0.465
 5003SOL     OW25007   3.949   6.213   2.498
 5003SOL    HW125008   4.037   6.240   2.459
 5003SOL    HW225009   3.963   6.144   2.569
 5004SOL     OW25010   1.618   1.766   4.311
 5004SOL    HW125011   1.633   1.693   4.378
 5004SOL    HW225012   1.529   1.808   4.326
 5005SOL     OW25013   7.775   3.557   3.748
 5005SOL    HW125014   7.864   3.536   3.790
 5005SOL    HW225015   7.701   3.532   3.810
 5006SOL     OW25016   6.245   5.350   7.544
 5006SOL    HW125017   6.243   5.439   7.590
 5006SOL    HW225018   6.246   5.363   7.445
 5007SOL     OW25019   4.714   0.817   3.825
 5007SOL    HW125020   4.654   0.741   3.797
 5007SOL    HW225021   4.752   0.799   3.915
 5008SOL     OW25022   1.393   7.946   2.435
 5008SOL    HW125023   1.342   8.000   2.368
 5008SOL    HW225024   1.409   8.000   2.518
 5009SOL     OW25025   1.826   7.717  -0.000
 5009SOL    HW125026   1.759   7.643   0.003
 5009SOL    HW225027   1.907   7.691   0.053
 5010SOL     OW25028   4.752   6.129   4.941
 5010SOL    HW125029   4.835   6.162   4.984
 5010SOL    HW225030   4.736   6.178   4.856
 5011SOL     OW25031   2.024   3.717   7.741
 5011SOL    HW125032   2.017   3.649   7.668
 5011SOL    HW225033   2.120   3.736   7.761
 5012SOL     OW25034   0.377   3.554   2.231
 5012SOL    HW125035   0.345   3.604   2.311
 5012SOL    HW225036   0.371   3.611   2.150
 5013SOL     OW25037   0.543   4.162   4.105
 5013SOL    HW125038   0.491   4.151   4.190
 5013SOL    HW225039   0.567   4.072   4.067
 5014SOL     OW25040   2.394   4.439   6.247
 5014SOL    HW125041   2.445   4.396   6.173
 5014SOL    HW225042   2.296   4.439   6.225
 5015SOL     OW25043   1.204   5.253   5.419
 5015SOL    HW125044   1.216   5.295   5.329
 5015SOL    HW225045   1.126   5.189   5.417
 5016SOL     OW25046   3.635   1.931   1.198
 5016SOL    HW125047   3.544   1.893   1.181
 5016SOL    HW225048   3.652   1.935   1.296
 5017SOL     OW25049   1.327   6.102   3.049
 5017SOL    HW125050   1.245   6.054   3.079
 5017SOL    HW225051   1.373   6.051   2.977
 5018SOL     OW25052   7.048   3.566   3.587
 5018SOL    HW125053   7.147   3.579   3.579
 5018SOL    HW225054   7.000   3.624   3.521
 5019SOL     OW25055   5.826   1.677   5.400
 5019SOL    HW125056   5.904   1.633   5.445
 5019SOL    HW225057   5.824   1.651   5.303
 5020SOL     OW25058   5.021   2.511   7.063
 5020SOL    HW125059   5.009   2.591   7.004
 5020SOL    HW225060   5.000   2.534   7.157
 5021SOL     OW25061   0.582   4.900   1.153
 5021SOL    HW125062   0.614   4.864   1.241
 5021SOL    HW225063   0.661   4.920   1.094
 5022SOL     OW25064   0.700   0.875   2.140
 5022SOL    HW125065   0.628   0.941   2.165
 5022SOL    HW225066   0.684   0.842   2.047
 5023SOL     OW25067   2.216   4.098   3.510
 5023SOL    HW125068   2.250   4.190   3.528
 5023SOL    HW225069   2.169   4.062   3.591
 5024SOL     OW25070   4.390   3.544   0.512
 5024SOL    HW125071   4.370   3.641   0.501
 5024SOL    HW225072   4.461   3.531   0.581
 5025SOL     OW25073   4.830   2.904   3.911
 5025SOL    HW125074   4.811   2.861   3.823
 5025SOL    HW225075   4.916   2.956   3.905
 5026SOL     OW25076   0.038   6.881   2.659
 5026SOL    HW125077   0.000   6.952   2.599
 5026SOL    HW225078   0.077   6.923   2.740
 5027SOL     OW25079   7.710   7.759   2.354
 5027SOL    HW125080   7.617   7.730   2.378
 5027SOL    HW225081   7.771   7.744   2.432
 5028SOL     OW25082   6.766   7.896   1.421
 5028SOL    HW125083   6.811   7.985   1.413
 5028SOL    HW225084   6.808   7.830   1.359
 5029SOL     OW25085   4.414   4.521   1.944
 5029SOL    HW125086   4.420   4.532   1.844
 5029SOL    HW225087   4.485   4.459   1.976
 5030SOL     OW25088   3.357   5.812   3.163
 5030SOL    HW125089   3.444   5.847   3.127
 5030SOL    HW225090   3.315   5.880   3.222
 5031SOL     OW25091   6.379   2.569   1.596
 5031SOL    HW125092   6.373   2.513   1.513
 5031SOL    HW225093   6.293   2.563   1.647
 5032SOL     OW25094   6.167   4.513   4.318
 5032SOL    HW125095   6.073   4.523   4.286
 5032SOL    HW225096   6.189   4.417   4.332
 5033SOL     OW25097   7.087   1.971   6.898
 5033SOL    HW125098   7.048   2.063   6.888
 5033SOL    HW225099   7.016   1.908   6.929
 5034SOL     OW25100   7.811   7.806   5.145
 5034SOL    HW125101   7.808   7.719   5.096
 5034SOL    HW225102   7.790   7.790   5.242
 5035SOL     OW25103   3.057   0.346   2.883
 5035SOL    HW125104   3.104   0.342   2.971
 5035SOL    HW225105   2.958   0.348   2.896
 5036SOL     OW25106   1.878   4.309   1.347
 5036SOL    HW125107   1.875   4.330   1.445
 5036SOL    HW225108   1.816   4.369   1.297
 5037SOL     OW25109   7.916   4.618   0.238
 5037SOL    HW125110   7.838   4.672   0.206
 5037SOL    HW225111   7.945   4.648   0.329
 5038SOL     OW25112   3.608   4.294   4.213
 5038SOL    HW125113   3.558   4.379   4.195
 5038SOL    HW225114   3.551   4.215   4.191
 5039SOL     OW25115   5.239   2.686   3.327
 5039SOL    HW125116   5.174   2.737   3.384
 5039SOL    HW225117   5.243   2.725   3.236
 5040SOL     OW25118   4.578   6.002   7.005
 5040SOL    HW125119   4.546   5.953   7.086
 5040SOL    HW225120   4.622   5.939   6.942
 5041SOL     OW25121   5.340   0.701   2.676
 5041SOL    HW125122   5.385   0.784   2.709
 5041SOL    HW225123   5.268   0.725   2.611
 5042SOL     OW25124   6.397   5.272   0.550
 5042SOL    HW125125   6.436   5.361   0.526
 5042SOL    HW225126   6.308   5.260   0.505
 5043SOL     OW25127   7.148   7.423   2.164
 5043SOL    HW125128   7.117   7.330   2.140
 5043SOL    HW225129   7.118   7.488   2.094
 5044SOL     OW25130   5.045   6.547   2.509
 5044SOL    HW125131   4.980   6.479   2.542
 5044SOL    HW225132   5.072   6.607   2.585
 5045SOL     OW25133   0.103   4.715   7.268
 5045SOL    HW125134   0.092   4.624   7.306
 5045SOL    HW225135   0.134   4.710   7.173
 5046SOL     OW25136   6.359   1.376   1.091
 5046SOL    HW125137   6.433   1.313   1.114
 5046SOL    HW225138   6.378   1.420   1.004
 5047SOL     OW25139   5.834   6.875   2.873
 5047SOL    HW125140   5.910   6.908   2.929
 5047SOL    HW225141   5.867   6.848   2.783
 5048SOL     OW25142   3.921   6.538   6.333
 5048SOL    HW125143   3.986   6.468   6.303
 5048SOL    HW225144   3.837   6.496   6.366
 5049SOL     OW25145   2.375   2.648   4.048
 5049SOL    HW125146   2.281   2.645   4.012
 5049SOL    HW225147   2.377   2.698   4.134
 5050SOL     OW25148   3.801   5.694   6.657
 5050SOL    HW125149   3.724   5.743   6.617
 5050SOL    HW225150   3.859   5.757   6.709
 5051SOL     OW25151   0.804   7.613   4.872
 5051SOL    HW125152   0.758   7.537   4.825
 5051SOL    HW225153   0.903   7.600   4.870
 5052SOL     OW25154   2.905   6.609   6.771
 5052SOL    HW125155   2.937   6.555   6.693
 5052SOL    HW225156   2.939   6.702   6.765
 5053SOL     OW25157   0.041   2.831   4.066
 5053SOL    HW125158   0.124   2.787   4.031
 5053SOL    HW225159  -0.000   2.887   3.994
 5054SOL     OW25160   5.865   7.703   0.399
 5054SOL    HW125161   5.964   7.694   0.410
 5054SOL    HW225162   5.819   7.618   0.424
 5055SOL     OW25163   5.733   2.348   7.039
 5055SOL    HW125164   5.678   2.350   6.956
 5055SOL    HW225165   5.790   2.430   7.044
 5056SOL     OW25166   4.893   0.940   2.282
 5056SOL    HW125167   4.970   0.877   2.294
 5056SOL    HW225168   4.888   1.002   2.360
 5057SOL     OW25169   0.342   1.223   3.020
 5057SOL    HW125170   0.369   1.160   2.947
 5057SOL    HW225171   0.296   1.303   2.980
 5058SOL     OW25172   6.494   0.915   5.584
 5058SOL    HW125173   6.489   0.908   5.683
 5058SOL    HW225174   6.441   0.842   5.542
 5059SOL     OW25175   6.667   1.828   2.207
 5059SOL    HW125176   6.712   1.816   2.296
 5059SOL    HW225177   6.666   1.925   2.182
 5060SOL     OW25178   3.907   1.053   3.461
 5060SOL    HW125179   3.954   1.135   3.494
 5060SOL    HW225180   3.874   1.067   3.368
 5061SOL     OW25181   6.863   1.747   4.961
 5061SOL    HW125182   6.892   1.660   5.002
 5061SOL    HW225183   6.835   1.810   5.034
 5062SOL     OW25184   5.865   6.516   6.366
 5062SOL    HW125185   5.786   6.529   6.306
 5062SOL    HW225186   5.936   6.464   6.320
 5063SOL     OW25187   0.654   3.238   0.926
 5063SOL    HW125188   0.610   3.263   1.012
 5063SOL    HW225189   0.701   3.318   0.888
 5064SOL     OW25190   6.152   2.850   3.774
 5064SOL    HW125191   6.068   2.817   3.818
 5064SOL    HW225192   6.182   2.784   3.705
 5065SOL     OW25193   1.196   4.021   1.739
 5065SOL    HW125194   1.117   4.007   1.679
 5065SOL    HW225195   1.263   4.079   1.693
 5066SOL     OW25196   5.817   5.277   7.413
 5066SOL    HW125197   5.792   5.242   7.504
 5066SOL    HW225198   5.915   5.265   7.399
 5067SOL     OW25199   6.953   6.259   4.766
 5067SOL    HW125200   6.937   6.330   4.697
 5067SOL    HW225201   6.904   6.175   4.741
 5068SOL     OW25202   6.358   1.916   6.626
 5068SOL    HW125203   6.340   1.905   6.528
 5068SOL    HW225204   6.278   1.952   6.673
 5069SOL     OW25205   3.814   4.136   5.665
 5069SOL    HW125206   3.717   4.144   5.642
 5069SOL    HW225207   3.869   4.139   5.582
 5070SOL     OW25208   4.098   2.733   7.643
 5070SOL    HW125209   4.184   2.778   7.619
 5070SOL    HW225210   4.103   2.697   7.736
 5071SOL     OW25211   0.806   0.464   4.325
 5071SOL    HW125212   0.753   0.548   4.308
 5071SOL    HW225213   0.784   0.396   4.255
 5072SOL     OW25214   1.753   0.232   3.294
 5072SOL    HW125215   1.765   0.319   3.341
 5072SOL    HW225216   1.771   0.156   3.357
 5073SOL     OW25217   1.166   1.331   7.069
 5073SOL    HW125218   1.254   1.359   7.031
 5073SOL    HW225219   1.113   1.281   6.999
 5074SOL     OW25220   3.063   7.451   5.327
 5074SOL    HW125221   3.155   7.448   5.288
 5074SOL    HW225222   3.065   7.414   5.420
 5075SOL     OW25223   6.161   6.553   6.246
 5075SOL    HW125224   6.096   6.628   6.262
 5075SOL    HW225225   6.116   6.479   6.196
 5076SOL     OW25226   7.422   5.317   5.328
 5076SOL    HW125227   7.396   5.318   5.232
 5076SOL    HW225228   7.344   5.342   5.385
 5077SOL     OW25229   0.802   6.103   5.821
 5077SOL    HW125230   0.896   6.133   5.807
 5077SOL    HW225231   0.739   6.178   5.804
 5078SOL     OW25232   5.288   6.695   6.823
 5078SOL    HW125233   5.368   6.735   6.868
 5078SOL    HW225234   5.204   6.736   6.859
 5079SOL     OW25235   7.959   5.833   0.521
 5079SOL    HW125236   8.001   5.802   0.436
 5079SOL    HW225237   7.875   5.884   0.501
 5080SOL     OW25238   2.672   2.000   6.433
 5080SOL    HW125239   2.664   1.939   6.355
 5080SOL    HW225240   2.767   2.028   6.445
 5081SOL     OW25241   3.384   2.633   5.004
 5081SOL    HW125242   3.332   2.719   5.008
 5081SOL    HW225243   3.337   2.563   5.058
 5082SOL     OW25244   6.643   5.100   5.277
 5082SOL    HW125245   6.635   5.197   5.255
 5082SOL    HW225246   6.560   5.067   5.321
 5083SOL     OW25247   4.722   7.973   6.615
 5083SOL    HW125248   4.700   7.919   6.696
 5083SOL    HW225249   4.700   7.922   6.532
 5084SOL     OW25250   3.994   1.929   5.823
 5084SOL    HW125251   3.949   1.920   5.911
 5084SOL    HW225252   3.939   1.988   5.763
 5085SOL     OW25253   0.761   2.181   3.330
 5085SOL    HW125254   0.753   2.086   3.360
 5085SOL    HW225255   0.721   2.192   3.239
 5086SOL     OW25256   6.902   3.657   2.186
 5086SOL    HW125257   6.822   3.617   2.231
 5086SOL    HW225258   6.873   3.723   2.117
 5087SOL     OW25259   4.159   6.543   3.302
 5087SOL    HW125260   4.251   6.549   3.341
 5087SOL    HW225261   4.157   6.583   3.211
 5088SOL     OW25262   2.085   3.070   6.720
 5088SOL    HW125263   2.045   3.003   6.783
 5088SOL    HW225264   2.182   3.051   6.708
 5089SOL     OW25265   4.953   0.808   5.627
 5089SOL    HW125266   4.905   0.732   5.583
 5089SOL    HW225267   4.892   0.854   5.691
 5090SOL     OW25268   5.152   5.521   4.720
 5090SOL    HW125269   5.141   5.480   4.630
 5090SOL    HW225270   5.075   5.495   4.779
 5091SOL     OW25271   5.112   5.127   3.089
 5091SOL    HW125272   5.035   5.117   3.153
 5091SOL    HW225273   5.082   5.108   2.996
 5092SOL     OW25274   0.520   0.357   0.462
 5092SOL    HW125275   0.590   0.398   0.521
 5092SOL    HW225276   0.533   0.258   0.458
 5093SOL     OW25277   5.855   6.451   6.576
 5093SOL    HW125278   5.760   6.466   6.603
 5093SOL    HW225279   5.887   6.363   6.611
 5094SOL     OW25280   5.943   2.278   2.456
 5094SOL    HW125281   5.990   2.192   2.475
 5094SOL    HW225282   5.881   2.300   2.531
 5095SOL     OW25283   7.960   1.835   2.330
 5095SOL    HW125284   7.875   1.860   2.376
 5095SOL    HW225285   7.997   1.914   2.281
 5096SOL     OW25286   4.773   5.139   5.806
 5096SOL    HW125287   4.723   5.197   5.742
 5096SOL    HW225288   4.799   5.192   5.887
 5097SOL     OW25289   1.472   5.113   6.541
 5097SOL    HW125290   1.418   5.093   6.624
 5097SOL    HW225291   1.443   5.054   6.466
 5098SOL     OW25292   1.842   4.055   5.622
 5098SOL    HW125293   1.744   4.073   5.630
 5098SOL    HW225294   1.868   4.056   5.525
 5099SOL     OW25295   7.270   4.173   6.191
 5099SOL    HW125296   7.237   4.186   6.097
 5099SOL    HW225297   7.238   4.248   6.249
 5100SOL     OW25298   4.707   4.020   1.600
 5100SOL    HW125299   4.724   3.958   1.677
 5100SOL    HW225300   4.783   4.084   1.590
 5101SOL     OW25301   6.063   6.632   4.734
 5101SOL    HW125302   6.068   6.724   4.773
 5101SOL    HW225303   6.087   6.564   4.804
 5102SOL     OW25304   3.680   5.975   4.162
 5102SOL    HW125305   3.715   6.059   4.120
 5102SOL    HW225306   3.724   5.961   4.251
 5103SOL     OW25307   3.013   1.865   1.281
 5103SOL    HW125308   3.089   1.870   1.217
 5103SOL    HW225309   3.037   1.804   1.358
 5104SOL     OW25310   3.507   1.532   2.771
 5104SOL    HW125311   3.499   1.620   2.816
 5104SOL    HW225312   3.460   1.462   2.825
 5105SOL     OW25313   1.092   3.484   5.418
 5105SOL    HW125314   1.007   3.531   5.443
 5105SOL    HW225315   1.169   3.547   5.426
 5106SOL     OW25316   1.456   7.266   0.931
 5106SOL    HW125317   1.483   7.177   0.967
 5106SOL    HW225318   1.499   7.282   0.842
 5107SOL     OW25319   3.986   4.173   3.257
 5107SOL    HW125320   4.059   4.228   3.298
 5107SOL    HW225321   3.977   4.194   3.159
 5108SOL     OW25322   7.872   5.778   2.233
 5108SOL    HW125323   7.815   5.704   2.197
 5108SOL    HW225324   7.846   5.799   2.327
 5109SOL     OW25325   1.757   4.794   2.837
 5109SOL    HW125326   1.750   4.724   2.909
 5109SOL    HW225327   1.810   4.871   2.870
 5110SOL     OW25328   5.391   0.338   1.990
 5110SOL    HW125329   5.317   0.399   1.961
 5110SOL    HW225330   5.468   0.345   1.926
 5111SOL     OW25331   3.963   2.123   4.135
 5111SOL    HW125332   3.910   2.209   4.130
 5111SOL    HW225333   3.960   2.077   4.046
 5112SOL     OW25334   5.168   7.355   5.206
 5112SOL    HW125335   5.111   7.410   5.145
 5112SOL    HW225336   5.114   7.323   5.283
 5113SOL     OW25337   4.242   2.110   6.122
 5113SOL    HW125338   4.312   2.051   6.082
 5113SOL    HW225339   4.156   2.060   6.132
 5114SOL     OW25340   4.172   0.136   2.447
 5114SOL    HW125341   4.245   0.089   2.397
 5114SOL    HW225342   4.134   0.076   2.517
 5115SOL     OW25343   1.560   6.658   6.516
 5115SOL    HW125344   1.537   6.749   6.481
 5115SOL    HW225345   1.653   6.658   6.552
 5116SOL     OW25346   6.503   2.173   6.728
 5116SOL    HW125347   6.580   2.108   6.735
 5116SOL    HW225348   6.422   2.126   6.694
 5117SOL     OW25349   0.885   1.980   1.639
 5117SOL    HW125350   0.939   1.974   1.723
 5117SOL    HW225351   0.934   2.035   1.572
 5118SOL     OW25352   7.548   6.402   5.112
 5118SOL    HW125353   7.595   6.437   5.193
 5118SOL    HW225354   7.614   6.367   5.046
 5119SOL     OW25355   6.448   1.410   7.243
 5119SOL    HW125356   6.462   1.313   7.222
 5119SOL    HW225357   6.392   1.453   7.171
 5120SOL     OW25358   2.690   5.836   2.498
 5120SOL    HW125359   2.741   5.777   2.561
 5120SOL    HW225360   2.636   5.902   2.550
 5121SOL     OW25361   7.425   4.769   4.076
 5121SOL    HW125362   7.431   4.702   4.149
 5121SOL    HW225363   7.493   4.748   4.005
 5122SOL     OW25364   5.912   7.421   4.028
 5122SOL    HW125365   5.829   7.452   4.073
 5122SOL    HW225366   5.903   7.431   3.928
 5123SOL     OW25367   5.283   1.548   0.857
 5123SOL    HW125368   5.189   1.549   0.891
 5123SOL    HW225369   5.341   1.495   0.918
 5124SOL     OW25370   1.859   7.140   1.228
 5124SOL    HW125371   1.949   7.158   1.267
 5124SOL    HW225372   1.794   7.122   1.301
 5125SOL     OW25373   1.679   0.007   5.278
 5125SOL    HW125374   1.667   0.038   5.373
 5125SOL    HW225375   1.612   0.050   5.219
 5126SOL     OW25376   6.777   6.924   6.657
 5126SOL    HW125377   6.689   6.940   6.612
 5126SOL    HW225378   6.764   6.913   6.755
 5127SOL     OW25379   7.378   4.932   6.760
 5127SOL    HW125380   7.342   4.996   6.691
 5127SOL    HW225381   7.452   4.878   6.720
 5128SOL     OW25382   5.285   3.256   3.468
 5128SOL    HW125383   5.283   3.156   3.460
 5128SOL    HW225384   5.223   3.286   3.540
 5129SOL     OW25385   5.958   7.683   4.148
 5129SOL    HW125386   5.943   7.772   4.190
 5129SOL    HW225387   5.923   7.611   4.208
 5130SOL     OW25388   6.101   7.600   3.098
 5130SOL    HW125389   6.161   7.680   3.111
 5130SOL    HW225390   6.144   7.536   3.034
 5131SOL     OW25391   2.013   3.925   7.026
 5131SOL    HW125392   2.044   3.884   6.940
 5131SOL    HW225393   2.092   3.953   7.081
 5132SOL     OW25394  -0.000   5.478   4.213
 5132SOL    HW125395   0.003   5.466   4.312
 5132SOL    HW225396   0.041   5.566   4.188
 5133SOL     OW25397   5.040   0.675   2.702
 5133SOL    HW125398   5.042   0.757   2.645
 5133SOL    HW225399   5.118   0.675   2.765
 5134SOL     OW25400   5.208   7.607   7.661
 5134SOL    HW125401   5.181   7.701   7.680
 5134SOL    HW225402   5.157   7.572   7.583
 5135SOL     OW25403   0.058   3.188   4.104
 5135SOL    HW125404   0.082   3.223   4.195
 5135SOL    HW225405   0.133   3.205   4.040
 5136SOL     OW25406   1.200   3.614   2.167
 5136SOL    HW125407   1.232   3.696   2.118
 5136SOL    HW225408   1.240   3.611   2.258
 5137SOL     OW25409   2.803   5.460   1.836
 5137SOL    HW125410   2.792   5.424   1.743
 5137SOL    HW225411   2.723   5.438   1.890
 5138SOL     OW25412   6.553   7.829   1.967
 5138SOL    HW125413   6.597   7.918   1.955
 5138SOL    HW225414   6.612   7.769   2.020
 5139SOL     OW25415   4.812   2.976   7.917
 5139SOL    HW125416   4.835   2.994   7.821
 5139SOL    HW225417   4.789   2.880   7.929
 5140SOL     OW25418   0.421   5.403   6.308
 5140SOL    HW125419   0.503   5.378   6.256
 5140SOL    HW225420   0.418   5.501   6.322
 5141SOL     OW25421   4.090   1.691   4.642
 5141SOL    HW125422   4.128   1.607   4.603
 5141SOL    HW225423   4.108   1.768   4.581
 5142SOL     OW25424   5.768   1.720   5.790
 5142SOL    HW125425   5.868   1.710   5.789
 5142SOL    HW225426   5.734   1.721   5.696
 5143SOL     OW25427   2.851   3.883   0.385
 5143SOL    HW125428   2.901   3.960   0.347
 5143SOL    HW225429   2.885   3.862   0.477
 5144SOL     OW25430   5.822   7.860   7.318
 5144SOL    HW125431   5.912   7.891   7.287
 5144SOL    HW225432   5.763   7.842   7.239
 5145SOL     OW25433   7.086   7.790   2.574
 5145SOL    HW125434   7.068   7.770   2.670
 5145SOL    HW225435   7.003   7.828   2.531
 5146SOL     OW25436   2.812   6.613   3.781
 5146SOL    HW125437   2.822   6.685   3.713
 5146SOL    HW225438   2.781   6.651   3.868
 5147SOL     OW25439   4.657   4.804   5.261
 5147SOL    HW125440   4.633   4.855   5.179
 5147SOL    HW225441   4.756   4.792   5.266
 5148SOL     OW25442   2.336   2.542   5.272
 5148SOL    HW125443   2.339   2.503   5.179
 5148SOL    HW225444   2.427   2.537   5.313
 5149SOL     OW25445   4.582   2.659   0.453
 5149SOL    HW125446   4.607   2.755   0.437
 5149SOL    HW225447   4.564   2.645   0.550
 5150SOL     OW25448   6.194   3.911   4.667
 5150SOL    HW125449   6.120   3.940   4.727
 5150SOL    HW225450   6.181   3.816   4.639
 5151SOL     OW25451   5.767   1.942   1.231
 5151SOL    HW125452   5.774   1.849   1.268
 5151SOL    HW225453   5.810   1.947   1.141
 5152SOL     OW25454   3.161   0.479   5.996
 5152SOL    HW125455   3.105   0.419   5.938
 5152SOL    HW225456   3.113   0.565   6.013
 5153SOL     OW25457   5.632   1.597   4.584
 5153SOL    HW125458   5.661   1.506   4.614
 5153SOL    HW225459   5.640   1.605   4.485
 5154SOL     OW25460   6.054   4.506   1.234
 5154SOL    HW125461   6.070   4.419   1.188
 5154SOL    HW225462   6.016   4.490   1.325
 5155SOL     OW25463   4.851   2.023   7.747
 5155SOL    HW125464   4.830   1.950   7.682
 5155SOL    HW225465   4.892   2.101   7.699
 5156SOL     OW25466   3.901   3.024   2.043
 5156SOL    HW125467   3.987   2.998   2.000
 5156SOL    HW225468   3.896   2.987   2.136
 5157SOL     OW25469   1.662   0.679   0.796
 5157SOL    HW125470   1.614   0.605   0.843
 5157SOL    HW225471   1.731   0.641   0.734
 5158SOL     OW25472   2.099   7.314   5.286
 5158SOL    HW125473   2.047   7.359   5.359
 5158SOL    HW225474   2.175   7.262   5.325
 5159SOL     OW25475   0.349   7.116   4.943
 5159SOL    HW125476   0.329   7.199   4.995
 5159SOL    HW225477   0.326   7.130   4.847
 5160SOL     OW25478   6.713   2.413   3.361
 5160SOL    HW125479   6.804   2.381   3.334
 5160SOL    HW225480   6.689   2.374   3.451
 5161SOL     OW25481   7.605   4.430   2.375
 5161SOL    HW125482   7.593   4.487   2.293
 5161SOL    HW225483   7.592   4.485   2.457
 5162SOL     OW25484   2.813   7.171   2.615
 5162SOL    HW125485   2.799   7.114   2.697
 5162SOL    HW225486   2.908   7.164   2.584
 5163SOL     OW25487   2.888   3.020   7.051
 5163SOL    HW125488   2.902   3.007   7.149
 5163SOL    HW225489   2.922   2.941   7.001
 5164SOL     OW25490   5.923   5.272   0.068
 5164SOL    HW125491   5.992   5.233   0.006
 5164SOL    HW225492   5.905   5.207   0.142
 5165SOL     OW25493   1.521   1.139   4.190
 5165SOL    HW125494   1.530   1.169   4.095
 5165SOL    HW225495   1.609   1.143   4.237
 5166SOL     OW25496   2.194   4.781   5.090
 5166SOL    HW125497   2.288   4.749   5.107
 5166SOL    HW225498   2.186   4.815   4.997
 5167SOL     OW25499   2.952   0.491   2.573
 5167SOL    HW125500   3.028   0.435   2.540
 5167SOL    HW225501   2.912   0.542   2.497
 5168SOL     OW25502   5.735   1.656   1.487
 5168SOL    HW125503   5.644   1.654   1.445
 5168SOL    HW225504   5.729   1.694   1.580
 5169SOL     OW25505   6.166   2.529   7.514
 5169SOL    HW125506   6.120   2.591   7.576
 5169SOL    HW225507   6.188   2.576   7.428
 5170SOL     OW25508   1.992   6.792   5.437
 5170SOL    HW125509   1.939   6.710   5.458
 5170SOL    HW225510   2.021   6.791   5.341
 5171SOL     OW25511   1.126   0.247   4.089
 5171SOL    HW125512   1.163   0.156   4.068
 5171SOL    HW225513   1.035   0.239   4.128
 5172SOL     OW25514   7.315   5.759   0.183
 5172SOL    HW125515   7.284   5.845   0.142
 5172SOL    HW225516   7.375   5.778   0.261
 5173SOL     OW25517   7.352   1.848   0.254
 5173SOL    HW125518   7.282   1.778   0.269
 5173SOL    HW225519   7.400   1.831   0.169
 5174SOL     OW25520   3.307   6.427   3.476
 5174SOL    HW125521   3.308   6.332   3.505
 5174SOL    HW225522   3.351   6.436   3.387
 5175SOL     OW25523   8.000   5.665   5.474
 5175SOL    HW125524   7.955   5.602   5.538
 5175SOL    HW225525   7.974   5.641   5.380
 5176SOL     OW25526   4.386   6.795   5.736
 5176SOL    HW125527   4.331   6.853   5.675
 5176SOL    HW225528   4.428   6.852   5.807
 5177SOL     OW25529   6.346   6.479   3.471
 5177SOL    HW125530   6.429   6.481   3.528
 5177SOL    HW225531   6.300   6.568   3.476
 5178SOL     OW25532   5.470   7.244   7.262
 5178SOL    HW125533   5.380   7.279   7.286
 5178SOL    HW225534   5.541   7.298   7.308
 5179SOL     OW25535   0.828   0.124   2.410
 5179SOL    HW125536   0.787   0.200   2.361
 5179SOL    HW225537   0.886   0.158   2.485
 5180SOL     OW25538   2.053   0.144   5.173
 5180SOL    HW125539   2.067   0.234   5.130
 5180SOL    HW225540   2.133   0.086   5.156
 5181SOL     OW25541   6.450   3.590   6.610
 5181SOL    HW125542   6.517   3.539   6.557
 5181SOL    HW225543   6.497   3.660   6.665
 5182SOL     OW25544   0.732   1.708   7.662
 5182SOL    HW125545   0.766   1.616   7.681
 5182SOL    HW225546   0.669   1.737   7.734
 5183SOL     OW25547   1.841   4.188   6.544
 5183SOL    HW125548   1.903   4.216   6.618
 5183SOL    HW225549   1.806   4.268   6.497
 5184SOL     OW25550   3.011   5.685   6.044
 5184SOL    HW125551   2.961   5.771   6.036
 5184SOL    HW225552   3.075   5.675   5.969
 5185SOL     OW25553   7.323   2.047   0.547
 5185SOL    HW125554   7.274   2.066   0.632
 5185SOL    HW225555   7.269   2.081   0.469
 5186SOL     OW25556   3.293   0.706   1.033
 5186SOL    HW125557   3.382   0.669   1.060
 5186SOL    HW225558   3.299   0.749   0.943
 5187SOL     OW25559   0.305   7.582   5.339
 5187SOL    HW125560   0.213   7.545   5.356
 5187SOL    HW225561   0.367   7.556   5.412
 5188SOL     OW25562   5.676   2.709   6.492
 5188SOL    HW125563   5.745   2.672   6.429
 5188SOL    HW225564   5.639   2.635   6.549
 5189SOL     OW25565   2.620   3.118   6.871
 5189SOL    HW125566   2.539   3.102   6.814
 5189SOL    HW225567   2.652   3.032   6.910
 5190SOL     OW25568   6.587   0.105   1.627
 5190SOL    HW125569   6.494   0.140   1.638
 5190SOL    HW225570   6.628   0.087   1.716
 5191SOL     OW25571   1.658   1.108   0.274
 5191SOL    HW125572   1.703   1.184   0.227
 5191SOL    HW225573   1.609   1.141   0.354
 5192SOL     OW25574   2.658   4.987   7.012
 5192SOL    HW125575   2.569   5.022   7.043
 5192SOL    HW225576   2.653   4.959   6.917
 5193SOL     OW25577   5.956   4.367   4.389
 5193SOL    HW125578   5.887   4.437   4.411
 5193SOL    HW225579   6.022   4.360   4.464
 5194SOL     OW25580   4.790   1.793   1.636
 5194SOL    HW125581   4.883   1.821   1.612
 5194SOL    HW225582   4.788   1.755   1.728
 5195SOL     OW25583   2.229   4.141   4.068
 5195SOL    HW125584   2.238   4.230   4.023
 5195SOL    HW225585   2.149   4.142   4.128
 5196SOL     OW25586   4.206   5.330   0.673
 5196SOL    HW125587   4.235   5.332   0.769
 5196SOL    HW225588   4.274   5.375   0.616
 5197SOL     OW25589   5.771   4.152   2.153
 5197SOL    HW125590   5.748   4.182   2.061
 5197SOL    HW225591   5.864   4.116   2.155
 5198SOL     OW25592   2.726   3.914   4.975
 5198SOL    HW125593   2.698   4.003   4.938
 5198SOL    HW225594   2.789   3.927   5.051
 5199SOL     OW25595   2.933   2.766   5.373
 5199SOL    HW125596   2.955   2.703   5.299
 5199SOL    HW225597   3.004   2.762   5.443
 5200SOL     OW25598   3.752   5.620   0.062
 5200SOL    HW125599   3.705   5.534   0.083
 5200SOL    HW225600   3.849   5.602   0.045
 5201SOL     OW25601   1.054   6.918   7.557
 5201SOL    HW125602   1.106   6.847   7.604
 5201SOL    HW225603   1.099   6.941   7.471
 5202SOL     OW25604   1.196   4.553   6.756
 5202SOL    HW125605   1.177   4.651   6.749
 5202SOL    HW225606   1.227   4.531   6.849
 5203SOL     OW25607   7.010   4.829   5.747
 5203SOL    HW125608   7.047   4.889   5.818
 5203SOL    HW225609   7.044   4.736   5.759
 5204SOL     OW25610   1.599   2.114   0.999
 5204SOL    HW125611   1.666   2.171   1.047
 5204SOL    HW225612   1.508   2.154   1.008
 5205SOL     OW25613   3.353   1.418   0.303
 5205SOL    HW125614   3.398   1.361   0.234
 5205SOL    HW225615   3.318   1.362   0.378
 5206SOL     OW25616   3.446   0.980   6.779
 5206SOL    HW125617   3.467   1.067   6.824
 5206SOL    HW225618   3.493   0.975   6.691
 5207SOL     OW25619   0.237   0.352   6.532
 5207SOL    HW125620   0.165   0.415   6.562
 5207SOL    HW225621   0.201   0.291   6.461
 5208SOL     OW25622   5.878   4.684   3.532
 5208SOL    HW125623   5.791   4.690   3.482
 5208SOL    HW225624   5.926   4.600   3.507
 5209SOL     OW25625   4.173   2.459   7.681
 5209SOL    HW125626   4.229   2.510   7.746
 5209SOL    HW225627   4.076   2.469   7.704
 5210SOL     OW25628   2.873   6.083   2.581
 5210SOL    HW125629   2.775   6.067   2.595
 5210SOL    HW225630   2.923   5.997   2.589
 5211SOL     OW25631   0.858   6.234   7.511
 5211SOL    HW125632   0.854   6.316   7.568
 5211SOL    HW225633   0.938   6.238   7.451
 5212SOL     OW25634   6.888   3.941   5.207
 5212SOL    HW125635   6.845   3.893   5.284
 5212SOL    HW225636   6.932   3.876   5.146
 5213SOL     OW25637   6.226   7.436   0.677
 5213SOL    HW125638   6.127   7.429   0.664
 5213SOL    HW225639   6.268   7.345   0.672
 5214SOL     OW25640   2.979   0.032   6.578
 5214SOL    HW125641   3.045   0.107   6.575
 5214SOL    HW225642   2.969  -0.000   6.673
 5215SOL     OW25643   3.616   1.477   4.863
 5215SOL    HW125644   3.692   1.526   4.821
 5215SOL    HW225645   3.606   1.504   4.959
 5216SOL     OW25646   7.797   3.303   6.308
 5216SOL    HW125647   7.850   3.232   6.354
 5216SOL    HW225648   7.820   3.305   6.210
 5217SOL     OW25649   2.017   6.874   1.173
 5217SOL    HW125650   2.087   6.845   1.238
 5217SOL    HW225651   1.932   6.824   1.188
 5218SOL     OW25652   1.637   6.722   2.603
 5218SOL    HW125653   1.711   6.693   2.663
 5218SOL    HW225654   1.591   6.643   2.563
 5219SOL     OW25655   0.797   2.893   1.456
 5219SOL    HW125656   0.779   2.797   1.434
 5219SOL    HW225657   0.895   2.912   1.453
 5220SOL     OW25658   6.181   1.577   7.523
 5220SOL    HW125659   6.184   1.558   7.424
 5220SOL    HW225660   6.144   1.498   7.571
 5221SOL     OW25661   2.177  -0.000   4.929
 5221SOL    HW125662   2.082   0.003   4.959
 5221SOL    HW225663   2.183   0.012   4.830
 5222SOL     OW25664   3.596   5.826   6.992
 5222SOL    HW125665   3.605   5.885   7.073
 5222SOL    HW225666   3.519   5.764   7.004
 5223SOL     OW25667   6.961   4.055   4.668
 5223SOL    HW125668   6.978   4.095   4.578
 5223SOL    HW225669   6.986   3.958   4.667
 5224SOL     OW25670   7.382   3.075   2.507
 5224SOL    HW125671   7.462   3.020   2.534
 5224SOL    HW225672   7.387   3.166   2.548
 5225SOL     OW25673   6.461   2.609   3.788
 5225SOL    HW125674   6.501   2.564   3.708
 5225SOL    HW225675   6.366   2.633   3.769
 5226SOL     OW25676   2.261   3.186   1.311
 5226SOL    HW125677   2.275   3.278   1.274
 5226SOL    HW225678   2.311   3.175   1.397
 5227SOL     OW25679   1.909   7.412   5.789
 5227SOL    HW125680   1.872   7.366   5.870
 5227SOL    HW225681   1.836   7.463   5.742
 5228SOL     OW25682   1.837   6.953   3.450
 5228SOL    HW125683   1.758   6.939   3.390
 5228SOL    HW225684   1.913   6.895   3.421
 5229SOL     OW25685   5.412   0.781   6.754
 5229SOL    HW125686   5.357   0.801   6.673
 5229SOL    HW225687   5.485   0.717   6.731
 5230SOL     OW25688   7.697   5.328   5.962
 5230SOL    HW125689   7.672   5.354   5.869
 5230SOL    HW225690   7.615   5.311   6.016
 5231SOL     OW25691   4.916   3.002   3.412
 5231SOL    HW125692   4.956   3.093   3.410
 5231SOL    HW225693   4.921   2.964   3.504
 5232SOL     OW25694   3.176   7.597   2.657
 5232SOL    HW125695   3.259   7.603   2.602
 5232SOL    HW225696   3.193   7.540   2.738
 5233SOL     OW25697   5.713   4.601   4.205
 5233SOL    HW125698   5.803   4.561   4.223
 5233SOL    HW225699   5.719   4.665   4.129
 5234SOL     OW25700   1.759   5.201   3.121
 5234SOL    HW125701   1.661   5.221   3.128
 5234SOL    HW225702   1.774   5.103   3.109
 5235SOL     OW25703   6.386   4.720   0.302
 5235SOL    HW125704   6.412   4.814   0.322
 5235SOL    HW225705   6.288   4.707   0.321
 5236SOL     OW25706   2.266   1.628   4.444
 5236SOL    HW125707   2.312   1.601   4.528
 5236SOL    HW225708   2.296   1.719   4.416
 5237SOL     OW25709   2.736   4.609   0.947
 5237SOL    HW125710   2.807   4.569   0.889
 5237SOL    HW225711   2.709   4.544   1.018
 5238SOL     OW25712   3.896   3.398   3.111
 5238SOL    HW125713   3.825   3.365   3.049
 5238SOL    HW225714   3.858   3.410   3.203
 5239SOL     OW25715   1.805   1.819   5.666
 5239SOL    HW125716   1.862   1.742   5.637
 5239SOL    HW225717   1.764   1.800   5.755
 5240SOL     OW25718   5.641   3.144   4.310
 5240SOL    HW125719   5.549   3.134   4.272
 5240SOL    HW225720   5.709   3.116   4.243
 5241SOL     OW25721   6.972   8.001   0.839
 5241SOL    HW125722   7.061   7.992   0.886
 5241SOL    HW225723   6.974   7.952   0.752
 5242SOL     OW25724   6.595   7.130   7.763
 5242SOL    HW125725   6.507   7.090   7.790
 5242SOL    HW225726   6.654   7.060   7.723
 5243SOL     OW25727   6.219   7.705   5.463
 5243SOL    HW125728   6.217   7.805   5.470
 5243SOL    HW225729   6.127   7.670   5.451
 5244SOL     OW25730   2.864   4.979   6.509
 5244SOL    HW125731   2.955   5.017   6.529
 5244SOL    HW225732   2.854   4.965   6.411
 5245SOL     OW25733   4.652   6.641   6.975
 5245SOL    HW125734   4.660   6.708   6.902
 5245SOL    HW225735   4.736   6.586   6.980
 5246SOL     OW25736   2.496   1.603   3.076
 5246SOL    HW125737   2.568   1.562   3.020
 5246SOL    HW225738   2.439   1.531   3.116
 5247SOL     OW25739   3.953   1.503   5.429
 5247SOL    HW125740   3.961   1.470   5.523
 5247SOL    HW225741   4.036   1.551   5.402
 5248SOL     OW25742   3.971   1.957   7.080
 5248SOL    HW125743   3.967   2.055   7.099
 5248SOL    HW225744   3.884   1.926   7.041
 5249SOL     OW25745   6.612   3.864   0.844
 5249SOL    HW125746   6.542   3.794   0.827
 5249SOL    HW225747   6.661   3.843   0.929
 5250SOL     OW25748   7.425   3.451   0.992
 5250SOL    HW125749   7.466   3.365   1.021
 5250SOL    HW225750   7.496   3.515   0.963
 5251SOL     OW25751   0.217   2.338   5.574
 5251SOL    HW125752   0.300   2.331   5.519
 5251SOL    HW225753   0.239   2.324   5.671
 5252SOL     OW25754   6.277   6.712   2.998
 5252SOL    HW125755   6.204   6.768   3.036
 5252SOL    HW225756   6.353   6.771   2.968
 5253SOL     OW25757   2.573   3.852   6.990
 5253SOL    HW125758   2.629   3.876   6.911
 5253SOL    HW225759   2.545   3.935   7.039
 5254SOL     OW25760   2.632   4.083   2.373
 5254SOL    HW125761   2.707   4.116   2.431
 5254SOL    HW225762   2.548   4.077   2.427
 5255SOL     OW25763   5.461   1.018   6.782
 5255SOL    HW125764   5.537   1.026   6.718
 5255SOL    HW225765   5.374   1.012   6.732
 5256SOL     OW25766   1.434   5.716   6.729
 5256SOL    HW125767   1.386   5.631   6.708
 5256SOL    HW225768   1.467   5.758   6.644
 5257SOL     OW25769   3.729   4.138   2.031
 5257SOL    HW125770   3.642   4.187   2.041
 5257SOL    HW225771   3.794   4.195   1.982
 5258SOL     OW25772   2.205   7.952   7.194
 5258SOL    HW125773   2.281   8.000   7.238
 5258SOL    HW225774   2.203   7.974   7.096
 5259SOL     OW25775   3.918   4.827   5.247
 5259SOL    HW125776   3.848   4.885   5.204
 5259SOL    HW225777   3.983   4.884   5.296
 5260SOL     OW25778   7.736   4.571   0.854
 5260SOL    HW125779   7.705   4.499   0.917
 5260SOL    HW225780   7.757   4.531   0.765
 5261SOL     OW25781   3.388   3.700   1.487
 5261SOL    HW125782   3.443   3.680   1.406
 5261SOL    HW225783   3.391   3.624   1.551
 5262SOL     OW25784   1.805   4.487   6.424
 5262SOL    HW125785   1.779   4.430   6.346
 5262SOL    HW225786   1.737   4.478   6.497
 5263SOL     OW25787   6.451   0.566   1.278
 5263SOL    HW125788   6.530   0.506   1.287
 5263SOL    HW225789   6.370   0.513   1.253
 5264SOL     OW25790   5.564   3.240   7.271
 5264SOL    HW125791   5.489   3.174   7.260
 5264SOL    HW225792   5.628   3.231   7.194
 5265SOL     OW25793   6.121   5.410   5.959
 5265SOL    HW125794   6.118   5.345   6.036
 5265SOL    HW225795   6.057   5.380   5.888
 5266SOL     OW25796   5.812   5.992   6.451
 5266SOL    HW125797   5.773   6.035   6.370
 5266SOL    HW225798   5.813   6.057   6.527
 5267SOL     OW25799   4.077   4.489   0.897
 5267SOL    HW125800   4.056   4.392   0.911
 5267SOL    HW225801   4.041   4.519   0.808
 5268SOL     OW25802   3.684   2.170   0.143
 5268SOL    HW125803   3.645   2.260   0.162
 5268SOL    HW225804   3.765   2.180   0.085
 5269SOL     OW25805   3.259   2.352   1.988
 5269SOL    HW125806   3.336   2.329   2.048
 5269SOL    HW225807   3.230   2.446   2.005
 5270SOL     OW25808   5.853   1.870   2.349
 5270SOL    HW125809   5.818   1.784   2.312
 5270SOL    HW225810   5.815   1.885   2.441
 5271SOL     OW25811   3.420   6.111   1.089
 5271SOL    HW125812   3.491   6.055   1.045
 5271SOL    HW225813   3.436   6.207   1.068
 5272SOL     OW25814   6.820   1.874   3.829
 5272SOL    HW125815   6.824   1.967   3.867
 5272SOL    HW225816   6.736   1.862   3.777
 5273SOL     OW25817   4.563   1.303   2.147
 5273SOL    HW125818   4.617   1.238   2.201
 5273SOL    HW225819   4.610   1.321   2.060
 5274SOL     OW25820   5.109   2.270   2.561
 5274SOL    HW125821   5.146   2.273   2.654
 5274SOL    HW225822   5.179   2.302   2.496
 5275SOL     OW25823   5.590   2.956   2.400
 5275SOL    HW125824   5.561   3.042   2.359
 5275SOL    HW225825   5.594   2.885   2.329
 5276SOL     OW25826   0.977   4.176   5.115
 5276SOL    HW125827   0.969   4.116   5.194
 5276SOL    HW225828   0.943   4.129   5.033
 5277SOL     OW25829   4.491   2.327   7.369
 5277SOL    HW125830   4.444   2.412   7.345
 5277SOL    HW225831   4.544   2.295   7.291
 5278SOL     OW25832   4.371   4.347   0.720
 5278SOL    HW125833   4.381   4.282   0.645
 5278SOL    HW225834   4.379   4.440   0.685
 5279SOL     OW25835   5.450   2.865   3.905
 5279SOL    HW125836   5.440   2.955   3.948
 5279SOL    HW225837   5.456   2.875   3.805
 5280SOL     OW25838   5.343   4.617   0.960
 5280SOL    HW125839   5.290   4.687   1.009
 5280SOL    HW225840   5.304   4.603   0.869
 5281SOL     OW25841   1.471   7.194   1.910
 5281SOL    HW125842   1.387   7.244   1.889
 5281SOL    HW225843   1.469   7.104   1.866
 5282SOL     OW25844   3.250   5.834   0.051
 5282SOL    HW125845   3.308   5.898  -0.000
 5282SOL    HW225846   3.274   5.740   0.028
 5283SOL     OW25847   5.071   5.112   5.518
 5283SOL    HW125848   5.023   5.196   5.492
 5283SOL    HW225849   5.131   5.130   5.596
 5284SOL     OW25850   1.450   3.141   7.703
 5284SOL    HW125851   1.398   3.059   7.726
 5284SOL    HW225852   1.412   3.220   7.752
 5285SOL     OW25853   6.261   2.462   7.148
 5285SOL    HW125854   6.175   2.493   7.107
 5285SOL    HW225855   6.273   2.502   7.238
 5286SOL     OW25856   7.840   3.587   5.807
 5286SOL    HW125857   7.937   3.611   5.804
 5286SOL    HW225858   7.805   3.575   5.714
 5287SOL     OW25859   7.372   4.544   5.662
 5287SOL    HW125860   7.339   4.631   5.699
 5287SOL    HW225861   7.306   4.507   5.597
 5288SOL     OW25862   7.370   1.048   4.881
 5288SOL    HW125863   7.331   0.966   4.839
 5288SOL    HW225864   7.392   1.115   4.811
 5289SOL     OW25865   4.103   1.946   0.449
 5289SOL    HW125866   4.189   1.938   0.500
 5289SOL    HW225867   4.118   1.996   0.364
 5290SOL     OW25868   4.014   0.520   4.865
 5290SOL    HW125869   4.062   0.440   4.901
 5290SOL    HW225870   4.043   0.537   4.770
 5291SOL     OW25871   2.226   1.619   0.334
 5291SOL    HW125872   2.154   1.585   0.395
 5291SOL    HW225873   2.199   1.604   0.239
 5292SOL     OW25874   6.456   4.489   5.826
 5292SOL    HW125875   6.385   4.556   5.852
 5292SOL    HW225876   6.437   4.453   5.734
 5293SOL     OW25877   0.939   6.720   7.699
 5293SOL    HW125878   0.905   6.794   7.758
 5293SOL    HW225879   1.026   6.686   7.733
 5294SOL     OW25880   1.637   2.024   5.779
 5294SOL    HW125881   1.645   1.974   5.692
 5294SOL    HW225882   1.639   1.959   5.855
 5295SOL     OW25883   7.098   5.845   1.480
 5295SOL    HW125884   7.039   5.871   1.403
 5295SOL    HW225885   7.042   5.811   1.555
 5296SOL     OW25886   0.745   7.888   7.183
 5296SOL    HW125887   0.785   7.979   7.192
 5296SOL    HW225888   0.796   7.822   7.238
 5297SOL     OW25889   1.856   7.200   4.482
 5297SOL    HW125890   1.910   7.271   4.527
 5297SOL    HW225891   1.894   7.181   4.391
 5298SOL     OW25892   0.047   7.009   4.903
 5298SOL    HW125893   0.050   7.040   4.807
 5298SOL    HW225894   0.121   6.944   4.920
 5299SOL     OW25895   0.065   6.014   4.670
 5299SOL    HW125896  -0.000   5.944   4.699
 5299SOL    HW225897   0.070   6.086   4.740
 5300SOL     OW25898   6.572   7.234   6.091
 5300SOL    HW125899   6.488   7.207   6.137
 5300SOL    HW225900   6.621   7.303   6.146
 5301SOL     OW25901   2.229   1.245   2.847
 5301SOL    HW125902   2.225   1.251   2.747
 5301SOL    HW225903   2.202   1.153   2.876
 5302SOL     OW25904   2.878   4.783   2.869
 5302SOL    HW125905   2.968   4.740   2.867
 5302SOL    HW225906   2.831   4.760   2.955
 5303SOL     OW25907   4.064   1.784   1.890
 5303SOL    HW125908   4.009   1.815   1.967
 5303SOL    HW225909   4.132   1.718   1.921
 5304SOL     OW25910   4.558   1.719   3.796
 5304SOL    HW125911   4.490   1.786   3.765
 5304SOL    HW225912   4.589   1.663   3.719
 5305SOL     OW25913   7.822   1.713   7.064
 5305SOL    HW125914   7.769   1.794   7.041
 5305SOL    HW225915   7.762   1.640   7.096
 5306SOL     OW25916   4.431   5.280   1.704
 5306SOL    HW125917   4.470   5.195   1.669
 5306SOL    HW225918   4.485   5.314   1.781
 5307SOL     OW25919   4.634   2.625   6.707
 5307SOL    HW125920   4.641   2.721   6.680
 5307SOL    HW225921   4.645   2.566   6.628
 5308SOL     OW25922   0.644   6.324   7.385
 5308SOL    HW125923   0.622   6.409   7.432
 5308SOL    HW225924   0.704   6.343   7.307
 5309SOL     OW25925   0.479   1.507   1.861
 5309SOL    HW125926   0.494   1.494   1.959
 5309SOL    HW225927   0.429   1.429   1.823
 5310SOL     OW25928   7.673   2.583   7.647
 5310SOL    HW125929   7.714   2.595   7.556
 5310SOL    HW225930   7.742   2.595   7.718
 5311SOL     OW25931   2.372   6.895   0.287
 5311SOL    HW125932   2.436   6.830   0.328
 5311SOL    HW225933   2.314   6.849   0.220
 5312SOL     OW25934   7.297   0.384   7.693
 5312SOL    HW125935   7.379   0.439   7.711
 5312SOL    HW225936   7.278   0.382   7.595
 5313SOL     OW25937   1.000   2.323   7.055
 5313SOL    HW125938   0.993   2.296   7.151
 5313SOL    HW225939   1.085   2.373   7.039
 5314SOL     OW25940   1.926   6.241   0.126
 5314SOL    HW125941   2.000   6.201   0.072
 5314SOL    HW225942   1.953   6.247   0.221
 5315SOL     OW25943   0.583   1.631   2.177
 5315SOL    HW125944   0.610   1.636   2.081
 5315SOL    HW225945   0.639   1.563   2.225
 5316SOL     OW25946   2.863   2.256   1.952
 5316SOL    HW125947   2.837   2.160   1.965
 5316SOL    HW225948   2.803   2.298   1.883
 5317SOL     OW25949   6.131   3.392   2.383
 5317SOL    HW125950   6.111   3.340   2.300
 5317SOL    HW225951   6.071   3.363   2.457
 5318SOL     OW25952   1.361   1.917   1.974
 5318SOL    HW125953   1.364   1.919   2.074
 5318SOL    HW225954   1.423   1.985   1.937
 5319SOL     OW25955   7.569   4.731   5.758
 5319SOL    HW125956   7.525   4.679   5.831
 5319SOL    HW225957   7.552   4.688   5.669
 5320SOL     OW25958   0.499   1.201   1.230
 5320SOL    HW125959   0.425   1.257   1.268
 5320SOL    HW225960   0.487   1.193   1.131
 5321SOL     OW25961   4.494   4.534   2.220
 5321SOL    HW125962   4.568   4.474   2.251
 5321SOL    HW225963   4.525   4.592   2.146
 5322SOL     OW25964   3.976   4.646   2.833
 5322SOL    HW125965   4.023   4.583   2.895
 5322SOL    HW225966   3.982   4.612   2.739
 5323SOL     OW25967   1.402   2.259   7.840
 5323SOL    HW125968   1.443   2.277   7.751
 5323SOL    HW225969   1.468   2.210   7.898
 5324SOL     OW25970   5.145   5.179   6.723
 5324SOL    HW125971   5.066   5.210   6.671
 5324SOL    HW225972   5.217   5.149   6.660
 5325SOL     OW25973   1.310   7.250   0.733
 5325SOL    HW125974   1.333   7.243   0.636
 5325SOL    HW225975   1.212   7.264   0.744
 5326SOL     OW25976   2.908   0.122   5.830
 5326SOL    HW125977   2.962   0.142   5.911
 5326SOL    HW225978   2.888   0.024   5.826
 5327SOL     OW25979   2.144   6.003   4.206
 5327SOL    HW125980   2.048   5.974   4.205
 5327SOL    HW225981   2.204   5.924   4.192
 5328SOL     OW25982   5.596   5.192   7.731
 5328SOL    HW125983   5.693   5.209   7.713
 5328SOL    HW225984   5.541   5.224   7.654
 5329SOL     OW25985   7.460   6.866   7.692
 5329SOL    HW125986   7.395   6.859   7.617
 5329SOL    HW225987   7.518   6.784   7.695
 5330SOL     OW25988   7.468   6.345   3.308
 5330SOL    HW125989   7.382   6.299   3.286
 5330SOL    HW225990   7.482   6.346   3.407
 5331SOL     OW25991   5.006   0.939   4.129
 5331SOL    HW125992   5.006   0.841   4.151
 5331SOL    HW225993   5.024   0.951   4.031
 5332SOL     OW25994   3.577   5.963   2.693
 5332SOL    HW125995   3.537   5.893   2.753
 5332SOL    HW225996   3.505   6.014   2.646
 5333SOL     OW25997   4.411   7.381   6.851
 5333SOL    HW125998   4.409   7.455   6.784
 5333SOL    HW225999   4.393   7.416   6.943
 5334SOL     OW26000   1.813   3.721   1.204
 5334SOL    HW126001   1.895   3.693   1.253
 5334SOL    HW226002   1.833   3.736   1.108
 5335SOL     OW26003   7.202   4.784   6.552
 5335SOL    HW126004   7.255   4.699   6.548
 5335SOL    HW226005   7.211   4.834   6.465
 5336SOL     OW26006   6.636   2.778   4.357
 5336SOL    HW126007   6.659   2.774   4.454
 5336SOL    HW226008   6.537   2.780   4.345
 5337SOL     OW26009   2.366   1.150   6.674
 5337SOL    HW126010   2.342   1.191   6.586
 5337SOL    HW226011   2.298   1.175   6.743
 5338SOL     OW26012   2.044   2.053   4.360
 5338SOL    HW126013   1.987   2.030   4.439
 5338SOL    HW226014   1.992   2.112   4.298
 5339SOL     OW26015   7.934   6.922   6.579
 5339SOL    HW126016   7.973   7.014   6.581
 5339SOL    HW226017   7.902   6.896   6.670
 5340SOL     OW26018   2.580   1.960   7.806
 5340SOL    HW126019   2.509   1.960   7.877
 5340SOL    HW226020   2.570   2.041   7.749
 5341SOL     OW26021   7.269   2.511   3.822
 5341SOL    HW126022   7.301   2.598   3.861
 5341SOL    HW226023   7.231   2.528   3.731
 5342SOL     OW26024   5.442   5.215   7.168
 5342SOL    HW126025   5.505   5.141   7.189
 5342SOL    HW226026   5.480   5.273   7.096
 5343SOL     OW26027   5.793   6.329   7.238
 5343SOL    HW126028   5.722   6.335   7.308
 5343SOL    HW226029   5.778   6.399   7.168
 5344SOL     OW26030   0.870   6.415   5.539
 5344SOL    HW126031   0.796   6.451   5.481
 5344SOL    HW226032   0.919   6.491   5.582
 5345SOL     OW26033   5.903   1.591   6.679
 5345SOL    HW126034   5.841   1.547   6.744
 5345SOL    HW226035   5.856   1.667   6.633
 5346SOL     OW26036   0.577   3.847   4.174
 5346SOL    HW126037   0.664   3.891   4.153
 5346SOL    HW226038   0.592   3.773   4.240
 5347SOL     OW26039   0.080   5.141   5.956
 5347SOL    HW126040  -0.000   5.102   6.001
 5347SOL    HW226041   0.141   5.069   5.925
 5348SOL     OW26042   1.423   2.602   4.605
 5348SOL    HW126043   1.472   2.634   4.686
 5348SOL    HW226044   1.440   2.505   4.591
 5349SOL     OW26045   7.611   3.195   4.703
 5349SOL    HW126046   7.620   3.108   4.654
 5349SOL    HW226047   7.681   3.259   4.670
 5350SOL     OW26048   1.010   2.175   1.885
 5350SOL    HW126049   1.088   2.237   1.890
 5350SOL    HW226050   0.968   2.181   1.794
 5351SOL     OW26051   5.368   2.515   0.344
 5351SOL    HW126052   5.308   2.476   0.414
 5351SOL    HW226053   5.440   2.450   0.321
 5352SOL     OW26054   3.190   0.547   4.429
 5352SOL    HW126055   3.131   0.524   4.351
 5352SOL    HW226056   3.175   0.482   4.503
 5353SOL     OW26057   0.844   6.275   6.918
 5353SOL    HW126058   0.854   6.356   6.976
 5353SOL    HW226059   0.882   6.195   6.964
 5354SOL     OW26060   1.489   6.043   4.309
 5354SOL    HW126061   1.465   6.120   4.249
 5354SOL    HW226062   1.433   5.964   4.287
 5355SOL     OW26063   7.855   2.021   5.129
 5355SOL    HW126064   7.866   2.105   5.076
 5355SOL    HW226065   7.943   1.993   5.167
 5356SOL     OW26066   7.840   6.517   4.626
 5356SOL    HW126067   7.832   6.603   4.677
 5356SOL    HW226068   7.777   6.518   4.548
 5357SOL     OW26069   1.263   4.956   0.734
 5357SOL    HW126070   1.293   4.979   0.827
 5357SOL    HW226071   1.230   5.037   0.687
 5358SOL     OW26072   7.489   0.197   6.366
 5358SOL    HW126073   7.403   0.147   6.376
 5358SOL    HW226074   7.481   0.266   6.294
 5359SOL     OW26075   3.030   5.626   0.688
 5359SOL    HW126076   2.947   5.679   0.668
 5359SOL    HW226077   3.073   5.660   0.771
 5360SOL     OW26078   7.953   1.585   2.063
 5360SOL    HW126079   7.854   1.570   2.059
 5360SOL    HW226080   7.977   1.625   2.151
 5361SOL     OW26081   7.571   6.832   7.446
 5361SOL    HW126082   7.520   6.913   7.416
 5361SOL    HW226083   7.509   6.755   7.460
 5362SOL     OW26084   2.902   7.926   2.089
 5362SOL    HW126085   2.872   7.960   1.999
 5362SOL    HW226086   2.931   7.831   2.081
 5363SOL     OW26087   4.356   7.471   6.382
 5363SOL    HW126088   4.340   7.420   6.467
 5363SOL    HW226089   4.293   7.439   6.311
 5364SOL     OW26090   2.834   7.746   7.203
 5364SOL    HW126091   2.844   7.679   7.278
 5364SOL    HW226092   2.910   7.811   7.206
 5365SOL     OW26093   2.578   4.821   4.588
 5365SOL    HW126094   2.664   4.777   4.615
 5365SOL    HW226095   2.502   4.783   4.640
 5366SOL     OW26096   1.922   5.756   4.666
 5366SOL    HW126097   1.879   5.687   4.724
 5366SOL    HW226098   2.018   5.733   4.652
 5367SOL     OW26099   1.846   6.348   7.974
 5367SOL    HW126100   1.831   6.438   7.932
 5367SOL    HW226101   1.909   6.295   7.918
 5368SOL     OW26102   7.524   5.427   2.467
 5368SOL    HW126103   7.505   5.330   2.486
 5368SOL    HW226104   7.598   5.434   2.400
 5369SOL     OW26105   1.754   5.874   5.134
 5369SOL    HW126106   1.711   5.790   5.101
 5369SOL    HW226107   1.779   5.864   5.230
 5370SOL     OW26108   6.723   3.123   2.478
 5370SOL    HW126109   6.722   3.028   2.509
 5370SOL    HW226110   6.765   3.130   2.388
 5371SOL     OW26111   4.724   4.043   2.907
 5371SOL    HW126112   4.676   4.131   2.901
 5371SOL    HW226113   4.806   4.052   2.963
 5372SOL     OW26114   4.661   1.525   4.031
 5372SOL    HW126115   4.678   1.530   3.932
 5372SOL    HW226116   4.576   1.476   4.049
 5373SOL     OW26117   6.285   6.845   1.565
 5373SOL    HW126118   6.202   6.797   1.592
 5373SOL    HW226119   6.279   6.873   1.469
 5374SOL     OW26120   2.783   0.223   1.344
 5374SOL    HW126121   2.717   0.238   1.418
 5374SOL    HW226122   2.812   0.127   1.344
 5375SOL     OW26123   5.857   0.905   6.689
 5375SOL    HW126124   5.898   0.874   6.775
 5375SOL    HW226125   5.819   0.997   6.701
 5376SOL     OW26126   1.030   0.863   6.911
 5376SOL    HW126127   1.102   0.930   6.893
 5376SOL    HW226128   1.037   0.787   6.846
 5377SOL     OW26129   5.006   0.122   1.393
 5377SOL    HW126130   4.972   0.038   1.435
 5377SOL    HW226131   4.981   0.124   1.296
 5378SOL     OW26132   0.843   0.195   4.462
 5378SOL    HW126133   0.775   0.181   4.389
 5378SOL    HW226134   0.853   0.292   4.480
 5379SOL     OW26135   6.224   4.205   4.543
 5379SOL    HW126136   6.158   4.131   4.530
 5379SOL    HW226137   6.251   4.243   4.455
 5380SOL     OW26138   2.452   2.186   3.979
 5380SOL    HW126139   2.510   2.105   3.989
 5380SOL    HW226140   2.368   2.173   4.031
 5381SOL     OW26141   0.477   6.352   6.323
 5381SOL    HW126142   0.556   6.313   6.275
 5381SOL    HW226143   0.393   6.310   6.288
 5382SOL     OW26144   7.819   5.621   1.217
 5382SOL    HW126145   7.899   5.571   1.186
 5382SOL    HW226146   7.838   5.666   1.304
 5383SOL     OW26147   7.450   6.715   2.242
 5383SOL    HW126148   7.362   6.736   2.200
 5383SOL    HW226149   7.443   6.722   2.342
 5384SOL     OW26150   7.452   1.016   5.305
 5384SOL    HW126151   7.432   1.016   5.207
 5384SOL    HW226152   7.378   1.060   5.356
 5385SOL     OW26153   5.264   3.460   2.216
 5385SOL    HW126154   5.287   3.368   2.247
 5385SOL    HW226155   5.204   3.505   2.282
 5386SOL     OW26156   3.901   3.606   6.131
 5386SOL    HW126157   3.930   3.660   6.210
 5386SOL    HW226158   3.972   3.608   6.061
 5387SOL     OW26159   3.811   7.722   2.292
 5387SOL    HW126160   3.827   7.804   2.238
 5387SOL    HW226161   3.713   7.701   2.295
 5388SOL     OW26162   4.607   6.275   0.970
 5388SOL    HW126163   4.533   6.207   0.964
 5388SOL    HW226164   4.688   6.233   1.011
 5389SOL     OW26165   4.623   6.320   1.281
 5389SOL    HW126166   4.716   6.347   1.309
 5389SOL    HW226167   4.628   6.235   1.229
 5390SOL     OW26168   2.108   7.863   3.753
 5390SOL    HW126169   2.135   7.905   3.667
 5390SOL    HW226170   2.151   7.909   3.830
 5391SOL     OW26171   0.928   4.862   6.689
 5391SOL    HW126172   0.829   4.852   6.699
 5391SOL    HW226173   0.957   4.952   6.720
 5392SOL     OW26174   0.226   6.999   1.248
 5392SOL    HW126175   0.256   7.064   1.318
 5392SOL    HW226176   0.302   6.940   1.221
 5393SOL     OW26177   6.328   3.530   2.642
 5393SOL    HW126178   6.304   3.585   2.722
 5393SOL    HW226179   6.336   3.434   2.667
 5394SOL     OW26180   0.965   2.019   2.225
 5394SOL    HW126181   0.906   1.965   2.164
 5394SOL    HW226182   0.958   1.984   2.318
 5395SOL     OW26183   2.971   2.434   6.819
 5395SOL    HW126184   2.999   2.529   6.833
 5395SOL    HW226185   3.037   2.387   6.760
 5396SOL     OW26186   1.641   0.216   5.782
 5396SOL    HW126187   1.558   0.268   5.804
 5396SOL    HW226188   1.640   0.190   5.686
 5397SOL     OW26189   4.239   4.960   3.634
 5397SOL    HW126190   4.197   5.043   3.671
 5397SOL    HW226191   4.281   4.907   3.708
 5398SOL     OW26192   0.587   3.866   6.420
 5398SOL    HW126193   0.564   3.964   6.413
 5398SOL    HW226194   0.615   3.844   6.513
 5399SOL     OW26195   7.673   5.148   7.024
 5399SOL    HW126196   7.712   5.212   7.090
 5399SOL    HW226197   7.718   5.059   7.033
 5400SOL     OW26198   5.633   4.351   4.190
 5400SOL    HW126199   5.721   4.355   4.142
 5400SOL    HW226200   5.588   4.264   4.171
 5401SOL     OW26201   2.566   6.879   6.370
 5401SOL    HW126202   2.647   6.827   6.396
 5401SOL    HW226203   2.578   6.975   6.394
 5402SOL     OW26204   0.080   2.139   5.010
 5402SOL    HW126205   0.064   2.205   5.084
 5402SOL    HW226206   0.086   2.047   5.047
 5403SOL     OW26207   6.684   3.222   4.642
 5403SOL    HW126208   6.665   3.132   4.683
 5403SOL    HW226209   6.778   3.248   4.660
 5404SOL     OW26210   7.624   6.973   5.391
 5404SOL    HW126211   7.577   6.886   5.404
 5404SOL    HW226212   7.652   6.984   5.296
 5405SOL     OW26213   4.211   5.410   4.276
 5405SOL    HW126214   4.266   5.332   4.306
 5405SOL    HW226215   4.270   5.486   4.250
 5406SOL     OW26216   0.202   4.261   4.585
 5406SOL    HW126217   0.124   4.321   4.604
 5406SOL    HW226218   0.287   4.308   4.610
 5407SOL     OW26219   3.257   5.573   5.743
 5407SOL    HW126220   3.243   5.481   5.707
 5407SOL    HW226221   3.224   5.578   5.837
 5408SOL     OW26222   6.563   0.841   0.480
 5408SOL    HW126223   6.484   0.794   0.520
 5408SOL    HW226224   6.532   0.920   0.427
 5409SOL     OW26225   1.482   5.719   4.120
 5409SOL    HW126226   1.401   5.665   4.095
 5409SOL    HW226227   1.476   5.747   4.215
 5410SOL     OW26228   0.538   1.759   6.881
 5410SOL    HW126229   0.500   1.693   6.946
 5410SOL    HW226230   0.563   1.712   6.796
 5411SOL     OW26231   5.801   7.869   3.643
 5411SOL    HW126232   5.890   7.907   3.672
 5411SOL    HW226233   5.766   7.807   3.713
 5412SOL     OW26234   4.882   3.252   7.431
 5412SOL    HW126235   4.795   3.266   7.480
 5412SOL    HW226236   4.956   3.236   7.496
 5413SOL     OW26237   6.108   6.498   3.261
 5413SOL    HW126238   6.097   6.425   3.194
 5413SOL    HW226239   6.029   6.499   3.323
 5414SOL     OW26240   6.277   3.485   4.119
 5414SOL    HW126241   6.316   3.541   4.192
 5414SOL    HW226242   6.213   3.539   4.065
 5415SOL     OW26243   0.069   6.425   0.891
 5415SOL    HW126244   0.073   6.330   0.860
 5415SOL    HW226245   0.053   6.486   0.812
 5416SOL     OW26246   0.335   6.134   6.050
 5416SOL    HW126247   0.349   6.118   6.148
 5416SOL    HW226248   0.391   6.211   6.020
 5417SOL     OW26249   1.963   2.466   6.348
 5417SOL    HW126250   2.021   2.427   6.420
 5417SOL    HW226251   2.017   2.480   6.265
 5418SOL     OW26252   2.309   5.554   6.998
 5418SOL    HW126253   2.366   5.608   6.936
 5418SOL    HW226254   2.220   5.598   7.009
 5419SOL     OW26255   1.712   4.488   0.897
 5419SOL    HW126256   1.621   4.459   0.869
 5419SOL    HW226257   1.708   4.582   0.932
 5420SOL     OW26258   7.426   2.829   1.431
 5420SOL    HW126259   7.441   2.810   1.333
 5420SOL    HW226260   7.495   2.893   1.464
 5421SOL     OW26261   4.296   5.380   2.726
 5421SOL    HW126262   4.244   5.333   2.654
 5421SOL    HW226263   4.386   5.407   2.691
 5422SOL     OW26264   3.649   0.406   1.866
 5422SOL    HW126265   3.703   0.331   1.905
 5422SOL    HW226266   3.686   0.431   1.776
 5423SOL     OW26267   3.862   1.606   2.401
 5423SOL    HW126268   3.855   1.704   2.380
 5423SOL    HW226269   3.927   1.563   2.338
 5424SOL     OW26270   1.574   6.677   2.336
 5424SOL    HW126271   1.485   6.646   2.371
 5424SOL    HW226272   1.588   6.643   2.243
 5425SOL     OW26273   2.724   2.463   0.082
 5425SOL    HW126274   2.793   2.462   0.155
 5425SOL    HW226275   2.651   2.528   0.105
 5426SOL     OW26276   3.431   4.952   7.664
 5426SOL    HW126277   3.395   4.902   7.742
 5426SOL    HW226278   3.414   5.050   7.675
 5427SOL     OW26279   2.489   7.852   2.890
 5427SOL    HW126280   2.445   7.902   2.815
 5427SOL    HW226281   2.478   7.901   2.976
 5428SOL     OW26282   1.003   1.860   2.567
 5428SOL    HW126283   0.992   1.768   2.604
 5428SOL    HW226284   1.043   1.855   2.475
 5429SOL     OW26285   1.432   7.561   2.847
 5429SOL    HW126286   1.334   7.554   2.866
 5429SOL    HW226287   1.483   7.501   2.908
 5430SOL     OW26288   6.359   2.272   1.696
 5430SOL    HW126289   6.372   2.320   1.783
 5430SOL    HW226290   6.402   2.324   1.622
 5431SOL     OW26291   4.149   7.424   1.774
 5431SOL    HW126292   4.180   7.468   1.689
 5431SOL    HW226293   4.128   7.328   1.756
 5432SOL     OW26294   6.176   5.660   5.168
 5432SOL    HW126295   6.211   5.753   5.176
 5432SOL    HW226296   6.225   5.600   5.232
 5433SOL     OW26297   1.760   2.026   1.867
 5433SOL    HW126298   1.854   2.059   1.852
 5433SOL    HW226299   1.742   1.948   1.808
 5434SOL     OW26300   1.472   2.709   3.072
 5434SOL    HW126301   1.443   2.805   3.066
 5434SOL    HW226302   1.515   2.681   2.986
 5435SOL     OW26303   0.361   1.387   5.371
 5435SOL    HW126304   0.339   1.465   5.313
 5435SOL    HW226305   0.396   1.312   5.315
 5436SOL     OW26306   4.689   6.530   7.919
 5436SOL    HW126307   4.597   6.505   7.948
 5436SOL    HW226308   4.686   6.609   7.858
 5437SOL     OW26309   1.622   3.660   4.164
 5437SOL    HW126310   1.594   3.603   4.241
 5437SOL    HW226311   1.711   3.702   4.183
 5438SOL     OW26312   0.414   2.540   5.572
 5438SOL    HW126313   0.324   2.553   5.530
 5438SOL    HW226314   0.412   2.572   5.667
 5439SOL     OW26315   3.148   1.885   4.558
 5439SOL    HW126316   3.202   1.943   4.496
 5439SOL    HW226317   3.051   1.906   4.548
 5440SOL     OW26318   2.860   3.261   2.324
 5440SOL    HW126319   2.811   3.207   2.392
 5440SOL    HW226320   2.949   3.220   2.305
 5441SOL     OW26321   4.983   3.148   6.113
 5441SOL    HW126322   4.902   3.168   6.168
 5441SOL    HW226323   5.064   3.146   6.170
 5442SOL     OW26324   3.977   1.134   5.454
 5442SOL    HW126325   3.983   1.230   5.427
 5442SOL    HW226326   4.029   1.119   5.539
 5443SOL     OW26327   3.302   7.662   1.273
 5443SOL    HW126328   3.393   7.672   1.312
 5443SOL    HW226329   3.295   7.578   1.220
 5444SOL     OW26330   7.607   3.901   2.239
 5444SOL    HW126331   7.663   3.851   2.305
 5444SOL    HW226332   7.576   3.841   2.166
 5445SOL     OW26333   5.657   1.166   1.392
 5445SOL    HW126334   5.703   1.085   1.357
 5445SOL    HW226335   5.560   1.163   1.370
 5446SOL     OW26336   3.607   2.461   4.045
 5446SOL    HW126337   3.685   2.494   3.991
 5446SOL    HW226338   3.627   2.471   4.143
 5447SOL     OW26339   2.850   0.535   1.161
 5447SOL    HW126340   2.886   0.443   1.148
 5447SOL    HW226341   2.834   0.553   1.258
 5448SOL     OW26342   4.851   1.814   2.184
 5448SOL    HW126343   4.899   1.750   2.123
 5448SOL    HW226344   4.800   1.763   2.253
 5449SOL     OW26345   0.419   6.620   4.874
 5449SOL    HW126346   0.398   6.523   4.863
 5449SOL    HW226347   0.456   6.657   4.789
 5450SOL     OW26348   4.200   6.244   0.769
 5450SOL    HW126349   4.159   6.237   0.859
 5450SOL    HW226350   4.260   6.324   0.764
 5451SOL     OW26351   7.059   4.253   1.105
 5451SOL    HW126352   7.118   4.322   1.061
 5451SOL    HW226353   7.087   4.162   1.076
 5452SOL     OW26354   4.093   0.834   2.535
 5452SOL    HW126355   4.119   0.876   2.623
 5452SOL    HW226356   4.039   0.898   2.481
 5453SOL     OW26357   7.231   4.956   3.148
 5453SOL    HW126358   7.261   4.861   3.141
 5453SOL    HW226359   7.246   4.989   3.241
 5454SOL     OW26360   5.061   2.928   1.057
 5454SOL    HW126361   5.027   2.990   0.986
 5454SOL    HW226362   4.989   2.910   1.124
 5455SOL     OW26363   6.527   3.056   3.957
 5455SOL    HW126364   6.500   3.034   4.051
 5455SOL    HW226365   6.484   3.142   3.928
 5456SOL     OW26366   2.972   6.187   7.363
 5456SOL    HW126367   3.041   6.198   7.292
 5456SOL    HW226368   3.015   6.183   7.453
 5457SOL     OW26369   6.835   2.775   0.407
 5457SOL    HW126370   6.933   2.753   0.414
 5457SOL    HW226371   6.795   2.727   0.329
 5458SOL     OW26372   6.254   4.233   1.138
 5458SOL    HW126373   6.326   4.189   1.083
 5458SOL    HW226374   6.273   4.220   1.235
 5459SOL     OW26375   0.594   0.277   2.189
 5459SOL    HW126376   0.612   0.185   2.224
 5459SOL    HW226377   0.626   0.285   2.095
 5460SOL     OW26378   5.391   3.930   3.555
 5460SOL    HW126379   5.438   4.001   3.607
 5460SOL    HW226380   5.292   3.935   3.571
 5461SOL     OW26381   0.070   2.691   0.754
 5461SOL    HW126382   0.071   2.779   0.707
 5461SOL    HW226383   0.076   2.706   0.853
 5462SOL     OW26384   1.824   6.169   0.410
 5462SOL    HW126385   1.730   6.146   0.387
 5462SOL    HW226386   1.832   6.189   0.507
 5463SOL     OW26387   5.497   6.812   1.105
 5463SOL    HW126388   5.463   6.755   1.031
 5463SOL    HW226389   5.597   6.814   1.105
 5464SOL     OW26390   7.576   6.011   2.817
 5464SOL    HW126391   7.634   6.087   2.844
 5464SOL    HW226392   7.615   5.925   2.849
 5465SOL     OW26393   3.963   6.365   2.115
 5465SOL    HW126394   4.055   6.385   2.148
 5465SOL    HW226395   3.950   6.404   2.024
 5466SOL     OW26396   0.936   4.476   1.218
 5466SOL    HW126397   0.876   4.526   1.156
 5466SOL    HW226398   0.882   4.436   1.293
 5467SOL     OW26399   7.074   2.908   0.641
 5467SOL    HW126400   7.032   2.831   0.594
 5467SOL    HW226401   7.171   2.915   0.616
 5468SOL     OW26402   5.235   1.138   7.733
 5468SOL    HW126403   5.185   1.098   7.810
 5468SOL    HW226404   5.199   1.104   7.647
 5469SOL     OW26405   4.352   3.118   6.852
 5469SOL    HW126406   4.295   3.039   6.872
 5469SOL    HW226407   4.389   3.112   6.760
 5470SOL     OW26408   0.391   3.955   0.764
 5470SOL    HW126409   0.348   4.041   0.734
 5470SOL    HW226410   0.350   3.925   0.850
 5471SOL     OW26411   1.649   2.051   4.017
 5471SOL    HW126412   1.734   2.024   3.972
 5471SOL    HW226413   1.631   1.993   4.096
 5472SOL     OW26414   3.426   6.565   7.525
 5472SOL    HW126415   3.517   6.584   7.488
 5472SOL    HW226416   3.433   6.528   7.617
 5473SOL     OW26417   4.756   3.712   3.319
 5473SOL    HW126418   4.834   3.752   3.368
 5473SOL    HW226419   4.671   3.740   3.364
 5474SOL     OW26420   3.552   2.625   1.065
 5474SOL    HW126421   3.592   2.675   1.142
 5474SOL    HW226422   3.557   2.527   1.082
 5475SOL     OW26423   5.857   7.429   5.821
 5475SOL    HW126424   5.885   7.346   5.869
 5475SOL    HW226425   5.878   7.419   5.723
 5476SOL     OW26426   3.452   8.000   4.434
 5476SOL    HW126427   3.551   7.996   4.426
 5476SOL    HW226428   3.410   7.999   4.343
 5477SOL     OW26429   0.589   6.235   7.883
 5477SOL    HW126430   0.618   6.329   7.867
 5477SOL    HW226431   0.496   6.233   7.919
 5478SOL     OW26432   4.665   6.194   4.144
 5478SOL    HW126433   4.707   6.233   4.062
 5478SOL    HW226434   4.615   6.111   4.120
 5479SOL     OW26435   6.077   3.895   5.134
 5479SOL    HW126436   6.089   3.909   5.036
 5479SOL    HW226437   6.027   3.810   5.151
 5480SOL     OW26438   1.942   7.149   3.869
 5480SOL    HW126439   1.852   7.177   3.838
 5480SOL    HW226440   1.954   7.171   3.966
 5481SOL     OW26441   5.636   2.661   2.981
 5481SOL    HW126442   5.715   2.632   3.034
 5481SOL    HW226443   5.570   2.586   2.974
 5482SOL     OW26444   1.449   6.426   7.505
 5482SOL    HW126445   1.543   6.404   7.477
 5482SOL    HW226446   1.400   6.342   7.529
 5483SOL     OW26447   4.196   7.820   0.167
 5483SOL    HW126448   4.225   7.766   0.246
 5483SOL    HW226449   4.225   7.776   0.083
 5484SOL     OW26450   6.036   0.735   1.286
 5484SOL    HW126451   5.997   0.770   1.372
 5484SOL    HW226452   6.021   0.801   1.213
 5485SOL     OW26453   5.330   2.245   1.535
 5485SOL    HW126454   5.241   2.219   1.496
 5485SOL    HW226455   5.386   2.164   1.549
 5486SOL     OW26456   4.960   7.219   5.901
 5486SOL    HW126457   4.896   7.143   5.894
 5486SOL    HW226458   5.030   7.211   5.830
 5487SOL     OW26459   0.179   1.927   6.484
 5487SOL    HW126460   0.250   1.954   6.549
 5487SOL    HW226461   0.096   1.899   6.533
 5488SOL     OW26462   4.566   4.005   0.206
 5488SOL    HW126463   4.470   3.987   0.230
 5488SOL    HW226464   4.613   4.045   0.285
 5489SOL     OW26465   4.551   7.466   1.517
 5489SOL    HW126466   4.593   7.380   1.487
 5489SOL    HW226467   4.613   7.515   1.577
 5490SOL     OW26468   7.182   2.832   1.068
 5490SOL    HW126469   7.116   2.858   0.997
 5490SOL    HW226470   7.256   2.780   1.028
 5491SOL     OW26471   5.464   3.594   0.721
 5491SOL    HW126472   5.396   3.667   0.713
 5491SOL    HW226473   5.474   3.548   0.633
 5492SOL     OW26474   2.408   7.873   5.796
 5492SOL    HW126475   2.470   7.939   5.753
 5492SOL    HW226476   2.435   7.856   5.890
 5493SOL     OW26477   2.546   1.590   2.780
 5493SOL    HW126478   2.619   1.645   2.822
 5493SOL    HW226479   2.540   1.610   2.683
 5494SOL     OW26480   3.615   5.748   1.251
 5494SOL    HW126481   3.587   5.843   1.265
 5494SOL    HW226482   3.666   5.715   1.331
 5495SOL     OW26483   2.680   7.883   1.320
 5495SOL    HW126484   2.624   7.893   1.402
 5495SOL    HW226485   2.622   7.889   1.239
 5496SOL     OW26486   7.509   7.220   6.737
 5496SOL    HW126487   7.493   7.121   6.735
 5496SOL    HW226488   7.605   7.240   6.716
 5497SOL     OW26489   5.898   7.512   0.669
 5497SOL    HW126490   5.862   7.461   0.591
 5497SOL    HW226491   5.862   7.606   0.668
 5498SOL     OW26492   4.167   0.198   4.863
 5498SOL    HW126493   4.235   0.259   4.904
 5498SOL    HW226494   4.155   0.219   4.766
 5499SOL     OW26495   6.351   6.766   5.486
 5499SOL    HW126496   6.271   6.758   5.426
 5499SOL    HW226497   6.321   6.785   5.579
 5500SOL     OW26498   0.261   6.408   1.053
 5500SOL    HW126499   0.310   6.394   0.967
 5500SOL    HW226500   0.299   6.349   1.125
 5501SOL     OW26501   4.636   2.255   1.663
 5501SOL    HW126502   4.641   2.192   1.740
 5501SOL    HW226503   4.608   2.206   1.581
 5502SOL     OW26504   3.043   6.710   7.976
 5502SOL    HW126505   3.136   6.682   8.000
 5502SOL    HW226506   3.042   6.750   7.884
 5503SOL     OW26507   0.730   1.421   0.374
 5503SOL    HW126508   0.796   1.351   0.347
 5503SOL    HW226509   0.654   1.379   0.422
 5504SOL     OW26510   1.086   6.328   6.242
 5504SOL    HW126511   1.038   6.397   6.296
 5504SOL    HW226512   1.122   6.257   6.303
 5505SOL     OW26513   5.816   5.622   5.470
 5505SOL    HW126514   5.879   5.653   5.541
 5505SOL    HW226515   5.725   5.659   5.486
 5506SOL     OW26516   3.705   1.045   1.179
 5506SOL    HW126517   3.621   1.010   1.220
 5506SOL    HW226518   3.758   1.095   1.247
 5507SOL     OW26519   4.002   0.324   1.785
 5507SOL    HW126520   4.019   0.259   1.858
 5507SOL    HW226521   3.981   0.414   1.823
 5508SOL     OW26522   6.792   3.772   6.822
 5508SOL    HW126523   6.751   3.839   6.760
 5508SOL    HW226524   6.775   3.679   6.788
 5509SOL     OW26525   1.635   4.517   4.850
 5509SOL    HW126526   1.569   4.442   4.854
 5509SOL    HW226527   1.595   4.595   4.802
 5510SOL     OW26528   6.055   4.789   2.825
 5510SOL    HW126529   6.053   4.801   2.726
 5510SOL    HW226530   5.964   4.805   2.864
 5511SOL     OW26531   7.839   6.587   6.363
 5511SOL    HW126532   7.795   6.536   6.289
 5511SOL    HW226533   7.845   6.530   6.445
 5512SOL     OW26534   6.863   7.620   5.924
 5512SOL    HW126535   6.773   7.610   5.967
 5512SOL    HW226536   6.857   7.682   5.846
 5513SOL     OW26537   7.565   5.925   7.291
 5513SOL    HW126538   7.472   5.926   7.253
 5513SOL    HW226539   7.564   5.955   7.386
 5514SOL     OW26540   3.170   6.102   1.005
 5514SOL    HW126541   3.182   6.189   1.052
 5514SOL    HW226542   3.145   6.118   0.909
 5515SOL     OW26543   2.214   5.894   7.414
 5515SOL    HW126544   2.312   5.891   7.431
 5515SOL    HW226545   2.195   5.942   7.329
 5516SOL     OW26546   1.413   3.581   3.745
 5516SOL    HW126547   1.433   3.679   3.757
 5516SOL    HW226548   1.321   3.569   3.710
 5517SOL     OW26549   3.331   7.163   6.432
 5517SOL    HW126550   3.404   7.162   6.500
 5517SOL    HW226551   3.294   7.071   6.421
 5518SOL     OW26552   2.151   2.702   5.659
 5518SOL    HW126553   2.124   2.607   5.649
 5518SOL    HW226554   2.119   2.738   5.747
 5519SOL     OW26555   0.042   3.950   5.380
 5519SOL    HW126556   0.003   4.040   5.400
 5519SOL    HW226557   0.123   3.959   5.322
 5520SOL     OW26558   3.666   3.966   0.973
 5520SOL    HW126559   3.704   3.896   1.034
 5520SOL    HW226560   3.610   4.030   1.024
 5521SOL     OW26561   3.568   6.317   4.890
 5521SOL    HW126562   3.498   6.289   4.824
 5521SOL    HW226563   3.653   6.336   4.843
 5522SOL     OW26564   5.008   0.955   1.029
 5522SOL    HW126565   5.068   0.877   1.047
 5522SOL    HW226566   5.010   0.977   0.931
 5523SOL     OW26567   2.100   4.514   1.324
 5523SOL    HW126568   2.041   4.443   1.285
 5523SOL    HW226569   2.068   4.537   1.416
 5524SOL     OW26570   3.976   5.977   4.022
 5524SOL    HW126571   3.896   6.033   3.998
 5524SOL    HW226572   4.002   5.995   4.116
 5525SOL     OW26573   7.781   4.879   4.796
 5525SOL    HW126574   7.805   4.962   4.745
 5525SOL    HW226575   7.743   4.811   4.734
 5526SOL     OW26576   2.030   4.169   5.426
 5526SOL    HW126577   2.003   4.146   5.332
 5526SOL    HW226578   2.102   4.107   5.457
 5527SOL     OW26579   6.929   6.535   1.084
 5527SOL    HW126580   6.904   6.439   1.078
 5527SOL    HW226581   7.028   6.545   1.072
 5528SOL     OW26582   5.204   1.476   3.045
 5528SOL    HW126583   5.157   1.535   3.111
 5528SOL    HW226584   5.143   1.453   2.970
 5529SOL     OW26585   4.943   1.232   1.703
 5529SOL    HW126586   5.018   1.174   1.736
 5529SOL    HW226587   4.917   1.203   1.611
 5530SOL     OW26588   5.501   2.411   2.704
 5530SOL    HW126589   5.426   2.477   2.698
 5530SOL    HW226590   5.482   2.345   2.776
 5531SOL     OW26591   4.215   1.499   7.087
 5531SOL    HW126592   4.199   1.401   7.104
 5531SOL    HW226593   4.273   1.536   7.160
 5532SOL     OW26594   2.996   4.386   4.446
 5532SOL    HW126595   3.066   4.447   4.409
 5532SOL    HW226596   3.033   4.293   4.454
 5533SOL     OW26597   4.155   6.148   0.143
 5533SOL    HW126598   4.169   6.062   0.095
 5533SOL    HW226599   4.186   6.139   0.238
 5534SOL     OW26600   1.064   6.566   0.459
 5534SOL    HW126601   1.086   6.664   0.459
 5534SOL    HW226602   1.059   6.532   0.365
 5535SOL     OW26603   1.539   1.277   2.577
 5535SOL    HW126604   1.498   1.186   2.579
 5535SOL    HW226605   1.488   1.339   2.635
 5536SOL     OW26606   4.556   4.844   7.747
 5536SOL    HW126607   4.641   4.812   7.787
 5536SOL    HW226608   4.481   4.836   7.813
 5537SOL     OW26609   3.156   3.267   5.309
 5537SOL    HW126610   3.241   3.243   5.262
 5537SOL    HW226611   3.155   3.227   5.400
 5538SOL     OW26612   6.405   7.739   2.173
 5538SOL    HW126613   6.467   7.666   2.205
 5538SOL    HW226614   6.454   7.825   2.164
 5539SOL     OW26615   4.392   4.765   3.836
 5539SOL    HW126616   4.431   4.807   3.918
 5539SOL    HW226617   4.452   4.691   3.804
 5540SOL     OW26618   4.695   0.953   5.342
 5540SOL    HW126619   4.719   0.859   5.316
 5540SOL    HW226620   4.639   0.951   5.424
 5541SOL     OW26621   5.536   0.873   7.070
 5541SOL    HW126622   5.453   0.917   7.104
 5541SOL    HW226623   5.515   0.813   6.993
 5542SOL     OW26624   3.048   0.306   4.539
 5542SOL    HW126625   3.029   0.255   4.456
 5542SOL    HW226626   3.037   0.248   4.620
 5543SOL     OW26627   5.486   0.850   2.312
 5543SOL    HW126628   5.519   0.938   2.279
 5543SOL    HW226629   5.507   0.840   2.409
 5544SOL     OW26630   5.539   6.115   5.911
 5544SOL    HW126631   5.454   6.089   5.958
 5544SOL    HW226632   5.541   6.074   5.820
 5545SOL     OW26633   5.266   0.860   2.928
 5545SOL    HW126634   5.253   0.767   2.960
 5545SOL    HW226635   5.258   0.924   3.004
 5546SOL     OW26636   2.656   0.046   5.332
 5546SOL    HW126637   2.588  -0.000   5.275
 5546SOL    HW226638   2.658   0.144   5.311
 5547SOL     OW26639   2.120   1.314   4.553
 5547SOL    HW126640   2.123   1.293   4.651
 5547SOL    HW226641   2.090   1.409   4.540
 5548SOL     OW26642   7.348   4.206   2.359
 5548SOL    HW126643   7.413   4.163   2.296
 5548SOL    HW226644   7.383   4.294   2.390
 5549SOL     OW26645   3.845   3.317   6.574
 5549SOL    HW126646   3.837   3.239   6.511
 5549SOL    HW226647   3.918   3.378   6.543
 5550SOL     OW26648   6.222   6.302   3.509
 5550SOL    HW126649   6.145   6.297   3.573
 5550SOL    HW226650   6.306   6.275   3.555
 5551SOL     OW26651   5.097   7.939   1.499
 5551SOL    HW126652   5.034   7.867   1.529
 5551SOL    HW226653   5.053   7.998   1.432
 5552SOL     OW26654   5.620   6.353   3.499
 5552SOL    HW126655   5.627   6.446   3.536
 5552SOL    HW226656   5.578   6.355   3.408
 5553SOL     OW26657   3.663   4.588   6.511
 5553SOL    HW126658   3.598   4.527   6.465
 5553SOL    HW226659   3.625   4.619   6.598
 5554SOL     OW26660   5.577   7.146   1.338
 5554SOL    HW126661   5.579   7.155   1.238
 5554SOL    HW226662   5.630   7.220   1.380
 5555SOL     OW26663   5.780   1.934   5.839
 5555SOL    HW126664   5.807   1.982   5.756
 5555SOL    HW226665   5.773   1.998   5.915
 5556SOL     OW26666   1.093   4.507   3.565
 5556SOL    HW126667   1.019   4.469   3.621
 5556SOL    HW226668   1.084   4.474   3.470
 5557SOL     OW26669   7.016   6.933   2.940
 5557SOL    HW126670   6.976   7.024   2.951
 5557SOL    HW226671   7.004   6.880   3.024
 5558SOL     OW26672   0.601   3.634   5.131
 5558SOL    HW126673   0.602   3.669   5.225
 5558SOL    HW226674   0.654   3.694   5.072
 5559SOL     OW26675   2.516   5.865   0.325
 5559SOL    HW126676   2.452   5.790   0.311
 5559SOL    HW226677   2.531   5.914   0.238
 5560SOL     OW26678   6.709   2.617   3.280
 5560SOL    HW126679   6.726   2.710   3.314
 5560SOL    HW226680   6.613   2.609   3.251
 5561SOL     OW26681   1.870   5.139   0.900
 5561SOL    HW126682   1.966   5.164   0.913
 5561SOL    HW226683   1.824   5.209   0.847
 5562SOL     OW26684   5.564   7.841   7.451
 5562SOL    HW126685   5.498   7.780   7.496
 5562SOL    HW226686   5.582   7.809   7.358
 5563SOL     OW26687   6.256   7.602   6.743
 5563SOL    HW126688   6.168   7.571   6.778
 5563SOL    HW226689   6.292   7.675   6.801
 5564SOL     OW26690   5.844   1.998   7.503
 5564SOL    HW126691   5.919   2.037   7.556
 5564SOL    HW226692   5.843   2.038   7.411
 5565SOL     OW26693   4.493   5.688   5.973
 5565SOL    HW126694   4.428   5.748   6.020
 5565SOL    HW226695   4.585   5.728   5.976
 5566SOL     OW26696   3.786   6.612   5.792
 5566SOL    HW126697   3.870   6.604   5.845
 5566SOL    HW226698   3.768   6.526   5.743
 5567SOL     OW26699   5.393   1.055   0.925
 5567SOL    HW126700   5.303   1.017   0.904
 5567SOL    HW226701   5.455   0.982   0.955
 5568SOL     OW26702   4.333   0.415   7.942
 5568SOL    HW126703   4.301   0.325   7.971
 5568SOL    HW226704   4.263   0.484   7.961
 5569SOL     OW26705   6.437   6.432   2.790
 5569SOL    HW126706   6.365   6.386   2.842
 5569SOL    HW226707   6.441   6.397   2.697
 5570SOL     OW26708   6.479   5.260   4.396
 5570SOL    HW126709   6.524   5.184   4.348
 5570SOL    HW226710   6.537   5.292   4.471
 5571SOL     OW26711   1.750   3.863   7.700
 5571SOL    HW126712   1.808   3.940   7.727
 5571SOL    HW226713   1.806   3.784   7.677
 5572SOL     OW26714   4.159   1.780   6.249
 5572SOL    HW126715   4.152   1.875   6.282
 5572SOL    HW226716   4.187   1.720   6.324
 5573SOL     OW26717   1.676   2.928   4.376
 5573SOL    HW126718   1.658   2.838   4.337
 5573SOL    HW226719   1.774   2.940   4.391
 5574SOL     OW26720   4.081   6.935   1.984
 5574SOL    HW126721   4.046   6.850   1.943
 5574SOL    HW226722   4.005   6.986   2.025
 5575SOL     OW26723   1.647   2.422   6.265
 5575SOL    HW126724   1.559   2.374   6.262
 5575SOL    HW226725   1.683   2.423   6.358
 5576SOL     OW26726   3.549   4.385   3.134
 5576SOL    HW126727   3.474   4.369   3.198
 5576SOL    HW226728   3.523   4.353   3.043
 5577SOL     OW26729   7.521   6.978   3.572
 5577SOL    HW126730   7.595   7.044   3.585
 5577SOL    HW226731   7.508   6.960   3.475
 5578SOL     OW26732   5.201   5.957   0.640
 5578SOL    HW126733   5.218   6.052   0.615
 5578SOL    HW226734   5.103   5.942   0.655
 5579SOL     OW26735   3.679   2.153   6.673
 5579SOL    HW126736   3.633   2.242   6.665
 5579SOL    HW226737   3.776   2.166   6.694
 5580SOL     OW26738   1.896   2.325   5.392
 5580SOL    HW126739   1.818   2.387   5.395
 5580SOL    HW226740   1.887   2.263   5.314
 5581SOL     OW26741   4.509   4.946   1.636
 5581SOL    HW126742   4.455   4.999   1.571
 5581SOL    HW226743   4.577   5.004   1.680
 5582SOL     OW26744   2.635   7.614   6.029
 5582SOL    HW126745   2.572   7.542   5.997
 5582SOL    HW226746   2.583   7.696   6.051
 5583SOL     OW26747   5.581   1.856   1.149
 5583SOL    HW126748   5.640   1.789   1.103
 5583SOL    HW226749   5.546   1.818   1.234
 5584SOL     OW26750   6.225   7.381   4.852
 5584SOL    HW126751   6.128   7.403   4.840
 5584SOL    HW226752   6.253   7.312   4.786
 5585SOL     OW26753   0.268   0.791   2.199
 5585SOL    HW126754   0.336   0.864   2.193
 5585SOL    HW226755   0.252   0.752   2.108
 5586SOL     OW26756   6.127   6.614   0.195
 5586SOL    HW126757   6.150   6.699   0.243
 5586SOL    HW226758   6.163   6.535   0.243
 5587SOL     OW26759   2.741   4.734   3.228
 5587SOL    HW126760   2.826   4.769   3.269
 5587SOL    HW226761   2.675   4.808   3.218
 5588SOL     OW26762   5.747   1.469   0.966
 5588SOL    HW126763   5.699   1.456   1.054
 5588SOL    HW226764   5.716   1.554   0.924
 5589SOL     OW26765   4.230   8.000   1.768
 5589SOL    HW126766   4.153   7.936   1.759
 5589SOL    HW226767   4.307   7.968   1.713
 5590SOL     OW26768   7.147   3.684   4.291
 5590SOL    HW126769   7.069   3.740   4.262
 5590SOL    HW226770   7.175   3.710   4.384
 5591SOL     OW26771   4.319   4.333   7.692
 5591SOL    HW126772   4.374   4.261   7.649
 5591SOL    HW226773   4.322   4.324   7.791
 5592SOL     OW26774   5.150   0.960   5.819
 5592SOL    HW126775   5.055   0.967   5.788
 5592SOL    HW226776   5.159   1.002   5.909
 5593SOL     OW26777   4.789   1.073   0.713
 5593SOL    HW126778   4.705   1.043   0.667
 5593SOL    HW226779   4.769   1.097   0.808
 5594SOL     OW26780   2.944   0.479   7.326
 5594SOL    HW126781   2.922   0.567   7.282
 5594SOL    HW226782   3.040   0.456   7.310
 5595SOL     OW26783   7.573   3.643   3.108
 5595SOL    HW126784   7.559   3.742   3.111
 5595SOL    HW226785   7.600   3.615   3.016
 5596SOL     OW26786   4.853   4.448   1.776
 5596SOL    HW126787   4.933   4.446   1.836
 5596SOL    HW226788   4.876   4.490   1.689
 5597SOL     OW26789   5.409   4.721   7.784
 5597SOL    HW126790   5.350   4.699   7.862
 5597SOL    HW226791   5.411   4.820   7.771
 5598SOL     OW26792   5.302   5.377   4.932
 5598SOL    HW126793   5.274   5.466   4.896
 5598SOL    HW226794   5.345   5.388   5.022
 5599SOL     OW26795   7.768   7.211   4.666
 5599SOL    HW126796   7.691   7.213   4.603
 5599SOL    HW226797   7.774   7.297   4.716
 5600SOL     OW26798   1.435   4.370   1.709
 5600SOL    HW126799   1.472   4.456   1.746
 5600SOL    HW226800   1.354   4.343   1.761
 5601SOL     OW26801   4.275   2.247   4.605
 5601SOL    HW126802   4.370   2.277   4.613
 5601SOL    HW226803   4.215   2.327   4.602
 5602SOL     OW26804   2.343   0.334   7.109
 5602SOL    HW126805   2.281   0.267   7.149
 5602SOL    HW226806   2.292   0.409   7.067
 5603SOL     OW26807   5.743   5.584   3.019
 5603SOL    HW126808   5.773   5.667   3.066
 5603SOL    HW226809   5.796   5.506   3.052
 5604SOL     OW26810   6.212   5.758   7.795
 5604SOL    HW126811   6.122   5.714   7.796
 5604SOL    HW226812   6.203   5.854   7.771
 5605SOL     OW26813   1.420   2.034   4.318
 5605SOL    HW126814   1.329   2.072   4.332
 5605SOL    HW226815   1.433   2.011   4.221
 5606SOL     OW26816   7.031   6.269   7.061
 5606SOL    HW126817   7.072   6.349   7.106
 5606SOL    HW226818   6.994   6.295   6.972
 5607SOL     OW26819   5.506   2.982   0.743
 5607SOL    HW126820   5.409   2.995   0.720
 5607SOL    HW226821   5.520   2.994   0.841
 5608SOL     OW26822   0.796   0.114   7.048
 5608SOL    HW126823   0.874   0.168   7.079
 5608SOL    HW226824   0.745   0.164   6.979
 5609SOL     OW26825   2.066   2.533   7.941
 5609SOL    HW126826   2.050   2.476   7.861
 5609SOL    HW226827   2.134   2.489   8.001
 5610SOL     OW26828   7.561   0.516   2.062
 5610SOL    HW126829   7.646   0.479   2.025
 5610SOL    HW226830   7.544   0.478   2.153
 5611SOL     OW26831   2.951   3.644   4.663
 5611SOL    HW126832   2.900   3.583   4.601
 5611SOL    HW226833   2.936   3.615   4.757
 5612SOL     OW26834   1.297   6.007   5.086
 5612SOL    HW126835   1.220   5.964   5.038
 5612SOL    HW226836   1.377   5.948   5.081
 5613SOL     OW26837   1.213   4.260   0.751
 5613SOL    HW126838   1.281   4.302   0.691
 5613SOL    HW226839   1.248   4.254   0.845
 5614SOL     OW26840   6.402   1.141   4.030
 5614SOL    HW126841   6.307   1.123   4.055
 5614SOL    HW226842   6.420   1.109   3.937
 5615SOL     OW26843   4.312   0.412   5.865
 5615SOL    HW126844   4.329   0.425   5.963
 5615SOL    HW226845   4.219   0.378   5.852
 5616SOL     OW26846   4.491   4.605   2.460
 5616SOL    HW126847   4.579   4.557   2.458
 5616SOL    HW226848   4.488   4.675   2.389
 5617SOL     OW26849   1.391   1.611   7.853
 5617SOL    HW126850   1.438   1.530   7.818
 5617SOL    HW226851   1.362   1.595   7.948
 5618SOL     OW26852   7.373   7.530   2.371
 5618SOL    HW126853   7.279   7.536   2.403
 5618SOL    HW226854   7.431   7.592   2.424
 5619SOL     OW26855   2.514   4.676   2.249
 5619SOL    HW126856   2.519   4.583   2.212
 5619SOL    HW226857   2.459   4.675   2.333
 5620SOL     OW26858   4.999   6.845   7.102
 5620SOL    HW126859   5.003   6.939   7.066
 5620SOL    HW226860   4.923   6.796   7.061
 5621SOL     OW26861   2.668   3.431   5.692
 5621SOL    HW126862   2.672   3.521   5.735
 5621SOL    HW226863   2.631   3.439   5.600
 5622SOL     OW26864   4.561   5.336   4.448
 5622SOL    HW126865   4.511   5.258   4.485
 5622SOL    HW226866   4.591   5.317   4.355
 5623SOL     OW26867   2.940   1.485   6.911
 5623SOL    HW126868   2.869   1.456   6.847
 5623SOL    HW226869   2.906   1.561   6.967
 5624SOL     OW26870   7.716   3.733   3.960
 5624SOL    HW126871   7.804   3.692   3.933
 5624SOL    HW226872   7.707   3.823   3.917
 5625SOL     OW26873   5.710   5.176   1.816
 5625SOL    HW126874   5.670   5.227   1.893
 5625SOL    HW226875   5.641   5.115   1.776
 5626SOL     OW26876   4.758   1.206   7.411
 5626SOL    HW126877   4.736   1.252   7.497
 5626SOL    HW226878   4.796   1.271   7.345
 5627SOL     OW26879   1.017   0.224   5.626
 5627SOL    HW126880   0.987   0.318   5.643
 5627SOL    HW226881   1.117   0.219   5.630
 5628SOL     OW26882   3.294   1.890   0.363
 5628SOL    HW126883   3.302   1.934   0.453
 5628SOL    HW226884   3.372   1.914   0.306
 5629SOL     OW26885   4.301   5.802   6.606
 5629SOL    HW126886   4.284   5.900   6.606
 5629SOL    HW226887   4.333   5.773   6.516
 5630SOL     OW26888   2.779   5.692   0.098
 5630SOL    HW126889   2.762   5.596   0.120
 5630SOL    HW226890   2.797   5.701  -0.000
 5631SOL     OW26891   7.394   3.105   7.303
 5631SOL    HW126892   7.314   3.101   7.363
 5631SOL    HW226893   7.368   3.084   7.209
 5632SOL     OW26894   5.636   1.228   7.168
 5632SOL    HW126895   5.716   1.287   7.157
 5632SOL    HW226896   5.615   1.217   7.265
 5633SOL     OW26897   7.563   4.112   5.169
 5633SOL    HW126898   7.531   4.140   5.260
 5633SOL    HW226899   7.609   4.189   5.125
 5634SOL     OW26900   7.872   4.403   2.309
 5634SOL    HW126901   7.825   4.474   2.256
 5634SOL    HW226902   7.886   4.434   2.403
 5635SOL     OW26903   5.901   0.013   4.102
 5635SOL    HW126904   5.810   0.004   4.143
 5635SOL    HW226905   5.966   0.049   4.168
 5636SOL     OW26906   3.899   1.535   3.415
 5636SOL    HW126907   3.832   1.539   3.342
 5636SOL    HW226908   3.879   1.604   3.484
 5637SOL     OW26909   0.738   2.386   6.237
 5637SOL    HW126910   0.672   2.310   6.247
 5637SOL    HW226911   0.766   2.418   6.328
 5638SOL     OW26912   3.227   0.391   1.253
 5638SOL    HW126913   3.293   0.454   1.294
 5638SOL    HW226914   3.188   0.431   1.170
 5639SOL     OW26915   2.070   1.252   0.167
 5639SOL    HW126916   2.111   1.318   0.104
 5639SOL    HW226917   2.112   1.260   0.257
 5640SOL     OW26918   4.041   3.118   4.929
 5640SOL    HW126919   3.969   3.179   4.894
 5640SOL    HW226920   4.001   3.030   4.956
 5641SOL     OW26921   7.163   7.841   7.423
 5641SOL    HW126922   7.246   7.792   7.398
 5641SOL    HW226923   7.157   7.848   7.523
 5642SOL     OW26924   0.650   4.183   1.102
 5642SOL    HW126925   0.693   4.234   1.176
 5642SOL    HW226926   0.715   4.168   1.028
 5643SOL     OW26927   3.748   1.130   0.738
 5643SOL    HW126928   3.704   1.133   0.828
 5643SOL    HW226929   3.838   1.087   0.747
 5644SOL     OW26930   3.626   1.207   6.036
 5644SOL    HW126931   3.532   1.240   6.041
 5644SOL    HW226932   3.656   1.177   6.126
 5645SOL     OW26933   1.826   5.612   7.667
 5645SOL    HW126934   1.780   5.523   7.674
 5645SOL    HW226935   1.787   5.676   7.733
 5646SOL     OW26936   1.570   4.530   4.261
 5646SOL    HW126937   1.652   4.571   4.219
 5646SOL    HW226938   1.585   4.516   4.358
 5647SOL     OW26939   4.153   3.421   5.608
 5647SOL    HW126940   4.158   3.407   5.707
 5647SOL    HW226941   4.169   3.517   5.586
 5648SOL     OW26942   1.374   0.578   5.852
 5648SOL    HW126943   1.412   0.488   5.830
 5648SOL    HW226944   1.380   0.594   5.950
 5649SOL     OW26945   3.042   3.646   5.744
 5649SOL    HW126946   3.034   3.731   5.691
 5649SOL    HW226947   3.015   3.662   5.839
 5650SOL     OW26948   2.671   7.268   7.245
 5650SOL    HW126949   2.759   7.280   7.197
 5650SOL    HW226950   2.686   7.224   7.333
 5651SOL     OW26951   0.716   0.038   3.725
 5651SOL    HW126952   0.782   0.111   3.710
 5651SOL    HW226953   0.682   0.005   3.637
 5652SOL     OW26954   0.367   2.827   2.010
 5652SOL    HW126955   0.302   2.759   2.043
 5652SOL    HW226956   0.442   2.836   2.075
 5653SOL     OW26957   7.754   4.965   6.838
 5653SOL    HW126958   7.683   4.897   6.853
 5653SOL    HW226959   7.773   4.973   6.740
 5654SOL     OW26960   1.550   6.410   2.523
 5654SOL    HW126961   1.602   6.454   2.450
 5654SOL    HW226962   1.593   6.322   2.546
 5655SOL     OW26963   5.869   3.641   5.420
 5655SOL    HW126964   5.942   3.707   5.402
 5655SOL    HW226965   5.899   3.573   5.487
 5656SOL     OW26966   7.276   4.028   3.728
 5656SOL    HW126967   7.188   3.994   3.764
 5656SOL    HW226968   7.291   3.993   3.636
 5657SOL     OW26969   1.256   5.370   5.894
 5657SOL    HW126970   1.240   5.434   5.969
 5657SOL    HW226971   1.320   5.298   5.923
 5658SOL     OW26972   1.031   6.121   2.385
 5658SOL    HW126973   1.119   6.098   2.427
 5658SOL    HW226974   1.040   6.201   2.326
 5659SOL     OW26975   1.825   1.849   1.630
 5659SOL    HW126976   1.859   1.762   1.593
 5659SOL    HW226977   1.822   1.918   1.558
 5660SOL     OW26978   4.360   3.299   2.009
 5660SOL    HW126979   4.268   3.312   1.971
 5660SOL    HW226980   4.365   3.337   2.101
 5661SOL     OW26981   7.652   7.390   0.130
 5661SOL    HW126982   7.722   7.390   0.058
 5661SOL    HW226983   7.685   7.339   0.209
 5662SOL     OW26984   6.610   3.648   6.284
 5662SOL    HW126985   6.699   3.693   6.271
 5662SOL    HW226986   6.583   3.651   6.380
 5663SOL     OW26987   6.791   1.367   0.619
 5663SOL    HW126988   6.692   1.354   0.619
 5663SOL    HW226989   6.831   1.324   0.538
 5664SOL     OW26990   4.202   6.923   0.325
 5664SOL    HW126991   4.132   6.961   0.265
 5664SOL    HW226992   4.205   6.975   0.411
 5665SOL     OW26993   0.914   2.815   4.400
 5665SOL    HW126994   0.917   2.718   4.375
 5665SOL    HW226995   0.971   2.831   4.481
 5666SOL     OW26996   4.162   6.082   2.636
 5666SOL    HW126997   4.250   6.126   2.659
 5666SOL    HW226998   4.111   6.064   2.720
 5667SOL     OW26999   7.588   0.334   3.636
 5667SOL    HW127000   7.551   0.288   3.717
 5667SOL    HW227001   7.524   0.326   3.560
 5668SOL     OW27002   5.388   5.054   4.530
 5668SOL    HW127003   5.467   5.112   4.550
 5668SOL    HW227004   5.396   4.966   4.576
 5669SOL     OW27005   6.342   6.237   3.004
 5669SOL    HW127006   6.338   6.325   3.051
 5669SOL    HW227007   6.381   6.168   3.064
 5670SOL     OW27008   7.144   3.505   0.867
 5670SOL    HW127009   7.202   3.583   0.890
 5670SOL    HW227010   7.166   3.428   0.927
 5671SOL     OW27011   2.113   1.646   3.905
 5671SOL    HW127012   2.114   1.546   3.900
 5671SOL    HW227013   2.053   1.684   3.835
 5672SOL     OW27014   5.801   7.259   2.422
 5672SOL    HW127015   5.877   7.212   2.376
 5672SOL    HW227016   5.767   7.333   2.365
 5673SOL     OW27017   7.598   3.140   2.683
 5673SOL    HW127018   7.694   3.166   2.699
 5673SOL    HW227019   7.537   3.203   2.732
 5674SOL     OW27020   1.322   3.223   6.994
 5674SOL    HW127021   1.291   3.312   6.960
 5674SOL    HW227022   1.375   3.235   7.078
 5675SOL     OW27023   6.313   3.291   0.801
 5675SOL    HW127024   6.250   3.219   0.771
 5675SOL    HW227025   6.312   3.298   0.900
 5676SOL     OW27026   1.030   3.693   3.478
 5676SOL    HW127027   0.976   3.686   3.394
 5676SOL    HW227028   1.127   3.687   3.458
 5677SOL     OW27029   3.932   3.949   1.825
 5677SOL    HW127030   4.032   3.941   1.832
 5677SOL    HW227031   3.888   3.898   1.899
 5678SOL     OW27032   5.512   6.208   6.774
 5678SOL    HW127033   5.497   6.252   6.685
 5678SOL    HW227034   5.498   6.274   6.848
 5679SOL     OW27035   4.034   1.296   1.635
 5679SOL    HW127036   3.943   1.306   1.675
 5679SOL    HW227037   4.027   1.269   1.539
 5680SOL     OW27038   4.241   6.007   0.804
 5680SOL    HW127039   4.298   5.954   0.867
 5680SOL    HW227040   4.149   5.970   0.801
 5681SOL     OW27041   5.722   1.118   0.647
 5681SOL    HW127042   5.676   1.159   0.726
 5681SOL    HW227043   5.821   1.126   0.658
 5682SOL     OW27044   2.913   2.165   4.865
 5682SOL    HW127045   2.906   2.224   4.785
 5682SOL    HW227046   3.003   2.176   4.909
 5683SOL     OW27047   4.922   3.932   5.743
 5683SOL    HW127048   4.863   4.009   5.769
 5683SOL    HW227049   4.909   3.911   5.647
 5684SOL     OW27050   3.603   2.484   0.787
 5684SOL    HW127051   3.645   2.440   0.866
 5684SOL    HW227052   3.551   2.417   0.734
 5685SOL     OW27053   6.050   0.857   4.218
 5685SOL    HW127054   5.960   0.821   4.245
 5685SOL    HW227055   6.055   0.955   4.235
 5686SOL     OW27056   6.379   2.869   1.105
 5686SOL    HW127057   6.330   2.810   1.040
 5686SOL    HW227058   6.450   2.816   1.151
 5687SOL     OW27059   4.063   1.817   5.647
 5687SOL    HW127060   4.072   1.730   5.597
 5687SOL    HW227061   4.085   1.893   5.587
 5688SOL     OW27062   3.781   7.234   5.966
 5688SOL    HW127063   3.870   7.261   6.002
 5688SOL    HW227064   3.769   7.270   5.873
 5689SOL     OW27065   0.762   6.030   6.475
 5689SOL    HW127066   0.670   6.008   6.509
 5689SOL    HW227067   0.767   6.013   6.376
 5690SOL     OW27068   5.009   3.873   1.932
 5690SOL    HW127069   5.047   3.950   1.983
 5690SOL    HW227070   5.007   3.894   1.834
 5691SOL     OW27071   2.875   2.761   6.820
 5691SOL    HW127072   2.955   2.776   6.762
 5691SOL    HW227073   2.901   2.713   6.903
 5692SOL     OW27074   7.580   7.714   4.235
 5692SOL    HW127075   7.645   7.671   4.298
 5692SOL    HW227076   7.573   7.660   4.150
 5693SOL     OW27077   1.620   1.693   4.929
 5693SOL    HW127078   1.676   1.773   4.950
 5693SOL    HW227079   1.632   1.623   4.999
 5694SOL     OW27080   2.421   4.768   3.826
 5694SOL    HW127081   2.386   4.681   3.861
 5694SOL    HW227082   2.346   4.833   3.814
 5695SOL     OW27083   7.502   4.227   3.805
 5695SOL    HW127084   7.447   4.193   3.729
 5695SOL    HW227085   7.586   4.268   3.771
 5696SOL     OW27086   0.571   1.359   3.406
 5696SOL    HW127087   0.515   1.439   3.428
 5696SOL    HW227088   0.521   1.298   3.345
 5697SOL     OW27089   1.869   5.482   4.570
 5697SOL    HW127090   1.965   5.501   4.550
 5697SOL    HW227091   1.814   5.488   4.487
 5698SOL     OW27092   1.541   7.689   3.006
 5698SOL    HW127093   1.635   7.661   2.985
 5698SOL    HW227094   1.541   7.766   3.069
 5699SOL     OW27095   3.478   0.917   5.800
 5699SOL    HW127096   3.489   0.919   5.700
 5699SOL    HW227097   3.567   0.912   5.844
 5700SOL     OW27098   4.644   1.788   3.068
 5700SOL    HW127099   4.578   1.840   3.013
 5700SOL    HW227100   4.695   1.850   3.127
 5701SOL     OW27101   2.189   6.204   1.985
 5701SOL    HW127102   2.184   6.212   2.085
 5701SOL    HW227103   2.283   6.192   1.957
 5702SOL     OW27104   4.940   2.789   4.969
 5702SOL    HW127105   5.030   2.812   5.008
 5702SOL    HW227106   4.931   2.830   4.878
 5703SOL     OW27107   2.612   1.857   5.525
 5703SOL    HW127108   2.671   1.784   5.491
 5703SOL    HW227109   2.558   1.895   5.450
 5704SOL     OW27110   2.590   3.886   3.701
 5704SOL    HW127111   2.674   3.873   3.755
 5704SOL    HW227112   2.614   3.910   3.607
 5705SOL     OW27113   5.875   5.086   1.587
 5705SOL    HW127114   5.846   5.024   1.660
 5705SOL    HW227115   5.838   5.177   1.603
 5706SOL     OW27116   3.382   2.952   6.692
 5706SOL    HW127117   3.471   2.969   6.736
 5706SOL    HW227118   3.380   2.993   6.601
 5707SOL     OW27119   4.945   2.154   3.237
 5707SOL    HW127120   5.011   2.079   3.239
 5707SOL    HW227121   4.852   2.118   3.230
 5708SOL     OW27122   3.334   7.608   6.361
 5708SOL    HW127123   3.338   7.517   6.403
 5708SOL    HW227124   3.384   7.607   6.274
 5709SOL     OW27125   3.131   4.225   3.414
 5709SOL    HW127126   3.206   4.197   3.474
 5709SOL    HW227127   3.080   4.300   3.455
 5710SOL     OW27128   5.683   0.830   3.917
 5710SOL    HW127129   5.683   0.737   3.879
 5710SOL    HW227130   5.660   0.827   4.014
 5711SOL     OW27131   7.497   3.268   6.036
 5711SOL    HW127132   7.596   3.283   6.031
 5711SOL    HW227133   7.475   3.210   6.114
 5712SOL     OW27134   5.529   6.080   7.242
 5712SOL    HW127135   5.439   6.038   7.232
 5712SOL    HW227136   5.520   6.176   7.269
 5713SOL     OW27137   5.473   6.848   1.454
 5713SOL    HW127138   5.414   6.772   1.427
 5713SOL    HW227139   5.441   6.886   1.541
 5714SOL     OW27140   4.586   3.653   5.074
 5714SOL    HW127141   4.576   3.647   4.975
 5714SOL    HW227142   4.517   3.596   5.119
 5715SOL     OW27143   0.712   1.882   1.923
 5715SOL    HW127144   0.630   1.882   1.865
 5715SOL    HW227145   0.696   1.938   2.004
 5716SOL     OW27146   0.953   1.863   3.944
 5716SOL    HW127147   0.867   1.813   3.942
 5716SOL    HW227148   1.030   1.799   3.951
 5717SOL     OW27149   4.667   0.940   6.301
 5717SOL    HW127150   4.760   0.973   6.287
 5717SOL    HW227151   4.652   0.857   6.248
 5718SOL     OW27152   0.532   5.191   3.394
 5718SOL    HW127153   0.530   5.257   3.469
 5718SOL    HW227154   0.475   5.223   3.319
 5719SOL     OW27155   5.827   3.967   4.291
 5719SOL    HW127156   5.814   3.943   4.194
 5719SOL    HW227157   5.768   4.043   4.316
 5720SOL     OW27158   7.810   6.368   3.587
 5720SOL    HW127159   7.723   6.415   3.568
 5720SOL    HW227160   7.866   6.424   3.648
 5721SOL     OW27161   1.956   2.513   4.272
 5721SOL    HW127162   1.880   2.578   4.263
 5721SOL    HW227163   1.938   2.431   4.219
 5722SOL     OW27164   5.800   0.984   5.007
 5722SOL    HW127165   5.826   0.965   4.912
 5722SOL    HW227166   5.872   1.036   5.053
 5723SOL     OW27167   4.269   3.434   5.287
 5723SOL    HW127168   4.325   3.351   5.298
 5723SOL    HW227169   4.194   3.433   5.352
 5724SOL     OW27170   3.793   3.781   7.663
 5724SOL    HW127171   3.842   3.696   7.684
 5724SOL    HW227172   3.780   3.789   7.564
 5725SOL     OW27173   2.134   4.134   2.108
 5725SOL    HW127174   2.169   4.075   2.036
 5725SOL    HW227175   2.037   4.151   2.094
 5726SOL     OW27176   5.889   5.030   6.925
 5726SOL    HW127177   5.842   5.104   6.974
 5726SOL    HW227178   5.838   5.006   6.843
 5727SOL     OW27179   0.141   4.202   0.808
 5727SOL    HW127180   0.116   4.295   0.781
 5727SOL    HW227181   0.202   4.204   0.887
 5728SOL     OW27182   1.393   5.257   6.134
 5728SOL    HW127183   1.469   5.234   6.072
 5728SOL    HW227184   1.426   5.260   6.228
 5729SOL     OW27185   4.059   0.887   7.052
 5729SOL    HW127186   4.001   0.806   7.063
 5729SOL    HW227187   4.092   0.917   7.141
 5730SOL     OW27188   1.686   7.223   4.041
 5730SOL    HW127189   1.767   7.180   4.081
 5730SOL    HW227190   1.714   7.297   3.979
 5731SOL     OW27191   3.447   3.976   5.646
 5731SOL    HW127192   3.541   3.977   5.611
 5731SOL    HW227193   3.446   3.939   5.739
 5732SOL     OW27194   3.824   4.723   7.061
 5732SOL    HW127195   3.762   4.746   6.986
 5732SOL    HW227196   3.778   4.666   7.129
 5733SOL     OW27197   6.968   0.070   0.866
 5733SOL    HW127198   7.067   0.074   0.858
 5733SOL    HW227199   6.931  -0.000   0.805
 5734SOL     OW27200   3.798   4.555   7.975
 5734SOL    HW127201   3.755   4.490   7.912
 5734SOL    HW227202   3.732   4.626   8.000
 5735SOL     OW27203   4.108   2.288   4.075
 5735SOL    HW127204   4.183   2.315   4.135
 5735SOL    HW227205   4.139   2.218   4.011
 5736SOL     OW27206   5.237   6.010   1.384
 5736SOL    HW127207   5.199   6.092   1.342
 5736SOL    HW227208   5.295   6.035   1.462
 5737SOL     OW27209   3.785   4.903   7.596
 5737SOL    HW127210   3.697   4.931   7.635
 5737SOL    HW227211   3.773   4.824   7.536
 5738SOL     OW27212   7.703   7.239   3.993
 5738SOL    HW127213   7.772   7.302   3.957
 5738SOL    HW227214   7.613   7.282   3.993
 5739SOL     OW27215   4.988   4.997   7.149
 5739SOL    HW127216   5.019   5.089   7.171
 5739SOL    HW227217   4.957   4.992   7.054
 5740SOL     OW27218   3.761   4.906   4.913
 5740SOL    HW127219   3.709   4.992   4.912
 5740SOL    HW227220   3.809   4.895   4.827
 5741SOL     OW27221   5.364   2.273   4.174
 5741SOL    HW127222   5.405   2.228   4.095
 5741SOL    HW227223   5.320   2.358   4.147
 5742SOL     OW27224   4.496   2.295   1.093
 5742SOL    HW127225   4.505   2.393   1.113
 5742SOL    HW227226   4.400   2.270   1.090
 5743SOL     OW27227   0.609   5.631   6.368
 5743SOL    HW127228   0.627   5.540   6.407
 5743SOL    HW227229   0.551   5.683   6.430
 5744SOL     OW27230   5.397   3.320   0.697
 5744SOL    HW127231   5.307   3.327   0.655
 5744SOL    HW227232   5.393   3.354   0.791
 5745SOL     OW27233   6.761   4.899   4.775
 5745SOL    HW127234   6.673   4.928   4.738
 5745SOL    HW227235   6.819   4.863   4.703
 5746SOL     OW27236   3.193   4.210   6.647
 5746SOL    HW127237   3.138   4.133   6.679
 5746SOL    HW227238   3.232   4.190   6.557
 5747SOL     OW27239   5.647   7.866   1.835
 5747SOL    HW127240   5.568   7.876   1.895
 5747SOL    HW227241   5.666   7.953   1.789
 5748SOL     OW27242   2.848   0.922   5.487
 5748SOL    HW127243   2.850   0.885   5.394
 5748SOL    HW227244   2.808   0.855   5.549
 5749SOL     OW27245   1.178   3.102   2.371
 5749SOL    HW127246   1.210   3.195   2.353
 5749SOL    HW227247   1.090   3.087   2.325
 5750SOL     OW27248   2.472   3.439   3.752
 5750SOL    HW127249   2.447   3.507   3.682
 5750SOL    HW227250   2.480   3.484   3.841
 5751SOL     OW27251   6.222   7.555   4.513
 5751SOL    HW127252   6.260   7.463   4.507
 5751SOL    HW227253   6.145   7.564   4.450
 5752SOL     OW27254   3.043   3.298   5.002
 5752SOL    HW127255   3.062   3.394   5.024
 5752SOL    HW227256   3.095   3.238   5.062
 5753SOL     OW27257   0.557   1.939   3.929
 5753SOL    HW127258   0.533   2.020   3.982
 5753SOL    HW227259   0.653   1.915   3.943
 5754SOL     OW27260   6.824   3.841   2.900
 5754SOL    HW127261   6.861   3.915   2.843
 5754SOL    HW227262   6.728   3.859   2.921
 5755SOL     OW27263   2.753   6.261   3.920
 5755SOL    HW127264   2.704   6.340   3.883
 5755SOL    HW227265   2.785   6.280   4.012
 5756SOL     OW27266   5.174   5.241   7.045
 5756SOL    HW127267   5.101   5.194   6.995
 5756SOL    HW227268   5.155   5.339   7.049
 5757SOL     OW27269   7.976   5.094   5.009
 5757SOL    HW127270   8.000   4.997   5.007
 5757SOL    HW227271   7.919   5.114   5.088
 5758SOL     OW27272   6.675   4.074   4.046
 5758SOL    HW127273   6.703   4.127   4.127
 5758SOL    HW227274   6.576   4.064   4.045
 5759SOL     OW27275   3.799   4.088   4.488
 5759SOL    HW127276   3.888   4.067   4.528
 5759SOL    HW227277   3.771   4.015   4.425
 5760SOL     OW27278   4.105   7.576   6.544
 5760SOL    HW127279   4.202   7.565   6.567
 5760SOL    HW227280   4.084   7.525   6.460
 5761SOL     OW27281   3.432   6.031   4.066
 5761SOL    HW127282   3.467   5.994   3.980
 5761SOL    HW227283   3.424   5.958   4.134
 5762SOL     OW27284   4.377   5.221   7.228
 5762SOL    HW127285   4.317   5.196   7.304
 5762SOL    HW227286   4.437   5.296   7.255
 5763SOL     OW27287   0.753   0.484   6.332
 5763SOL    HW127288   0.811   0.488   6.413
 5763SOL    HW227289   0.784   0.553   6.265
 5764SOL     OW27290   1.941   4.529   2.749
 5764SOL    HW127291   1.857   4.489   2.711
 5764SOL    HW227292   1.975   4.600   2.688
 5765SOL     OW27293   6.869   3.901   4.362
 5765SOL    HW127294   6.900   3.921   4.269
 5765SOL    HW227295   6.875   3.983   4.420
 5766SOL     OW27296   3.176   0.800   6.965
 5766SOL    HW127297   3.204   0.765   7.054
 5766SOL    HW227298   3.256   0.828   6.913
 5767SOL     OW27299   7.617   1.948   1.171
 5767SOL    HW127300   7.702   1.915   1.131
 5767SOL    HW227301   7.636   2.020   1.238
 5768SOL     OW27302   6.868   7.612   3.566
 5768SOL    HW127303   6.826   7.531   3.607
 5768SOL    HW227304   6.926   7.658   3.632
 5769SOL     OW27305   7.484   3.740   2.508
 5769SOL    HW127306   7.517   3.706   2.420
 5769SOL    HW227307   7.558   3.739   2.575
 5770SOL     OW27308   7.645   5.582   7.349
 5770SOL    HW127309   7.596   5.640   7.284
 5770SOL    HW227310   7.686   5.504   7.301
 5771SOL     OW27311   7.127   3.857   3.103
 5771SOL    HW127312   7.180   3.775   3.126
 5771SOL    HW227313   7.065   3.880   3.179
 5772SOL     OW27314   3.566   8.000   0.959
 5772SOL    HW127315   3.624   7.979   0.879
 5772SOL    HW227316   3.609   7.966   1.042
 5773SOL     OW27317   6.757   5.258   7.015
 5773SOL    HW127318   6.663   5.246   6.984
 5773SOL    HW227319   6.758   5.303   7.105
 5774SOL     OW27320   2.233   7.492   5.334
 5774SOL    HW127321   2.312   7.451   5.288
 5774SOL    HW227322   2.228   7.462   5.429
 5775SOL     OW27323   6.211   0.767   6.895
 5775SOL    HW127324   6.196   0.669   6.901
 5775SOL    HW227325   6.168   0.813   6.973
 5776SOL     OW27326   6.662   4.631   0.487
 5776SOL    HW127327   6.688   4.680   0.404
 5776SOL    HW227328   6.737   4.634   0.553
 5777SOL     OW27329   4.940   6.288   1.190
 5777SOL    HW127330   4.912   6.381   1.216
 5777SOL    HW227331   4.877   6.251   1.122
 5778SOL     OW27332   3.595   3.416   4.811
 5778SOL    HW127333   3.646   3.451   4.733
 5778SOL    HW227334   3.655   3.363   4.871
 5779SOL     OW27335   7.843   0.633   1.098
 5779SOL    HW127336   7.805   0.720   1.065
 5779SOL    HW227337   7.775   0.585   1.154
 5780SOL     OW27338   7.832   6.302   6.607
 5780SOL    HW127339   7.773   6.382   6.592
 5780SOL    HW227340   7.893   6.318   6.684
 5781SOL     OW27341   6.236   0.350   5.655
 5781SOL    HW127342   6.259   0.390   5.566
 5781SOL    HW227343   6.318   0.312   5.697
 5782SOL     OW27344   0.394   3.993   5.929
 5782SOL    HW127345   0.325   3.929   5.963
 5782SOL    HW227346   0.418   3.971   5.835
 5783SOL     OW27347   7.249   7.011   3.747
 5783SOL    HW127348   7.164   7.064   3.744
 5783SOL    HW227349   7.245   6.936   3.681
 5784SOL     OW27350   6.964   4.295   4.193
 5784SOL    HW127351   6.919   4.380   4.221
 5784SOL    HW227352   7.045   4.280   4.249
 5785SOL     OW27353   6.754   5.016   4.216
 5785SOL    HW127354   6.810   4.979   4.290
 5785SOL    HW227355   6.801   5.005   4.129
 5786SOL     OW27356   1.701   6.990   4.324
 5786SOL    HW127357   1.608   6.969   4.293
 5786SOL    HW227358   1.744   7.054   4.260
 5787SOL     OW27359   7.862   6.036   6.980
 5787SOL    HW127360   7.814   5.952   7.004
 5787SOL    HW227361   7.801   6.114   6.990
 5788SOL     OW27362   3.316   6.913   5.526
 5788SOL    HW127363   3.250   6.979   5.489
 5788SOL    HW227364   3.268   6.840   5.575
 5789SOL     OW27365   1.295   3.008   1.811
 5789SOL    HW127366   1.298   3.043   1.718
 5789SOL    HW227367   1.201   2.984   1.836
 5790SOL     OW27368   0.651   5.653   1.445
 5790SOL    HW127369   0.713   5.575   1.454
 5790SOL    HW227370   0.704   5.738   1.451
 5791SOL     OW27371   1.333   4.098   5.811
 5791SOL    HW127372   1.344   4.147   5.898
 5791SOL    HW227373   1.368   4.005   5.819
 5792SOL     OW27374   2.313   2.029   4.632
 5792SOL    HW127375   2.302   2.036   4.732
 5792SOL    HW227376   2.359   2.111   4.597
 5793SOL     OW27377   5.896   4.049   7.575
 5793SOL    HW127378   5.947   3.993   7.509
 5793SOL    HW227379   5.883   4.141   7.537
 5794SOL     OW27380   3.714   1.751   7.027
 5794SOL    HW127381   3.684   1.836   6.983
 5794SOL    HW227382   3.738   1.769   7.123
 5795SOL     OW27383   1.510   4.867   0.724
 5795SOL    HW127384   1.504   4.959   0.763
 5795SOL    HW227385   1.476   4.868   0.630
 5796SOL     OW27386   3.334   0.547   3.654
 5796SOL    HW127387   3.268   0.476   3.677
 5796SOL    HW227388   3.409   0.508   3.601
 5797SOL     OW27389   5.393   0.785   3.598
 5797SOL    HW127390   5.333   0.781   3.518
 5797SOL    HW227391   5.445   0.700   3.606
 5798SOL     OW27392   5.680   6.218   3.263
 5798SOL    HW127393   5.739   6.165   3.325
 5798SOL    HW227394   5.648   6.159   3.188
 5799SOL     OW27395   0.765   6.697   3.533
 5799SOL    HW127396   0.684   6.652   3.497
 5799SOL    HW227397   0.746   6.733   3.625
 5800SOL     OW27398   5.985   4.346   5.779
 5800SOL    HW127399   6.059   4.327   5.714
 5800SOL    HW227400   6.023   4.356   5.871
 5801SOL     OW27401   6.273   4.811   2.802
 5801SOL    HW127402   6.342   4.874   2.765
 5801SOL    HW227403   6.298   4.782   2.894
 5802SOL     OW27404   5.310   7.451   4.119
 5802SOL    HW127405   5.246   7.388   4.076
 5802SOL    HW227406   5.352   7.509   4.049
 5803SOL     OW27407   2.321   5.007   0.807
 5803SOL    HW127408   2.404   4.976   0.854
 5803SOL    HW227409   2.277   5.080   0.860
 5804SOL     OW27410   2.137   6.725   3.258
 5804SOL    HW127411   2.117   6.813   3.214
 5804SOL    HW227412   2.103   6.726   3.352
 5805SOL     OW27413   6.750   0.140   7.355
 5805SOL    HW127414   6.679   0.151   7.426
 5805SOL    HW227415   6.789   0.049   7.361
 5806SOL     OW27416   1.651   6.786   2.877
 5806SOL    HW127417   1.573   6.772   2.815
 5806SOL    HW227418   1.618   6.812   2.968
 5807SOL     OW27419   0.262   3.937   0.484
 5807SOL    HW127420   0.264   4.025   0.531
 5807SOL    HW227421   0.186   3.935   0.419
 5808SOL     OW27422   6.847   2.815   5.495
 5808SOL    HW127423   6.777   2.761   5.448
 5808SOL    HW227424   6.811   2.850   5.582
 5809SOL     OW27425   5.934   6.318   2.430
 5809SOL    HW127426   5.984   6.357   2.508
 5809SOL    HW227427   5.998   6.297   2.356
 5810SOL     OW27428   3.986   3.877   6.013
 5810SOL    HW127429   3.977   3.850   6.109
 5810SOL    HW227430   3.940   3.810   5.955
 5811SOL     OW27431   1.395   7.387   5.778
 5811SOL    HW127432   1.456   7.436   5.715
 5811SOL    HW227433   1.405   7.288   5.765
 5812SOL     OW27434   7.451   6.622   0.414
 5812SOL    HW127435   7.465   6.717   0.386
 5812SOL    HW227436   7.485   6.609   0.507
 5813SOL     OW27437   7.167   7.845   1.520
 5813SOL    HW127438   7.090   7.884   1.470
 5813SOL    HW227439   7.170   7.746   1.508
 5814SOL     OW27440   2.069   2.846   0.293
 5814SOL    HW127441   2.165   2.819   0.286
 5814SOL    HW227442   2.019   2.781   0.350
 5815SOL     OW27443   5.117   1.990   6.210
 5815SOL    HW127444   5.065   1.919   6.161
 5815SOL    HW227445   5.114   1.973   6.308
 5816SOL     OW27446   0.309   1.243   2.352
 5816SOL    HW127447   0.347   1.331   2.381
 5816SOL    HW227448   0.286   1.246   2.255
 5817SOL     OW27449   1.401   1.630   3.607
 5817SOL    HW127450   1.335   1.587   3.545
 5817SOL    HW227451   1.359   1.648   3.696
 5818SOL     OW27452   5.134   4.623   7.303
 5818SOL    HW127453   5.091   4.712   7.320
 5818SOL    HW227454   5.187   4.595   7.383
 5819SOL     OW27455   6.116   1.733   1.568
 5819SOL    HW127456   6.046   1.670   1.601
 5819SOL    HW227457   6.080   1.826   1.563
 5820SOL     OW27458   1.900   7.070   0.617
 5820SOL    HW127459   1.865   7.003   0.551
 5820SOL    HW227460   1.836   7.147   0.625
 5821SOL     OW27461   1.162   0.006   3.171
 5821SOL    HW127462   1.128   0.064   3.245
 5821SOL    HW227463   1.189   0.062   3.093
 5822SOL     OW27464   3.156   6.170   3.439
 5822SOL    HW127465   3.133   6.201   3.531
 5822SOL    HW227466   3.097   6.216   3.372
 5823SOL     OW27467   2.739   4.998   3.083
 5823SOL    HW127468   2.813   4.933   3.102
 5823SOL    HW227469   2.772   5.092   3.092
 5824SOL     OW27470   3.963   5.942   5.277
 5824SOL    HW127471   3.872   5.927   5.239
 5824SOL    HW227472   3.989   5.866   5.337
 5825SOL     OW27473   4.665   6.271   4.404
 5825SOL    HW127474   4.597   6.286   4.476
 5825SOL    HW227475   4.683   6.173   4.393
 5826SOL     OW27476   7.061   0.369   6.246
 5826SOL    HW127477   7.022   0.353   6.155
 5826SOL    HW227478   6.993   0.413   6.304
 5827SOL     OW27479   5.531   5.482   3.780
 5827SOL    HW127480   5.551   5.393   3.819
 5827SOL    HW227481   5.493   5.471   3.688
 5828SOL     OW27482   4.489   3.069   2.063
 5828SOL    HW127483   4.542   3.094   1.982
 5828SOL    HW227484   4.487   3.145   2.128
 5829SOL     OW27485   2.505   7.330   1.872
 5829SOL    HW127486   2.466   7.319   1.963
 5829SOL    HW227487   2.594   7.284   1.867
 5830SOL     OW27488   4.261   4.438   3.966
 5830SOL    HW127489   4.290   4.521   3.918
 5830SOL    HW227490   4.181   4.399   3.920
 5831SOL     OW27491   6.710   1.930   4.789
 5831SOL    HW127492   6.683   1.921   4.885
 5831SOL    HW227493   6.809   1.942   4.782
 5832SOL     OW27494   1.838   1.911   7.104
 5832SOL    HW127495   1.910   1.885   7.169
 5832SOL    HW227496   1.829   1.840   7.034
 5833SOL     OW27497   7.882   3.694   3.148
 5833SOL    HW127498   7.790   3.703   3.111
 5833SOL    HW227499   7.886   3.733   3.240
 5834SOL     OW27500   0.658   4.415   5.408
 5834SOL    HW127501   0.607   4.431   5.324
 5834SOL    HW227502   0.740   4.361   5.389
 5835SOL     OW27503   2.993   7.359   3.856
 5835SOL    HW127504   2.927   7.293   3.892
 5835SOL    HW227505   3.024   7.330   3.766
 5836SOL     OW27506   1.411   3.610   6.196
 5836SOL    HW127507   1.323   3.576   6.230
 5836SOL    HW227508   1.458   3.539   6.146
 5837SOL     OW27509   4.279   7.895   4.614
 5837SOL    HW127510   4.238   7.985   4.625
 5837SOL    HW227511   4.207   7.825   4.613
 5838SOL     OW27512   5.951   1.977   7.944
 5838SOL    HW127513   5.874   1.986   7.881
 5838SOL    HW227514   6.031   2.026   7.909
 5839SOL     OW27515   7.264   5.398   1.164
 5839SOL    HW127516   7.356   5.437   1.168
 5839SOL    HW227517   7.270   5.299   1.150
 5840SOL     OW27518   4.251   5.367   1.077
 5840SOL    HW127519   4.327   5.331   1.130
 5840SOL    HW227520   4.276   5.374   0.981
 5841SOL     OW27521   1.447   4.775   3.204
 5841SOL    HW127522   1.533   4.726   3.221
 5841SOL    HW227523   1.443   4.804   3.109
 5842SOL     OW27524   6.899   4.448   7.503
 5842SOL    HW127525   6.962   4.473   7.429
 5842SOL    HW227526   6.951   4.409   7.580
 5843SOL     OW27527   1.810   3.974   2.664
 5843SOL    HW127528   1.910   3.968   2.654
 5843SOL    HW227529   1.771   4.022   2.586
 5844SOL     OW27530   5.219   5.763   3.079
 5844SOL    HW127531   5.189   5.759   3.174
 5844SOL    HW227532   5.277   5.684   3.058
 5845SOL     OW27533   4.754   2.758   2.376
 5845SOL    HW127534   4.764   2.728   2.281
 5845SOL    HW227535   4.661   2.790   2.393
 5846SOL     OW27536   0.769   7.354   5.535
 5846SOL    HW127537   0.680   7.351   5.490
 5846SOL    HW227538   0.767   7.420   5.610
 5847SOL     OW27539   2.021   3.033   2.056
 5847SOL    HW127540   2.097   3.004   2.115
 5847SOL    HW227541   2.007   2.965   1.984
 5848SOL     OW27542   4.344   7.591   7.328
 5848SOL    HW127543   4.260   7.580   7.380
 5848SOL    HW227544   4.355   7.516   7.263
 5849SOL     OW27545   7.291   5.891   2.933
 5849SOL    HW127546   7.363   5.832   2.897
 5849SOL    HW227547   7.288   5.885   3.033
 5850SOL     OW27548   4.143   4.734   2.275
 5850SOL    HW127549   4.099   4.797   2.210
 5850SOL    HW227550   4.174   4.784   2.356
 5851SOL     OW27551   5.664   2.193   2.729
 5851SOL    HW127552   5.752   2.152   2.704
 5851SOL    HW227553   5.670   2.234   2.820
 5852SOL     OW27554   2.554   2.167   2.761
 5852SOL    HW127555   2.470   2.186   2.709
 5852SOL    HW227556   2.631   2.154   2.699
 5853SOL     OW27557   0.983   2.725   1.707
 5853SOL    HW127558   0.996   2.704   1.610
 5853SOL    HW227559   1.036   2.662   1.763
 5854SOL     OW27560   0.118   4.964   1.855
 5854SOL    HW127561   0.177   4.900   1.805
 5854SOL    HW227562   0.023   4.955   1.823
 5855SOL     OW27563   3.609   4.177   5.235
 5855SOL    HW127564   3.518   4.159   5.199
 5855SOL    HW227565   3.677   4.169   5.161
 5856SOL     OW27566   4.971   0.172   6.207
 5856SOL    HW127567   5.053   0.127   6.242
 5856SOL    HW227568   4.995   0.260   6.166
 5857SOL     OW27569   4.898   1.037   7.385
 5857SOL    HW127570   4.962   1.058   7.311
 5857SOL    HW227571   4.867   0.942   7.378
 5858SOL     OW27572   2.783   1.357   2.149
 5858SOL    HW127573   2.774   1.448   2.109
 5858SOL    HW227574   2.851   1.359   2.223
 5859SOL     OW27575   2.300   4.348   7.942
 5859SOL    HW127576   2.298   4.444   7.915
 5859SOL    HW227577   2.380   4.331   8.000
 5860SOL     OW27578   5.315   4.209   1.151
 5860SOL    HW127579   5.402   4.162   1.167
 5860SOL    HW227580   5.318   4.258   1.064
 5861SOL     OW27581   7.558   4.709   3.361
 5861SOL    HW127582   7.499   4.633   3.332
 5861SOL    HW227583   7.531   4.740   3.452
 5862SOL     OW27584   1.501   1.758   1.054
 5862SOL    HW127585   1.439   1.701   1.109
 5862SOL    HW227586   1.464   1.850   1.045
 5863SOL     OW27587   4.541   4.992   5.817
 5863SOL    HW127588   4.557   5.046   5.734
 5863SOL    HW227589   4.481   4.915   5.796
 5864SOL     OW27590   5.262   6.067   7.078
 5864SOL    HW127591   5.202   5.991   7.105
 5864SOL    HW227592   5.219   6.121   7.006
 5865SOL     OW27593   1.150   7.519   5.658
 5865SOL    HW127594   1.189   7.438   5.702
 5865SOL    HW227595   1.133   7.591   5.726
 5866SOL     OW27596   0.688   6.588   6.390
 5866SOL    HW127597   0.588   6.585   6.392
 5866SOL    HW227598   0.718   6.660   6.327
 5867SOL     OW27599   5.859   1.798   1.793
 5867SOL    HW127600   5.824   1.706   1.811
 5867SOL    HW227601   5.901   1.801   1.702
 5868SOL     OW27602   6.808   6.794   2.633
 5868SOL    HW127603   6.895   6.766   2.592
 5868SOL    HW227604   6.804   6.764   2.728
 5869SOL     OW27605   7.048   6.272   1.012
 5869SOL    HW127606   7.100   6.194   1.049
 5869SOL    HW227607   7.080   6.294   0.921
 5870SOL     OW27608   3.237   4.025   6.156
 5870SOL    HW127609   3.299   3.959   6.198
 5870SOL    HW227610   3.257   4.034   6.058
 5871SOL     OW27611   0.314   1.037   4.699
 5871SOL    HW127612   0.316   0.967   4.627
 5871SOL    HW227613   0.239   1.101   4.683
 5872SOL     OW27614   6.324   3.446   3.015
 5872SOL    HW127615   6.311   3.447   2.916
 5872SOL    HW227616   6.410   3.491   3.039
 5873SOL     OW27617   3.006   4.741   4.146
 5873SOL    HW127618   2.938   4.799   4.100
 5873SOL    HW227619   3.072   4.706   4.081
 5874SOL     OW27620   5.482   6.226   7.976
 5874SOL    HW127621   5.473   6.209   7.878
 5874SOL    HW227622   5.438   6.313   8.000
 5875SOL     OW27623   4.553   2.673   4.863
 5875SOL    HW127624   4.477   2.615   4.834
 5875SOL    HW227625   4.604   2.705   4.783
 5876SOL     OW27626   4.562   2.648   6.976
 5876SOL    HW127627   4.525   2.686   6.891
 5876SOL    HW227628   4.492   2.593   7.021
 5877SOL     OW27629   3.187   0.231   0.725
 5877SOL    HW127630   3.119   0.158   0.721
 5877SOL    HW227631   3.144   0.320   0.710
 5878SOL     OW27632   6.979   7.578   4.436
 5878SOL    HW127633   6.906   7.642   4.414
 5878SOL    HW227634   7.050   7.582   4.366
 5879SOL     OW27635   5.274   1.557   7.835
 5879SOL    HW127636   5.272   1.568   7.736
 5879SOL    HW227637   5.186   1.583   7.875
 5880SOL     OW27638   7.507   0.328   0.257
 5880SOL    HW127639   7.607   0.324   0.251
 5880SOL    HW227640   7.472   0.252   0.312
 5881SOL     OW27641   4.971   6.442   6.701
 5881SOL    HW127642   4.882   6.484   6.724
 5881SOL    HW227643   4.966   6.399   6.612
 5882SOL     OW27644   0.979   6.805   1.111
 5882SOL    HW127645   1.060   6.862   1.094
 5882SOL    HW227646   0.983   6.766   1.203
 5883SOL     OW27647   7.769   6.807   2.394
 5883SOL    HW127648   7.809   6.895   2.421
 5883SOL    HW227649   7.672   6.806   2.414
 5884SOL     OW27650   0.402   4.116   0.385
 5884SOL    HW127651   0.404   4.073   0.295
 5884SOL    HW227652   0.488   4.163   0.403
 5885SOL     OW27653   6.163   4.242   2.360
 5885SOL    HW127654   6.064   4.235   2.348
 5885SOL    HW227655   6.184   4.260   2.456
 5886SOL     OW27656   5.642   4.403   3.243
 5886SOL    HW127657   5.581   4.324   3.246
 5886SOL    HW227658   5.737   4.374   3.243
 5887SOL     OW27659   5.616   2.910   1.413
 5887SOL    HW127660   5.635   2.815   1.440
 5887SOL    HW227661   5.576   2.960   1.489
 5888SOL     OW27662   7.783   3.393   6.552
 5888SOL    HW127663   7.784   3.452   6.471
 5888SOL    HW227664   7.779   3.450   6.635
 5889SOL     OW27665   0.351   3.690   5.012
 5889SOL    HW127666   0.447   3.691   4.982
 5889SOL    HW227667   0.325   3.598   5.040
 5890SOL     OW27668   6.900   3.063   1.384
 5890SOL    HW127669   6.845   3.126   1.329
 5890SOL    HW227670   6.971   3.022   1.328
 5891SOL     OW27671   6.191   5.306   0.104
 5891SOL    HW127672   6.143   5.387   0.069
 5891SOL    HW227673   6.210   5.244   0.029
 5892SOL     OW27674   3.985   5.799   7.087
 5892SOL    HW127675   3.928   5.727   7.049
 5892SOL    HW227676   3.951   5.826   7.177
 5893SOL     OW27677   6.178   6.573   1.979
 5893SOL    HW127678   6.133   6.638   2.040
 5893SOL    HW227679   6.133   6.484   1.985
 5894SOL     OW27680   7.404   5.892   1.388
 5894SOL    HW127681   7.371   5.981   1.420
 5894SOL    HW227682   7.404   5.890   1.289
 5895SOL     OW27683   5.383   1.954   3.760
 5895SOL    HW127684   5.409   1.863   3.794
 5895SOL    HW227685   5.340   2.006   3.833
 5896SOL     OW27686   3.106   6.936   0.604
 5896SOL    HW127687   3.076   6.957   0.697
 5896SOL    HW227688   3.200   6.968   0.591
 5897SOL     OW27689   4.376   7.761   4.134
 5897SOL    HW127690   4.329   7.765   4.222
 5897SOL    HW227691   4.369   7.850   4.088
 5898SOL     OW27692   1.047   6.451   0.998
 5898SOL    HW127693   1.137   6.426   1.036
 5898SOL    HW227694   1.059   6.501   0.912
 5899SOL     OW27695   7.327   4.658   3.467
 5899SOL    HW127696   7.283   4.569   3.457
 5899SOL    HW227697   7.303   4.717   3.391
 5900SOL     OW27698   5.438   6.909   4.993
 5900SOL    HW127699   5.427   6.823   4.943
 5900SOL    HW227700   5.409   6.898   5.088
 5901SOL     OW27701   7.422   0.238   2.990
 5901SOL    HW127702   7.425   0.154   2.936
 5901SOL    HW227703   7.514   0.272   3.007
 5902SOL     OW27704   5.563   3.339   4.007
 5902SOL    HW127705   5.535   3.255   3.961
 5902SOL    HW227706   5.651   3.370   3.971
 5903SOL     OW27707   6.315   6.699   4.308
 5903SOL    HW127708   6.229   6.735   4.345
 5903SOL    HW227709   6.390   6.717   4.371
 5904SOL     OW27710   1.823   3.697   7.266
 5904SOL    HW127711   1.885   3.691   7.345
 5904SOL    HW227712   1.863   3.756   7.195
 5905SOL     OW27713   7.298   0.784   5.512
 5905SOL    HW127714   7.298   0.783   5.613
 5905SOL    HW227715   7.347   0.704   5.477
 5906SOL     OW27716   5.687   1.840   0.556
 5906SOL    HW127717   5.700   1.915   0.622
 5906SOL    HW227718   5.713   1.870   0.465
 5907SOL     OW27719   4.367   3.861   3.201
 5907SOL    HW127720   4.447   3.827   3.151
 5907SOL    HW227721   4.290   3.799   3.189
 5908SOL     OW27722   3.225   2.655   0.101
 5908SOL    HW127723   3.149   2.638   0.037
 5908SOL    HW227724   3.246   2.752   0.104
 5909SOL     OW27725   7.347   1.018   5.885
 5909SOL    HW127726   7.373   0.933   5.841
 5909SOL    HW227727   7.310   1.000   5.977
 5910SOL     OW27728   3.833   4.283   2.756
 5910SOL    HW127729   3.789   4.370   2.779
 5910SOL    HW227730   3.793   4.245   2.673
 5911SOL     OW27731   4.095   2.489   2.082
 5911SOL    HW127732   4.186   2.507   2.120
 5911SOL    HW227733   4.088   2.528   1.991
 5912SOL     OW27734   2.234   3.699   0.101
 5912SOL    HW127735   2.260   3.611   0.141
 5912SOL    HW227736   2.204   3.687   0.006
 5913SOL     OW27737   6.442   1.157   1.602
 5913SOL    HW127738   6.489   1.227   1.548
 5913SOL    HW227739   6.445   1.181   1.699
 5914SOL     OW27740   2.263   4.148   2.602
 5914SOL    HW127741   2.204   4.080   2.560
 5914SOL    HW227742   2.232   4.168   2.695
 5915SOL     OW27743   0.812   1.164   4.918
 5915SOL    HW127744   0.878   1.228   4.877
 5915SOL    HW227745   0.835   1.148   5.013
 5916SOL     OW27746   0.227   3.626   3.062
 5916SOL    HW127747   0.134   3.607   3.030
 5916SOL    HW227748   0.225   3.662   3.155
 5917SOL     OW27749   1.844   2.311   4.405
 5917SOL    HW127750   1.843   2.408   4.429
 5917SOL    HW227751   1.929   2.269   4.438
 5918SOL     OW27752   5.940   4.508   2.481
 5918SOL    HW127753   6.003   4.440   2.442
 5918SOL    HW227754   5.850   4.467   2.495
 5919SOL     OW27755   5.140   6.625   0.370
 5919SOL    HW127756   5.234   6.601   0.349
 5919SOL    HW227757   5.113   6.589   0.459
 5920SOL     OW27758   2.191   1.089   5.714
 5920SOL    HW127759   2.219   1.083   5.617
 5920SOL    HW227760   2.271   1.106   5.771
 5921SOL     OW27761   3.932   7.325   7.819
 5921SOL    HW127762   3.934   7.291   7.725
 5921SOL    HW227763   3.919   7.249   7.883
 5922SOL     OW27764   0.289   1.880   6.042
 5922SOL    HW127765   0.230   1.958   6.063
 5922SOL    HW227766   0.256   1.832   5.961
 5923SOL     OW27767   0.511   6.384   5.850
 5923SOL    HW127768   0.463   6.406   5.935
 5923SOL    HW227769   0.591   6.327   5.869
 5924SOL     OW27770   1.476   2.681   6.853
 5924SOL    HW127771   1.497   2.774   6.823
 5924SOL    HW227772   1.498   2.671   6.950
 5925SOL     OW27773   3.377   6.908   2.460
 5925SOL    HW127774   3.385   6.865   2.370
 5925SOL    HW227775   3.353   7.004   2.450
 5926SOL     OW27776   5.381   0.070   5.535
 5926SOL    HW127777   5.408   0.038   5.444
 5926SOL    HW227778   5.282   0.063   5.546
 5927SOL     OW27779   1.581   1.992   2.197
 5927SOL    HW127780   1.593   2.063   2.266
 5927SOL    HW227781   1.550   2.031   2.111
 5928SOL     OW27782   1.970   4.803   7.739
 5928SOL    HW127783   1.930   4.872   7.800
 5928SOL    HW227784   2.029   4.742   7.790
 5929SOL     OW27785   7.540   0.599   0.807
 5929SOL    HW127786   7.545   0.621   0.710
 5929SOL    HW227787   7.616   0.539   0.833
 5930SOL     OW27788   4.497   6.974   1.681
 5930SOL    HW127789   4.442   6.903   1.637
 5930SOL    HW227790   4.441   7.024   1.747
 5931SOL     OW27791   6.315   5.301   5.192
 5931SOL    HW127792   6.311   5.237   5.269
 5931SOL    HW227793   6.363   5.259   5.115
 5932SOL     OW27794   6.330   5.515   5.511
 5932SOL    HW127795   6.233   5.541   5.510
 5932SOL    HW227796   6.349   5.452   5.436
 5933SOL     OW27797   6.482   4.569   0.170
 5933SOL    HW127798   6.424   4.493   0.198
 5933SOL    HW227799   6.518   4.553   0.078
 5934SOL     OW27800   7.578   1.107   0.094
 5934SOL    HW127801   7.516   1.179   0.127
 5934SOL    HW227802   7.597   1.042   0.167
 5935SOL     OW27803   6.273   2.091   0.506
 5935SOL    HW127804   6.188   2.132   0.471
 5935SOL    HW227805   6.296   2.132   0.594
 5936SOL     OW27806   3.727   0.718   3.729
 5936SOL    HW127807   3.658   0.661   3.775
 5936SOL    HW227808   3.802   0.661   3.695
 5937SOL     OW27809   6.936   6.168   2.440
 5937SOL    HW127810   6.865   6.099   2.430
 5937SOL    HW227811   7.026   6.127   2.427
 5938SOL     OW27812   1.290   2.306   0.897
 5938SOL    HW127813   1.244   2.389   0.866
 5938SOL    HW227814   1.365   2.329   0.959
 5939SOL     OW27815   4.381   7.154   4.598
 5939SOL    HW127816   4.399   7.064   4.639
 5939SOL    HW227817   4.332   7.212   4.663
 5940SOL     OW27818   2.789   1.335   3.158
 5940SOL    HW127819   2.801   1.403   3.085
 5940SOL    HW227820   2.783   1.380   3.247
 5941SOL     OW27821   6.022   4.086   5.477
 5941SOL    HW127822   6.086   4.052   5.546
 5941SOL    HW227823   6.073   4.122   5.399
 5942SOL     OW27824   4.301   3.700   5.266
 5942SOL    HW127825   4.317   3.695   5.168
 5942SOL    HW227826   4.380   3.744   5.311
 5943SOL     OW27827   0.470   5.489   7.300
 5943SOL    HW127828   0.544   5.432   7.336
 5943SOL    HW227829   0.480   5.499   7.201
 5944SOL     OW27830   6.049   4.195   1.530
 5944SOL    HW127831   6.105   4.262   1.578
 5944SOL    HW227832   5.965   4.239   1.497
 5945SOL     OW27833   1.683   5.082   5.437
 5945SOL    HW127834   1.727   5.036   5.359
 5945SOL    HW227835   1.610   5.024   5.474
 5946SOL     OW27836   2.592   7.624   0.168
 5946SOL    HW127837   2.530   7.677   0.226
 5946SOL    HW227838   2.553   7.535   0.149
 5947SOL     OW27839   4.951   4.755   5.669
 5947SOL    HW127840   4.973   4.851   5.683
 5947SOL    HW227841   5.018   4.697   5.715
 5948SOL     OW27842   0.283   1.892   6.758
 5948SOL    HW127843   0.282   1.803   6.803
 5948SOL    HW227844   0.376   1.917   6.732
 5949SOL     OW27845   4.810   0.057   7.570
 5949SOL    HW127846   4.907   0.040   7.586
 5949SOL    HW227847   4.790   0.050   7.472
 5950SOL     OW27848   7.961   2.276   3.590
 5950SOL    HW127849   7.927   2.207   3.526
 5950SOL    HW227850   7.920   2.263   3.680
 5951SOL     OW27851   3.579   3.476   4.386
 5951SOL    HW127852   3.487   3.489   4.350
 5951SOL    HW227853   3.588   3.516   4.477
 5952SOL     OW27854   7.436   0.187   1.135
 5952SOL    HW127855   7.340   0.212   1.147
 5952SOL    HW227856   7.455   0.165   1.040
 5953SOL     OW27857   0.778   2.193   6.509
 5953SOL    HW127858   0.850   2.256   6.537
 5953SOL    HW227859   0.695   2.243   6.485
 5954SOL     OW27860   8.000   1.913   3.713
 5954SOL    HW127861   8.000   2.008   3.743
 5954SOL    HW227862   7.920   1.896   3.655
 5955SOL     OW27863   6.582   1.000   3.606
 5955SOL    HW127864   6.517   0.969   3.676
 5955SOL    HW227865   6.613   1.093   3.627
 5956SOL     OW27866   0.580   5.556   4.139
 5956SOL    HW127867   0.647   5.522   4.073
 5956SOL    HW227868   0.612   5.640   4.181
 5957SOL     OW27869   2.147   6.102   1.338
 5957SOL    HW127870   2.122   6.140   1.427
 5957SOL    HW227871   2.242   6.124   1.316
 5958SOL     OW27872   4.140   2.484   1.013
 5958SOL    HW127873   4.215   2.423   1.038
 5958SOL    HW227874   4.171   2.579   1.016
 5959SOL     OW27875   3.769   0.553   4.578
 5959SOL    HW127876   3.765   0.477   4.513
 5959SOL    HW227877   3.831   0.624   4.544
 5960SOL     OW27878   1.835   2.575   7.373
 5960SOL    HW127879   1.786   2.641   7.430
 5960SOL    HW227880   1.843   2.609   7.280
 5961SOL     OW27881   7.890   3.061   7.264
 5961SOL    HW127882   7.946   3.133   7.304
 5961SOL    HW227883   7.864   3.086   7.170
 5962SOL     OW27884   6.245   3.784   0.109
 5962SOL    HW127885   6.299   3.859   0.073
 5962SOL    HW227886   6.258   3.776   0.208
 5963SOL     OW27887   7.332   4.409   7.550
 5963SOL    HW127888   7.358   4.314   7.530
 5963SOL    HW227889   7.300   4.416   7.645
 5964SOL     OW27890   6.081   2.675   7.188
 5964SOL    HW127891   6.048   2.612   7.259
 5964SOL    HW227892   6.164   2.721   7.219
 5965SOL     OW27893   5.034   1.301   5.490
 5965SOL    HW127894   5.097   1.370   5.527
 5965SOL    HW227895   5.002   1.331   5.400
 5966SOL     OW27896   0.404   7.646   1.972
 5966SOL    HW127897   0.360   7.574   1.917
 5966SOL    HW227898   0.334   7.701   2.018
 5967SOL     OW27899   7.211   0.006   5.498
 5967SOL    HW127900   7.300   0.012   5.543
 5967SOL    HW227901   7.179   0.097   5.474
 5968SOL     OW27902   7.234   5.830   4.784
 5968SOL    HW127903   7.153   5.886   4.800
 5968SOL    HW227904   7.228   5.787   4.694
 5969SOL     OW27905   6.929   2.020   4.104
 5969SOL    HW127906   6.973   1.981   4.185
 5969SOL    HW227907   6.834   2.044   4.125
 5970SOL     OW27908   3.455   5.585   6.612
 5970SOL    HW127909   3.525   5.527   6.569
 5970SOL    HW227910   3.474   5.595   6.710
 5971SOL     OW27911   4.634   1.709   3.362
 5971SOL    HW127912   4.614   1.703   3.460
 5971SOL    HW227913   4.733   1.709   3.347
 5972SOL     OW27914   0.290   6.830   7.698
 5972SOL    HW127915   0.269   6.765   7.771
 5972SOL    HW227916   0.380   6.809   7.658
 5973SOL     OW27917   5.331   7.695   5.439
 5973SOL    HW127918   5.392   7.774   5.445
 5973SOL    HW227919   5.362   7.622   5.500
 5974SOL     OW27920   5.256   0.943   2.588
 5974SOL    HW127921   5.187   0.957   2.517
 5974SOL    HW227922   5.347   0.961   2.551
 5975SOL     OW27923   3.992   7.283   6.671
 5975SOL    HW127924   3.942   7.358   6.713
 5975SOL    HW227925   4.089   7.291   6.694
 5976SOL     OW27926   7.379   6.949   0.250
 5976SOL    HW127927   7.302   7.010   0.265
 5976SOL    HW227928   7.442   6.955   0.328
 5977SOL     OW27929   3.184   0.895   2.745
 5977SOL    HW127930   3.144   0.983   2.770
 5977SOL    HW227931   3.216   0.847   2.827
 5978SOL     OW27932   3.436   7.338   2.701
 5978SOL    HW127933   3.534   7.318   2.697
 5978SOL    HW227934   3.418   7.415   2.762
 5979SOL     OW27935   1.258   1.434   1.519
 5979SOL    HW127936   1.301   1.497   1.454
 5979SOL    HW227937   1.302   1.441   1.608
 5980SOL     OW27938   3.553   1.984   6.117
 5980SOL    HW127939   3.524   1.888   6.126
 5980SOL    HW227940   3.623   1.992   6.047
 5981SOL     OW27941   3.843   2.574   6.229
 5981SOL    HW127942   3.866   2.647   6.164
 5981SOL    HW227943   3.775   2.608   6.294
 5982SOL     OW27944   7.289   4.835   3.655
 5982SOL    HW127945   7.378   4.797   3.629
 5982SOL    HW227946   7.216   4.785   3.609
 5983SOL     OW27947   7.670   5.863   5.772
 5983SOL    HW127948   7.577   5.852   5.808
 5983SOL    HW227949   7.678   5.816   5.684
 5984SOL     OW27950   1.627   3.606   6.959
 5984SOL    HW127951   1.622   3.645   6.867
 5984SOL    HW227952   1.720   3.577   6.979
 5985SOL     OW27953   2.013   2.925   3.586
 5985SOL    HW127954   1.986   2.891   3.496
 5985SOL    HW227955   1.948   2.994   3.617
 5986SOL     OW27956   7.073   3.241   4.556
 5986SOL    HW127957   7.129   3.188   4.492
 5986SOL    HW227958   7.132   3.292   4.619
 5987SOL     OW27959   6.853   3.013   5.907
 5987SOL    HW127960   6.928   2.984   5.847
 5987SOL    HW227961   6.825   3.106   5.884
 5988SOL     OW27962   2.052   2.005   5.331
 5988SOL    HW127963   2.008   1.931   5.382
 5988SOL    HW227964   2.130   1.969   5.280
 5989SOL     OW27965   4.824   4.188   0.509
 5989SOL    HW127966   4.922   4.198   0.488
 5989SOL    HW227967   4.813   4.141   0.597
 5990SOL     OW27968   0.574   2.484   7.387
 5990SOL    HW127969   0.569   2.581   7.407
 5990SOL    HW227970   0.482   2.448   7.369
 5991SOL     OW27971   0.896   1.161   0.794
 5991SOL    HW127972   0.852   1.137   0.881
 5991SOL    HW227973   0.827   1.188   0.727
 5992SOL     OW27974   5.393   0.853   0.050
 5992SOL    HW127975   5.300   0.839   0.016
 5992SOL    HW227976   5.450   0.774   0.027
 5993SOL     OW27977   7.510   1.314   7.828
 5993SOL    HW127978   7.503   1.409   7.797
 5993SOL    HW227979   7.531   1.311   7.925
 5994SOL     OW27980   3.211   4.618   5.851
 5994SOL    HW127981   3.119   4.657   5.840
 5994SOL    HW227982   3.214   4.527   5.810
 5995SOL     OW27983   0.935   6.540   6.612
 5995SOL    HW127984   0.988   6.602   6.554
 5995SOL    HW227985   0.922   6.581   6.702
 5996SOL     OW27986   7.518   1.748   5.909
 5996SOL    HW127987   7.518   1.650   5.927
 5996SOL    HW227988   7.592   1.771   5.846
 5997SOL     OW27989   3.807   5.788   6.036
 5997SOL    HW127990   3.878   5.856   6.056
 5997SOL    HW227991   3.720   5.817   6.076
 5998SOL     OW27992   6.563  -0.000   5.105
 5998SOL    HW127993   6.478   0.026   5.060
 5998SOL    HW227994   6.622   0.079   5.117
 5999SOL     OW27995   7.652   2.584   0.440
 5999SOL    HW127996   7.578   2.630   0.390
 5999SOL    HW227997   7.734   2.640   0.438
 6000SOL     OW27998   5.487   3.779   6.281
 6000SOL    HW127999   5.404   3.819   6.242
 6000SOL    HW228000   5.471   3.682   6.303
 6001SOL     OW28001   4.484   5.019   7.162
 6001SOL    HW128002   4.539   5.058   7.235
 6001SOL    HW228003   4.390   5.003   7.195
 6002SOL     OW28004   6.603   0.410   5.538
 6002SOL    HW128005   6.561   0.322   5.561
 6002SOL    HW228006   6.634   0.410   5.444
 6003SOL     OW28007   6.810   0.896   6.759
 6003SOL    HW128008   6.862   0.945   6.829
 6003SOL    HW228009   6.737   0.954   6.723
 6004SOL     OW28010   1.684   7.897   0.459
 6004SOL    HW128011   1.757   7.839   0.496
 6004SOL    HW228012   1.708   7.927   0.367
 6005SOL     OW28013   1.976   1.792   7.603
 6005SOL    HW128014   1.979   1.725   7.529
 6005SOL    HW228015   1.990   1.884   7.567
 6006SOL     OW28016   4.040   3.636   3.257
 6006SOL    HW128017   4.007   3.572   3.188
 6006SOL    HW228018   4.087   3.713   3.213
 6007SOL     OW28019   5.023   7.958   7.271
 6007SOL    HW128020   4.979   7.874   7.240
 6007SOL    HW228021   4.989   7.982   7.363
 6008SOL     OW28022   3.479   6.874   4.291
 6008SOL    HW128023   3.519   6.848   4.378
 6008SOL    HW228024   3.551   6.891   4.224
 6009SOL     OW28025   7.707   0.099   1.174
 6009SOL    HW128026   7.664   0.160   1.108
 6009SOL    HW228027   7.805   0.121   1.182
 6010SOL     OW28028   1.966   6.269   4.213
 6010SOL    HW128029   1.960   6.299   4.309
 6010SOL    HW228030   2.044   6.208   4.201
 6011SOL     OW28031   7.004   7.313   3.978
 6011SOL    HW128032   7.006   7.226   3.929
 6011SOL    HW228033   7.097   7.351   3.982
 6012SOL     OW28034   2.627   3.901   7.731
 6012SOL    HW128035   2.696   3.857   7.788
 6012SOL    HW228036   2.570   3.832   7.686
 6013SOL     OW28037   6.298   3.239   6.938
 6013SOL    HW128038   6.219   3.299   6.953
 6013SOL    HW228039   6.268   3.146   6.919
 6014SOL     OW28040   7.317   5.040   1.581
 6014SOL    HW128041   7.261   4.973   1.631
 6014SOL    HW228042   7.337   5.006   1.490
 6015SOL     OW28043   3.156   3.807   6.113
 6015SOL    HW128044   3.239   3.778   6.065
 6015SOL    HW228045   3.136   3.746   6.189
 6016SOL     OW28046   0.241   1.008   5.795
 6016SOL    HW128047   0.202   1.089   5.752
 6016SOL    HW228048   0.298   1.035   5.873
 6017SOL     OW28049   3.979   2.768   4.312
 6017SOL    HW128050   3.962   2.856   4.358
 6017SOL    HW228051   4.071   2.767   4.273
 6018SOL     OW28052   6.268   4.368   7.091
 6018SOL    HW128053   6.232   4.459   7.112
 6018SOL    HW228054   6.207   4.321   7.028
 6019SOL     OW28055   0.189   1.650   6.357
 6019SOL    HW128056   0.262   1.581   6.350
 6019SOL    HW228057   0.173   1.691   6.268
 6020SOL     OW28058   7.428   4.813   1.586
 6020SOL    HW128059   7.474   4.733   1.625
 6020SOL    HW228060   7.391   4.790   1.496
 6021SOL     OW28061   0.036   0.370   1.526
 6021SOL    HW128062   0.110   0.432   1.553
 6021SOL    HW228063   0.048   0.282   1.571
 6022SOL     OW28064   2.913   2.771   6.320
 6022SOL    HW128065   2.834   2.738   6.373
 6022SOL    HW228066   2.945   2.699   6.259
 6023SOL     OW28067   5.261   4.808   5.747
 6023SOL    HW128068   5.343   4.865   5.752
 6023SOL    HW228069   5.282   4.715   5.777
 6024SOL     OW28070   7.245   6.508   5.075
 6024SOL    HW128071   7.317   6.444   5.100
 6024SOL    HW228072   7.281   6.578   5.013
 6025SOL     OW28073   6.044   0.292   1.306
 6025SOL    HW128074   5.947   0.307   1.327
 6025SOL    HW228075   6.089   0.380   1.288
 6026SOL     OW28076   7.837   6.236   0.728
 6026SOL    HW128077   7.801   6.320   0.687
 6026SOL    HW228078   7.935   6.244   0.743
 6027SOL     OW28079   2.180   4.339   4.796
 6027SOL    HW128080   2.269   4.333   4.842
 6027SOL    HW228081   2.193   4.365   4.700
 6028SOL     OW28082   0.068   1.961   4.118
 6028SOL    HW128083   0.143   2.026   4.110
 6028SOL    HW228084   0.059   1.930   4.213
 6029SOL     OW28085   3.416   2.695   3.219
 6029SOL    HW128086   3.428   2.785   3.177
 6029SOL    HW228087   3.452   2.697   3.313
 6030SOL     OW28088   5.140   4.540   6.841
 6030SOL    HW128089   5.187   4.545   6.929
 6030SOL    HW228090   5.071   4.613   6.835
 6031SOL     OW28091   2.560   2.244   6.002
 6031SOL    HW128092   2.577   2.151   6.035
 6031SOL    HW228093   2.636   2.273   5.943
 6032SOL     OW28094   1.438   4.552   2.035
 6032SOL    HW128095   1.382   4.523   1.957
 6032SOL    HW228096   1.378   4.589   2.107
 6033SOL     OW28097   3.148   4.428   5.288
 6033SOL    HW128098   3.177   4.339   5.326
 6033SOL    HW228099   3.176   4.435   5.193
 6034SOL     OW28100   2.891   4.490   7.615
 6034SOL    HW128101   2.981   4.447   7.603
 6034SOL    HW228102   2.901   4.589   7.618
 6035SOL     OW28103   7.330   1.529   4.278
 6035SOL    HW128104   7.327   1.536   4.179
 6035SOL    HW228105   7.241   1.553   4.317
 6036SOL     OW28106   4.222   7.431   0.727
 6036SOL    HW128107   4.129   7.408   0.697
 6036SOL    HW228108   4.255   7.362   0.791
 6037SOL     OW28109   3.112   4.387   7.343
 6037SOL    HW128110   3.183   4.351   7.282
 6037SOL    HW228111   3.077   4.314   7.401
 6038SOL     OW28112   4.700   6.288   6.230
 6038SOL    HW128113   4.644   6.371   6.240
 6038SOL    HW228114   4.766   6.299   6.156
 6039SOL     OW28115   4.644   2.566   5.926
 6039SOL    HW128116   4.659   2.495   5.995
 6039SOL    HW228117   4.572   2.628   5.956
 6040SOL     OW28118   0.075   7.974   6.420
 6040SOL    HW128119   0.139   8.000   6.348
 6040SOL    HW228120  -0.000   7.920   6.382
 6041SOL     OW28121   4.593   3.846   3.546
 6041SOL    HW128122   4.617   3.941   3.528
 6041SOL    HW228123   4.556   3.837   3.639
 6042SOL     OW28124   4.755   6.119   7.453
 6042SOL    HW128125   4.761   6.050   7.380
 6042SOL    HW228126   4.814   6.197   7.431
 6043SOL     OW28127   4.344   5.089   0.498
 6043SOL    HW128128   4.301   5.173   0.533
 6043SOL    HW228129   4.311   5.070   0.406
 6044SOL     OW28130   6.217   2.191   7.146
 6044SOL    HW128131   6.166   2.267   7.188
 6044SOL    HW228132   6.184   2.176   7.053
 6045SOL     OW28133   1.744   7.502   7.518
 6045SOL    HW128134   1.741   7.584   7.461
 6045SOL    HW228135   1.706   7.522   7.608
 6046SOL     OW28136   6.768   5.094   2.692
 6046SOL    HW128137   6.719   5.021   2.645
 6046SOL    HW228138   6.710   5.175   2.697
 6047SOL     OW28139   1.906   1.910   3.251
 6047SOL    HW128140   1.943   2.003   3.247
 6047SOL    HW228141   1.816   1.907   3.208
 6048SOL     OW28142   3.315   2.164   5.580
 6048SOL    HW128143   3.353   2.129   5.495
 6048SOL    HW228144   3.307   2.090   5.647
 6049SOL     OW28145   6.237   0.644   6.479
 6049SOL    HW128146   6.302   0.716   6.505
 6049SOL    HW228147   6.280   0.554   6.490
 6050SOL     OW28148   7.582   5.411   1.000
 6050SOL    HW128149   7.509   5.351   1.030
 6050SOL    HW228150   7.612   5.387   0.908
 6051SOL     OW28151   0.135   2.460   1.196
 6051SOL    HW128152   0.083   2.380   1.167
 6051SOL    HW228153   0.074   2.529   1.236
 6052SOL     OW28154   7.435   6.494   2.214
 6052SOL    HW128155   7.484   6.408   2.227
 6052SOL    HW228156   7.358   6.500   2.278
 6053SOL     OW28157   7.637   3.718   4.779
 6053SOL    HW128158   7.639   3.809   4.819
 6053SOL    HW228159   7.652   3.724   4.680
 6054SOL     OW28160   0.604   4.468   7.932
 6054SOL    HW128161   0.695   4.507   7.920
 6054SOL    HW228162   0.553   4.520   8.000
 6055SOL     OW28163   3.379   4.821   6.603
 6055SOL    HW128164   3.476   4.798   6.591
 6055SOL    HW228165   3.327   4.739   6.623
 6056SOL     OW28166   5.799   1.778   7.658
 6056SOL    HW128167   5.841   1.733   7.737
 6056SOL    HW228168   5.867   1.796   7.588
 6057SOL     OW28169   4.444   5.714   3.775
 6057SOL    HW128170   4.418   5.810   3.788
 6057SOL    HW228171   4.403   5.678   3.692
 6058SOL     OW28172   4.056   7.505   7.470
 6058SOL    HW128173   4.037   7.603   7.479
 6058SOL    HW228174   4.127   7.478   7.534
 6059SOL     OW28175   2.758   1.516   0.699
 6059SOL    HW128176   2.829   1.579   0.667
 6059SOL    HW228177   2.800   1.434   0.738
 6060SOL     OW28178   6.995   2.091   5.211
 6060SOL    HW128179   7.056   2.170   5.206
 6060SOL    HW228180   7.048   2.007   5.212
 6061SOL     OW28181   3.628   5.418   2.892
 6061SOL    HW128182   3.567   5.378   2.823
 6061SOL    HW228183   3.644   5.352   2.965
 6062SOL     OW28184   3.123   3.547   6.821
 6062SOL    HW128185   3.124   3.452   6.853
 6062SOL    HW228186   3.062   3.556   6.742
 6063SOL     OW28187   6.642   5.198   7.950
 6063SOL    HW128188   6.646   5.112   8.000
 6063SOL    HW228189   6.688   5.189   7.862
 6064SOL     OW28190   7.349   3.320   0.832
 6064SOL    HW128191   7.381   3.255   0.763
 6064SOL    HW228192   7.340   3.411   0.792
 6065SOL     OW28193   0.471   3.528   4.462
 6065SOL    HW128194   0.555   3.580   4.473
 6065SOL    HW228195   0.447   3.523   4.365
 6066SOL     OW28196   1.207   4.271   6.968
 6066SOL    HW128197   1.273   4.345   6.958
 6066SOL    HW228198   1.123   4.305   7.009
 6067SOL     OW28199   0.126   6.674   2.187
 6067SOL    HW128200   0.143   6.588   2.236
 6067SOL    HW228201   0.200   6.693   2.124
 6068SOL     OW28202   6.035   6.146   0.904
 6068SOL    HW128203   6.046   6.052   0.938
 6068SOL    HW228204   6.019   6.146   0.806
 6069SOL     OW28205   4.075   4.435   6.918
 6069SOL    HW128206   4.175   4.431   6.909
 6069SOL    HW228207   4.047   4.528   6.942
 6070SOL     OW28208   7.417   0.864   3.795
 6070SOL    HW128209   7.495   0.912   3.836
 6070SOL    HW228210   7.415   0.770   3.826
 6071SOL     OW28211   7.602   3.958   3.657
 6071SOL    HW128212   7.597   4.058   3.647
 6071SOL    HW228213   7.510   3.920   3.662
 6072SOL     OW28214   0.412   0.085   2.777
 6072SOL    HW128215   0.464  -0.000   2.777
 6072SOL    HW228216   0.420   0.130   2.688
 6073SOL     OW28217   0.389   6.519   6.206
 6073SOL    HW128218   0.470   6.578   6.203
 6073SOL    HW228219   0.331   6.537   6.127
 6074SOL     OW28220   1.948   2.148   6.283
 6074SOL    HW128221   1.979   2.237   6.316
 6074SOL    HW228222   1.919   2.155   6.187
 6075SOL     OW28223   2.018   5.694   4.907
 6075SOL    HW128224   2.086   5.654   4.845
 6075SOL    HW228225   2.024   5.651   4.997
 6076SOL     OW28226   2.338   6.825   4.942
 6076SOL    HW128227   2.240   6.846   4.950
 6076SOL    HW228228   2.353   6.764   4.864
 6077SOL     OW28229   2.983   5.442   6.383
 6077SOL    HW128230   3.010   5.491   6.301
 6077SOL    HW228231   3.064   5.419   6.438
 6078SOL     OW28232   6.180   7.104   1.325
 6078SOL    HW128233   6.271   7.065   1.341
 6078SOL    HW228234   6.113   7.061   1.386
 6079SOL     OW28235   1.989   7.545   7.450
 6079SOL    HW128236   2.038   7.626   7.483
 6079SOL    HW228237   1.963   7.486   7.526
 6080SOL     OW28238   7.680   4.245   6.558
 6080SOL    HW128239   7.623   4.187   6.617
 6080SOL    HW228240   7.749   4.292   6.614
 6081SOL     OW28241   4.967   6.115   3.630
 6081SOL    HW128242   4.890   6.110   3.566
 6081SOL    HW228243   5.036   6.179   3.595
 6082SOL     OW28244   4.037   2.131   6.343
 6082SOL    HW128245   4.124   2.081   6.352
 6082SOL    HW228246   3.982   2.119   6.425
 6083SOL     OW28247   5.316   3.450   7.812
 6083SOL    HW128248   5.317   3.375   7.878
 6083SOL    HW228249   5.333   3.415   7.720
 6084SOL     OW28250   2.634   6.233   4.165
 6084SOL    HW128251   2.561   6.181   4.210
 6084SOL    HW228252   2.686   6.284   4.234
 6085SOL     OW28253   1.694   0.585   6.681
 6085SOL    HW128254   1.717   0.652   6.751
 6085SOL    HW228255   1.770   0.520   6.670
 6086SOL     OW28256   7.734   7.548   6.153
 6086SOL    HW128257   7.732   7.644   6.182
 6086SOL    HW228258   7.712   7.541   6.056
 6087SOL     OW28259   7.723   2.111   7.815
 6087SOL    HW128260   7.693   2.022   7.850
 6087SOL    HW228261   7.739   2.105   7.716
 6088SOL     OW28262   7.437   5.799   1.091
 6088SOL    HW128263   7.479   5.724   1.141
 6088SOL    HW228264   7.508   5.852   1.044
 6089SOL     OW28265   3.111   4.646   5.418
 6089SOL    HW128266   3.068   4.560   5.445
 6089SOL    HW228267   3.095   4.663   5.320
 6090SOL     OW28268   1.504   5.759   5.375
 6090SOL    HW128269   1.405   5.765   5.387
 6090SOL    HW228270   1.544   5.851   5.377
 6091SOL     OW28271   6.639   7.426   5.050
 6091SOL    HW128272   6.728   7.395   5.086
 6091SOL    HW228273   6.650   7.512   5.001
 6092SOL     OW28274   5.086   3.230   2.374
 6092SOL    HW128275   5.092   3.322   2.411
 6092SOL    HW228276   5.043   3.232   2.284
 6093SOL     OW28277   0.369   1.806   3.898
 6093SOL    HW128278   0.390   1.853   3.813
 6093SOL    HW228279   0.444   1.745   3.923
 6094SOL     OW28280   2.663   7.205   2.321
 6094SOL    HW128281   2.662   7.121   2.375
 6094SOL    HW228282   2.739   7.263   2.350
 6095SOL     OW28283   7.981   0.403   7.022
 6095SOL    HW128284   7.995   0.460   7.103
 6095SOL    HW228285   7.946   0.458   6.946
 6096SOL     OW28286   7.310   4.664   0.692
 6096SOL    HW128287   7.214   4.669   0.662
 6096SOL    HW228288   7.318   4.691   0.787
 6097SOL     OW28289   1.708   6.580   0.631
 6097SOL    HW128290   1.709   6.680   0.639
 6097SOL    HW228291   1.700   6.539   0.721
 6098SOL     OW28292   4.504   1.307   2.777
 6098SOL    HW128293   4.558   1.378   2.823
 6098SOL    HW228294   4.455   1.346   2.700
 6099SOL     OW28295   2.057   2.315   3.321
 6099SOL    HW128296   2.002   2.232   3.334
 6099SOL    HW228297   2.135   2.315   3.384
 6100SOL     OW28298   4.405   6.572   3.830
 6100SOL    HW128299   4.318   6.598   3.871
 6100SOL    HW228300   4.391   6.547   3.734
 6101SOL     OW28301   3.700   6.428   3.472
 6101SOL    HW128302   3.627   6.496   3.466
 6101SOL    HW228303   3.741   6.414   3.382
 6102SOL     OW28304   3.908   7.069   0.246
 6102SOL    HW128305   3.989   7.128   0.244
 6102SOL    HW228306   3.845   7.100   0.316
 6103SOL     OW28307   6.225   3.255   4.730
 6103SOL    HW128308   6.301   3.198   4.698
 6103SOL    HW228309   6.181   3.211   4.808
 6104SOL     OW28310   7.301   6.597   0.096
 6104SOL    HW128311   7.228   6.528   0.103
 6104SOL    HW228312   7.326   6.609  -0.000
 6105SOL     OW28313   5.064   4.405   4.706
 6105SOL    HW128314   5.089   4.501   4.715
 6105SOL    HW228315   5.000   4.393   4.630
 6106SOL     OW28316   4.442   6.261   4.881
 6106SOL    HW128317   4.508   6.195   4.918
 6106SOL    HW228318   4.470   6.288   4.789
 6107SOL     OW28319   6.014   2.563   3.647
 6107SOL    HW128320   6.111   2.587   3.639
 6107SOL    HW228321   6.003   2.464   3.644
 6108SOL     OW28322   0.773   4.775   2.691
 6108SOL    HW128323   0.819   4.853   2.734
 6108SOL    HW228324   0.836   4.697   2.686
 6109SOL     OW28325   3.902   1.056   4.576
 6109SOL    HW128326   4.002   1.059   4.562
 6109SOL    HW228327   3.856   1.028   4.492
 6110SOL     OW28328   2.899   1.328   2.560
 6110SOL    HW128329   2.810   1.348   2.519
 6110SOL    HW228330   2.892   1.250   2.622
 6111SOL     OW28331   1.788   3.986   6.892
 6111SOL    HW128332   1.705   3.967   6.839
 6111SOL    HW228333   1.804   3.913   6.958
 6112SOL     OW28334   4.223   3.276   4.358
 6112SOL    HW128335   4.153   3.318   4.300
 6112SOL    HW228336   4.224   3.319   4.448
 6113SOL     OW28337   1.906   1.273   2.543
 6113SOL    HW128338   1.847   1.197   2.572
 6113SOL    HW228339   1.979   1.240   2.484
 6114SOL     OW28340   5.650   4.108   6.728
 6114SOL    HW128341   5.592   4.190   6.734
 6114SOL    HW228342   5.617   4.039   6.792
 6115SOL     OW28343   4.768   0.369   3.123
 6115SOL    HW128344   4.761   0.276   3.088
 6115SOL    HW228345   4.862   0.386   3.155
 6116SOL     OW28346   3.264   6.847   1.824
 6116SOL    HW128347   3.221   6.773   1.772
 6116SOL    HW228348   3.208   6.872   1.903
 6117SOL     OW28349   6.742   0.334   5.232
 6117SOL    HW128350   6.826   0.384   5.209
 6117SOL    HW228351   6.718   0.273   5.156
 6118SOL     OW28352   3.546   2.692   6.283
 6118SOL    HW128353   3.558   2.594   6.264
 6118SOL    HW228354   3.596   2.717   6.366
 6119SOL     OW28355   3.618   4.136   1.485
 6119SOL    HW128356   3.543   4.200   1.467
 6119SOL    HW228357   3.581   4.047   1.511
 6120SOL     OW28358   0.118   6.764   3.930
 6120SOL    HW128359   0.124   6.861   3.911
 6120SOL    HW228360   0.113   6.712   3.845
 6121SOL     OW28361   1.603   4.590   7.232
 6121SOL    HW128362   1.580   4.667   7.292
 6121SOL    HW228363   1.701   4.591   7.212
 6122SOL     OW28364   2.138   5.225   5.731
 6122SOL    HW128365   2.186   5.254   5.814
 6122SOL    HW228366   2.140   5.297   5.663
 6123SOL     OW28367   1.844   6.969   3.948
 6123SOL    HW128368   1.881   6.878   3.969
 6123SOL    HW228369   1.752   6.978   3.987
 6124SOL     OW28370   4.848   7.915   1.221
 6124SOL    HW128371   4.876   7.942   1.314
 6124SOL    HW228372   4.839   7.816   1.216
 6125SOL     OW28373   4.339   2.849   2.975
 6125SOL    HW128374   4.439   2.853   2.981
 6125SOL    HW228375   4.311   2.764   2.931
 6126SOL     OW28376   4.619   4.839   4.536
 6126SOL    HW128377   4.522   4.819   4.519
 6126SOL    HW228378   4.667   4.854   4.449
 6127SOL     OW28379   1.099   4.042   0.808
 6127SOL    HW128380   1.192   4.042   0.770
 6127SOL    HW228381   1.033   4.053   0.734
 6128SOL     OW28382   7.426   0.003   1.255
 6128SOL    HW128383   7.334   0.000   1.217
 6128SOL    HW228384   7.425   0.043   1.347
 6129SOL     OW28385   4.425   1.671   6.485
 6129SOL    HW128386   4.395   1.747   6.542
 6129SOL    HW228387   4.517   1.641   6.512
 6130SOL     OW28388   4.887   5.676   3.832
 6130SOL    HW128389   4.964   5.668   3.769
 6130SOL    HW228390   4.809   5.623   3.799
 6131SOL     OW28391   3.457   4.535   7.593
 6131SOL    HW128392   3.466   4.500   7.686
 6131SOL    HW228393   3.480   4.464   7.527
 6132SOL     OW28394   5.392   4.362   1.749
 6132SOL    HW128395   5.454   4.393   1.820
 6132SOL    HW228396   5.431   4.284   1.700
 6133SOL     OW28397   3.972   0.458   2.324
 6133SOL    HW128398   3.952   0.553   2.301
 6133SOL    HW228399   3.904   0.423   2.388
 6134SOL     OW28400   3.457   2.215   7.781
 6134SOL    HW128401   3.543   2.170   7.806
 6134SOL    HW228402   3.390   2.146   7.754
 6135SOL     OW28403   7.430   0.066   6.670
 6135SOL    HW128404   7.489  -0.001   6.716
 6135SOL    HW228405   7.464   0.084   6.578
 6136SOL     OW28406   3.589   6.571   7.964
 6136SOL    HW128407   3.661   6.630   8.000
 6136SOL    HW228408   3.509   6.626   7.940
 6137SOL     OW28409   0.619   1.050   3.415
 6137SOL    HW128410   0.631   1.001   3.502
 6137SOL    HW228411   0.523   1.049   3.388
 6138SOL     OW28412   0.753   2.770   4.882
 6138SOL    HW128413   0.739   2.677   4.847
 6138SOL    HW228414   0.673   2.826   4.863
 6139SOL     OW28415   6.653   3.185   6.856
 6139SOL    HW128416   6.586   3.192   6.931
 6139SOL    HW228417   6.679   3.276   6.824
 6140SOL     OW28418   3.230   2.639   6.366
 6140SOL    HW128419   3.272   2.554   6.333
 6140SOL    HW228420   3.230   2.707   6.293
 6141SOL     OW28421   4.861   0.720   3.562
 6141SOL    HW128422   4.794   0.750   3.494
 6141SOL    HW228423   4.825   0.734   3.654
 6142SOL     OW28424   1.336   7.624   5.504
 6142SOL    HW128425   1.255   7.671   5.539
 6142SOL    HW228426   1.317   7.586   5.414
 6143SOL     OW28427   6.485   2.510   2.602
 6143SOL    HW128428   6.540   2.583   2.562
 6143SOL    HW228429   6.403   2.495   2.547
 6144SOL     OW28430   4.032   6.421   6.638
 6144SOL    HW128431   3.933   6.419   6.653
 6144SOL    HW228432   4.073   6.497   6.688
 6145SOL     OW28433   4.248   5.786   1.543
 6145SOL    HW128434   4.236   5.705   1.485
 6145SOL    HW228435   4.160   5.812   1.583
 6146SOL     OW28436   4.609   7.151   6.971
 6146SOL    HW128437   4.604   7.138   7.070
 6146SOL    HW228438   4.698   7.122   6.937
 6147SOL     OW28439   6.589   3.102   5.238
 6147SOL    HW128440   6.515   3.060   5.291
 6147SOL    HW228441   6.561   3.112   5.142
 6148SOL     OW28442   5.123   1.331   7.832
 6148SOL    HW128443   5.184   1.368   7.763
 6148SOL    HW228444   5.175   1.294   7.909
 6149SOL     OW28445   1.304   2.430   3.514
 6149SOL    HW128446   1.233   2.494   3.487
 6149SOL    HW228447   1.353   2.465   3.595
 6150SOL     OW28448   7.734   2.781   6.174
 6150SOL    HW128449   7.652   2.737   6.213
 6150SOL    HW228450   7.709   2.833   6.093
 6151SOL     OW28451   7.350   7.267   3.848
 6151SOL    HW128452   7.378   7.298   3.939
 6151SOL    HW228453   7.324   7.345   3.791
 6152SOL     OW28454   3.767   5.289   6.382
 6152SOL    HW128455   3.717   5.368   6.345
 6152SOL    HW228456   3.809   5.313   6.469
 6153SOL     OW28457   7.765   0.130   4.472
 6153SOL    HW128458   7.789   0.227   4.484
 6153SOL    HW228459   7.666   0.120   4.467
 6154SOL     OW28460   3.934   5.941   4.447
 6154SOL    HW128461   3.995   5.967   4.371
 6154SOL    HW228462   3.985   5.890   4.516
 6155SOL     OW28463   5.089   1.991   5.885
 6155SOL    HW128464   5.177   1.954   5.857
 6155SOL    HW228465   5.041   1.926   5.943
 6156SOL     OW28466   2.134   5.148   0.586
 6156SOL    HW128467   2.186   5.107   0.661
 6156SOL    HW228468   2.068   5.214   0.622
 6157SOL     OW28469   6.137   7.683   0.657
 6157SOL    HW128470   6.081   7.658   0.735
 6157SOL    HW228471   6.108   7.631   0.576
 6158SOL     OW28472   0.157   2.400   7.480
 6158SOL    HW128473   0.207   2.479   7.444
 6158SOL    HW228474   0.120   2.346   7.405
 6159SOL     OW28475   3.456   5.470   3.841
 6159SOL    HW128476   3.467   5.443   3.937
 6159SOL    HW228477   3.526   5.537   3.816
 6160SOL     OW28478   7.709   0.041   3.455
 6160SOL    HW128479   7.798   0.072   3.419
 6160SOL    HW228480   7.713   0.035   3.555
 6161SOL     OW28481   5.232   4.435   0.664
 6161SOL    HW128482   5.288   4.517   0.667
 6161SOL    HW228483   5.137   4.459   0.647
 6162SOL     OW28484   3.332   1.490   3.441
 6162SOL    HW128485   3.256   1.428   3.462
 6162SOL    HW228486   3.368   1.470   3.349
 6163SOL     OW28487   4.533   3.478   2.441
 6163SOL    HW128488   4.445   3.453   2.480
 6163SOL    HW228489   4.574   3.399   2.395
 6164SOL     OW28490   0.625   1.407   3.814
 6164SOL    HW128491   0.721   1.418   3.842
 6164SOL    HW228492   0.620   1.380   3.718
 6165SOL     OW28493   2.401   1.391   2.273
 6165SOL    HW128494   2.416   1.325   2.199
 6165SOL    HW228495   2.382   1.342   2.359
 6166SOL     OW28496   6.685   1.559   1.519
 6166SOL    HW128497   6.758   1.492   1.505
 6166SOL    HW228498   6.643   1.582   1.431
 6167SOL     OW28499   6.307   7.546   6.315
 6167SOL    HW128500   6.370   7.472   6.339
 6167SOL    HW228501   6.320   7.572   6.219
 6168SOL     OW28502   2.177   3.406   1.085
 6168SOL    HW128503   2.094   3.454   1.056
 6168SOL    HW228504   2.252   3.427   1.023
 6169SOL     OW28505   6.222   3.354   5.163
 6169SOL    HW128506   6.237   3.255   5.165
 6169SOL    HW228507   6.212   3.389   5.256
 6170SOL     OW28508   1.908   1.767   1.889
 6170SOL    HW128509   1.831   1.800   1.944
 6170SOL    HW228510   1.933   1.835   1.821
 6171SOL     OW28511   6.956   2.370   1.640
 6171SOL    HW128512   6.973   2.278   1.676
 6171SOL    HW228513   6.901   2.423   1.704
 6172SOL     OW28514   0.287   1.998   0.236
 6172SOL    HW128515   0.234   1.995   0.152
 6172SOL    HW228516   0.358   1.927   0.233
 6173SOL     OW28517   3.543   0.627   0.851
 6173SOL    HW128518   3.639   0.657   0.851
 6173SOL    HW228519   3.484   0.705   0.831
 6174SOL     OW28520   1.497   1.249   0.582
 6174SOL    HW128521   1.586   1.205   0.571
 6174SOL    HW228522   1.463   1.234   0.675
 6175SOL     OW28523   6.587   3.993   1.504
 6175SOL    HW128524   6.540   4.082   1.504
 6175SOL    HW228525   6.551   3.936   1.577
 6176SOL     OW28526   7.696   6.640   7.688
 6176SOL    HW128527   7.678   6.636   7.786
 6176SOL    HW228528   7.734   6.729   7.664
 6177SOL     OW28529   0.620   5.465   3.296
 6177SOL    HW128530   0.682   5.409   3.241
 6177SOL    HW228531   0.648   5.462   3.392
 6178SOL     OW28532   5.042   7.238   6.298
 6178SOL    HW128533   5.011   7.199   6.211
 6178SOL    HW228534   5.038   7.337   6.294
 6179SOL     OW28535   6.864   4.739   5.104
 6179SOL    HW128536   6.845   4.836   5.091
 6179SOL    HW228537   6.886   4.721   5.200
 6180SOL     OW28538   6.242   0.460   6.981
 6180SOL    HW128539   6.152   0.486   7.018
 6180SOL    HW228540   6.236   0.453   6.881
 6181SOL     OW28541   6.098   0.459   4.931
 6181SOL    HW128542   6.003   0.442   4.905
 6181SOL    HW228543   6.102   0.500   5.022
 6182SOL     OW28544   0.665   6.766   6.666
 6182SOL    HW128545   0.603   6.829   6.621
 6182SOL    HW228546   0.697   6.805   6.753
 6183SOL     OW28547   7.156   0.442   0.098
 6183SOL    HW128548   7.247   0.451   0.140
 6183SOL    HW228549   7.164   0.447  -0.001
 6184SOL     OW28550   7.615   1.257   6.127
 6184SOL    HW128551   7.553   1.182   6.154
 6184SOL    HW228552   7.635   1.251   6.029
 6185SOL     OW28553   0.223   1.249   5.587
 6185SOL    HW128554   0.126   1.234   5.564
 6185SOL    HW228555   0.280   1.234   5.507
 6186SOL     OW28556   2.978   0.683   7.506
 6186SOL    HW128557   2.881   0.673   7.485
 6186SOL    HW228558   3.022   0.741   7.438
 6187SOL     OW28559   5.055   2.506   0.985
 6187SOL    HW128560   5.086   2.426   0.933
 6187SOL    HW228561   5.133   2.552   1.027
 6188SOL     OW28562   2.379   4.810   5.341
 6188SOL    HW128563   2.403   4.864   5.260
 6188SOL    HW228564   2.284   4.781   5.337
 6189SOL     OW28565   6.959   0.093   7.025
 6189SOL    HW128566   6.930   0.131   6.937
 6189SOL    HW228567   7.016   0.012   7.011
 6190SOL     OW28568   5.389   0.370   0.564
 6190SOL    HW128569   5.390   0.338   0.659
 6190SOL    HW228570   5.482   0.374   0.529
 6191SOL     OW28571   6.742   2.533   7.198
 6191SOL    HW128572   6.750   2.475   7.279
 6191SOL    HW228573   6.659   2.589   7.204
 6192SOL     OW28574   4.926   5.813   2.472
 6192SOL    HW128575   4.978   5.731   2.497
 6192SOL    HW228576   4.987   5.882   2.434
 6193SOL     OW28577   4.382   4.241   2.608
 6193SOL    HW128578   4.367   4.334   2.644
 6193SOL    HW228579   4.365   4.174   2.680
 6194SOL     OW28580   1.693   1.705   2.124
 6194SOL    HW128581   1.637   1.783   2.153
 6194SOL    HW228582   1.657   1.668   2.039
 6195SOL     OW28583   2.767   5.284   6.439
 6195SOL    HW128584   2.814   5.217   6.380
 6195SOL    HW228585   2.670   5.262   6.445
 6196SOL     OW28586   4.280   7.697   7.791
 6196SOL    HW128587   4.332   7.623   7.834
 6196SOL    HW228588   4.185   7.670   7.779
 6197SOL     OW28589   4.897   2.138   4.685
 6197SOL    HW128590   4.837   2.058   4.678
 6197SOL    HW228591   4.846   2.220   4.661
 6198SOL     OW28592   5.241   1.712   5.770
 6198SOL    HW128593   5.325   1.763   5.791
 6198SOL    HW228594   5.247   1.621   5.811
 6199SOL     OW28595   2.456   7.907   3.632
 6199SOL    HW128596   2.459   7.955   3.719
 6199SOL    HW228597   2.407   7.961   3.564
 6200SOL     OW28598   0.932   5.628   6.262
 6200SOL    HW128599   0.921   5.533   6.233
 6200SOL    HW228600   0.947   5.687   6.183
 6201SOL     OW28601   4.821   4.319   6.278
 6201SOL    HW128602   4.739   4.304   6.223
 6201SOL    HW228603   4.838   4.417   6.288
 6202SOL     OW28604   6.507   3.313   5.070
 6202SOL    HW128605   6.412   3.303   5.040
 6202SOL    HW228606   6.513   3.381   5.143
 6203SOL     OW28607   4.490   3.872   5.747
 6203SOL    HW128608   4.479   3.907   5.654
 6203SOL    HW228609   4.572   3.912   5.788
 6204SOL     OW28610   6.067   6.683   7.947
 6204SOL    HW128611   6.069   6.781   7.928
 6204SOL    HW228612   6.017   6.635   7.875
 6205SOL     OW28613   6.859   3.722   1.483
 6205SOL    HW128614   6.795   3.652   1.451
 6205SOL    HW228615   6.848   3.734   1.582
 6206SOL     OW28616   0.276   2.416   4.608
 6206SOL    HW128617   0.352   2.374   4.659
 6206SOL    HW228618   0.310   2.451   4.521
 6207SOL     OW28619   2.599   5.724   6.466
 6207SOL    HW128620   2.596   5.712   6.366
 6207SOL    HW228621   2.637   5.814   6.487
 6208SOL     OW28622   7.946   5.994   2.345
 6208SOL    HW128623   7.904   6.021   2.432
 6208SOL    HW228624   8.000   6.070   2.308
 6209SOL     OW28625   7.345   5.238   4.646
 6209SOL    HW128626   7.289   5.321   4.639
 6209SOL    HW228627   7.340   5.201   4.738
 6210SOL     OW28628   1.297   0.356   4.367
 6210SOL    HW128629   1.314   0.446   4.327
 6210SOL    HW228630   1.237   0.365   4.447
 6211SOL     OW28631   7.887   0.427   6.594
 6211SOL    HW128632   7.795   0.425   6.633
 6211SOL    HW228633   7.925   0.335   6.589
 6212SOL     OW28634   2.601   5.288   1.477
 6212SOL    HW128635   2.660   5.207   1.480
 6212SOL    HW228636   2.651   5.365   1.437
 6213SOL     OW28637   5.547   7.310   4.277
 6213SOL    HW128638   5.481   7.369   4.231
 6213SOL    HW228639   5.552   7.335   4.374
 6214SOL     OW28640   2.944   2.468   4.647
 6214SOL    HW128641   2.849   2.461   4.679
 6214SOL    HW228642   2.995   2.530   4.707
 6215SOL     OW28643   6.316   7.074   7.040
 6215SOL    HW128644   6.339   6.978   7.023
 6215SOL    HW228645   6.344   7.100   7.132
 6216SOL     OW28646   2.340   3.064   2.222
 6216SOL    HW128647   2.412   2.995   2.235
 6216SOL    HW228648   2.255   3.033   2.266
 6217SOL     OW28649   5.742   6.937   0.690
 6217SOL    HW128650   5.793   6.862   0.732
 6217SOL    HW228651   5.690   6.903   0.611
 6218SOL     OW28652   7.770   0.811   2.755
 6218SOL    HW128653   7.845   0.850   2.810
 6218SOL    HW228654   7.769   0.712   2.764
 6219SOL     OW28655   2.502   1.877   4.616
 6219SOL    HW128656   2.461   1.807   4.675
 6219SOL    HW228657   2.473   1.863   4.522
 6220SOL     OW28658   0.694   1.990   2.916
 6220SOL    HW128659   0.618   1.999   2.981
 6220SOL    HW228660   0.665   2.019   2.825
 6221SOL     OW28661   5.550   6.469   5.258
 6221SOL    HW128662   5.475   6.468   5.323
 6221SOL    HW228663   5.607   6.550   5.272
 6222SOL     OW28664   3.409   4.775   4.282
 6222SOL    HW128665   3.368   4.684   4.278
 6222SOL    HW228666   3.365   4.828   4.355
 6223SOL     OW28667   4.292   4.950   5.351
 6223SOL    HW128668   4.302   4.874   5.286
 6223SOL    HW228669   4.334   5.033   5.313
 6224SOL     OW28670   5.290   4.258   2.164
 6224SOL    HW128671   5.361   4.325   2.146
 6224SOL    HW228672   5.226   4.255   2.088
 6225SOL     OW28673   5.546   0.269   2.892
 6225SOL    HW128674   5.583   0.355   2.926
 6225SOL    HW228675   5.487   0.285   2.814
 6226SOL     OW28676   1.741   7.551   6.050
 6226SOL    HW128677   1.697   7.582   6.134
 6226SOL    HW228678   1.676   7.555   5.974
 6227SOL     OW28679   5.081   5.299   4.940
 6227SOL    HW128680   4.984   5.290   4.965
 6227SOL    HW228681   5.093   5.278   4.843
 6228SOL     OW28682   0.984   6.391   0.640
 6228SOL    HW128683   1.050   6.317   0.629
 6228SOL    HW228684   0.942   6.387   0.731
 6229SOL     OW28685   0.321   2.120   7.378
 6229SOL    HW128686   0.415   2.090   7.360
 6229SOL    HW228687   0.307   2.132   7.476
 6230SOL     OW28688   7.448   2.018   3.285
 6230SOL    HW128689   7.357   2.011   3.328
 6230SOL    HW228690   7.500   1.934   3.302
 6231SOL     OW28691   1.892   0.350   0.930
 6231SOL    HW128692   1.972   0.397   0.969
 6231SOL    HW228693   1.871   0.388   0.840
 6232SOL     OW28694   7.996   2.735   5.209
 6232SOL    HW128695   7.957   2.658   5.261
 6232SOL    HW228696   8.000   2.712   5.112
 6233SOL     OW28697   6.593   3.684   4.201
 6233SOL    HW128698   6.501   3.672   4.239
 6233SOL    HW228699   6.599   3.637   4.112
 6234SOL     OW28700   6.630   2.705   7.404
 6234SOL    HW128701   6.711   2.763   7.411
 6234SOL    HW228702   6.599   2.679   7.496
 6235SOL     OW28703   1.125   2.053   4.177
 6235SOL    HW128704   1.151   1.961   4.149
 6235SOL    HW228705   1.076   2.050   4.264
 6236SOL     OW28706   4.781   5.082   7.169
 6236SOL    HW128707   4.749   4.990   7.148
 6236SOL    HW228708   4.811   5.087   7.264
 6237SOL     OW28709   7.273   2.399   7.914
 6237SOL    HW128710   7.350   2.376   7.975
 6237SOL    HW228711   7.246   2.494   7.929
 6238SOL     OW28712   2.742   0.576   4.855
 6238SOL    HW128713   2.673   0.615   4.793
 6238SOL    HW228714   2.750   0.633   4.937
 6239SOL     OW28715   3.277   1.532   7.337
 6239SOL    HW128716   3.253   1.582   7.254
 6239SOL    HW228717   3.303   1.438   7.315
 6240SOL     OW28718   2.129   3.310   7.769
 6240SOL    HW128719   2.202   3.329   7.834
 6240SOL    HW228720   2.108   3.212   7.768
 6241SOL     OW28721   4.605   6.160   0.129
 6241SOL    HW128722   4.672   6.193   0.195
 6241SOL    HW228723   4.640   6.078   0.083
 6242SOL     OW28724   7.323   2.121   0.155
 6242SOL    HW128725   7.385   2.063   0.102
 6242SOL    HW228726   7.249   2.154   0.097
 6243SOL     OW28727   0.525   1.459   7.926
 6243SOL    HW128728   0.468   1.377   7.931
 6243SOL    HW228729   0.468   1.541   7.933
 6244SOL     OW28730   4.726   4.106   3.773
 6244SOL    HW128731   4.822   4.115   3.745
 6244SOL    HW228732   4.671   4.075   3.695
 6245SOL     OW28733   7.195   6.756   2.612
 6245SOL    HW128734   7.181   6.663   2.579
 6245SOL    HW228735   7.108   6.798   2.637
 6246SOL     OW28736   0.009   1.456   1.107
 6246SOL    HW128737   0.000   1.362   1.140
 6246SOL    HW228738   0.064   1.457   1.023
 6247SOL     OW28739   1.575   7.134   7.892
 6247SOL    HW128740   1.629   7.100   7.815
 6247SOL    HW228741   1.573   7.066   7.966
 6248SOL     OW28742   2.603   0.669   2.785
 6248SOL    HW128743   2.544   0.711   2.716
 6248SOL    HW228744   2.621   0.734   2.859
 6249SOL     OW28745   5.828   6.612   1.711
 6249SOL    HW128746   5.920   6.577   1.732
 6249SOL    HW228747   5.771   6.610   1.793
 6250SOL     OW28748   4.558   5.096   7.831
 6250SOL    HW128749   4.466   5.105   7.792
 6250SOL    HW228750   4.627   5.100   7.758
 6251SOL     OW28751   7.616   5.716   0.409
 6251SOL    HW128752   7.576   5.799   0.448
 6251SOL    HW228753   7.565   5.689   0.328
 6252SOL     OW28754   6.918   3.487   4.157
 6252SOL    HW128755   7.000   3.455   4.205
 6252SOL    HW228756   6.891   3.422   4.087
 6253SOL     OW28757   2.146   1.039   6.653
 6253SOL    HW128758   2.083   0.978   6.604
 6253SOL    HW228759   2.121   1.045   6.749
 6254SOL     OW28760   5.136   0.955   3.193
 6254SOL    HW128761   5.090   0.866   3.189
 6254SOL    HW228762   5.121   0.997   3.283
 6255SOL     OW28763   7.252   2.380   0.330
 6255SOL    HW128764   7.190   2.421   0.263
 6255SOL    HW228765   7.243   2.428   0.418
 6256SOL     OW28766   3.501   6.527   0.044
 6256SOL    HW128767   3.505   6.627   0.049
 6256SOL    HW228768   3.441   6.491   0.116
 6257SOL     OW28769   4.331   6.979   4.964
 6257SOL    HW128770   4.346   7.076   4.945
 6257SOL    HW228771   4.418   6.930   4.959
 6258SOL     OW28772   2.555   4.584   7.214
 6258SOL    HW128773   2.516   4.635   7.137
 6258SOL    HW228774   2.487   4.520   7.250
 6259SOL     OW28775   7.510   3.333   3.872
 6259SOL    HW128776   7.607   3.352   3.892
 6259SOL    HW228777   7.472   3.272   3.941
 6260SOL     OW28778   7.304   6.001   5.614
 6260SOL    HW128779   7.295   5.917   5.667
 6260SOL    HW228780   7.339   5.981   5.523
 6261SOL     OW28781   7.298   2.523   2.430
 6261SOL    HW128782   7.350   2.511   2.514
 6261SOL    HW228783   7.352   2.572   2.362
 6262SOL     OW28784   4.804   4.130   7.134
 6262SOL    HW128785   4.721   4.121   7.189
 6262SOL    HW228786   4.781   4.126   7.036
 6263SOL     OW28787   7.476   0.779   2.652
 6263SOL    HW128788   7.427   0.857   2.691
 6263SOL    HW228789   7.575   0.796   2.655
 6264SOL     OW28790   6.405   3.580   7.555
 6264SOL    HW128791   6.492   3.536   7.577
 6264SOL    HW228792   6.331   3.535   7.603
 6265SOL     OW28793   7.043   1.650   3.080
 6265SOL    HW128794   7.042   1.550   3.078
 6265SOL    HW228795   7.112   1.685   3.016
 6266SOL     OW28796   0.350   2.909   4.879
 6266SOL    HW128797   0.424   2.844   4.866
 6266SOL    HW228798   0.273   2.885   4.821
 6267SOL     OW28799   4.158   2.069   4.980
 6267SOL    HW128800   4.151   2.105   4.887
 6267SOL    HW228801   4.250   2.036   4.997
 6268SOL     OW28802   1.968   5.023   1.998
 6268SOL    HW128803   1.957   5.012   1.899
 6268SOL    HW228804   2.047   5.082   2.017
 6269SOL     OW28805   5.458   0.297   7.551
 6269SOL    HW128806   5.492   0.293   7.645
 6269SOL    HW228807   5.527   0.338   7.491
 6270SOL     OW28808   6.535   3.205   4.845
 6270SOL    HW128809   6.514   3.275   4.777
 6270SOL    HW228810   6.616   3.232   4.897
 6271SOL     OW28811   1.264   3.037   0.964
 6271SOL    HW128812   1.197   3.083   0.905
 6271SOL    HW228813   1.231   2.947   0.988
 6272SOL     OW28814   6.105   2.290   3.903
 6272SOL    HW128815   6.018   2.267   3.948
 6272SOL    HW228816   6.109   2.247   3.813
 6273SOL     OW28817   7.003   6.950   0.701
 6273SOL    HW128818   7.054   6.870   0.736
 6273SOL    HW228819   7.036   6.973   0.609
 6274SOL     OW28820   6.835   5.629   1.030
 6274SOL    HW128821   6.888   5.629   1.115
 6274SOL    HW228822   6.768   5.703   1.032
 6275SOL     OW28823   1.133   4.486   7.236
 6275SOL    HW128824   1.103   4.547   7.162
 6275SOL    HW228825   1.231   4.496   7.251
 6276SOL     OW28826   5.011   5.148   0.591
 6276SOL    HW128827   4.999   5.241   0.556
 6276SOL    HW228828   5.037   5.087   0.516
 6277SOL     OW28829   0.424   7.080   6.378
 6277SOL    HW128830   0.337   7.098   6.332
 6277SOL    HW228831   0.428   6.985   6.407
 6278SOL     OW28832   7.910   0.741   5.418
 6278SOL    HW128833   7.998   0.712   5.379
 6278SOL    HW228834   7.895   0.696   5.506
 6279SOL     OW28835   7.324   0.575   3.539
 6279SOL    HW128836   7.399   0.509   3.535
 6279SOL    HW228837   7.348   0.651   3.599
 6280SOL     OW28838   5.308   7.482   3.403
 6280SOL    HW128839   5.314   7.387   3.433
 6280SOL    HW228840   5.345   7.492   3.311
 6281SOL     OW28841   7.946   1.617   1.592
 6281SOL    HW128842   7.858   1.586   1.630
 6281SOL    HW228843   7.935   1.639   1.496
 6282SOL     OW28844   2.941   4.416   5.065
 6282SOL    HW128845   2.940   4.501   5.117
 6282SOL    HW228846   2.918   4.433   4.969
 6283SOL     OW28847   2.647   4.859   1.284
 6283SOL    HW128848   2.552   4.849   1.316
 6283SOL    HW228849   2.658   4.815   1.195
 6284SOL     OW28850   5.200   5.097   0.082
 6284SOL    HW128851   5.177   5.044  -0.000
 6284SOL    HW228852   5.188   5.042   0.163
 6285SOL     OW28853   2.241   0.422   1.449
 6285SOL    HW128854   2.339   0.413   1.471
 6285SOL    HW228855   2.188   0.360   1.507
 6286SOL     OW28856   7.799   0.917   2.388
 6286SOL    HW128857   7.839   0.839   2.437
 6286SOL    HW228858   7.842   0.927   2.299
 6287SOL     OW28859   7.895   1.225   4.016
 6287SOL    HW128860   7.890   1.307   3.958
 6287SOL    HW228861   7.893   1.252   4.113
 6288SOL     OW28862   0.959   2.005   0.574
 6288SOL    HW128863   0.901   1.995   0.655
 6288SOL    HW228864   0.911   2.062   0.507
 6289SOL     OW28865   1.082   4.141   2.298
 6289SOL    HW128866   1.122   4.049   2.302
 6289SOL    HW228867   1.097   4.188   2.385
 6290SOL     OW28868   6.443   2.137   7.845
 6290SOL    HW128869   6.454   2.230   7.880
 6290SOL    HW228870   6.399   2.140   7.755
 6291SOL     OW28871   1.974   5.770   2.822
 6291SOL    HW128872   1.930   5.832   2.758
 6291SOL    HW228873   2.007   5.689   2.774
 6292SOL     OW28874   0.616   5.702   7.964
 6292SOL    HW128875   0.566   5.780   8.000
 6292SOL    HW228876   0.585   5.681   7.871
 6293SOL     OW28877   6.494   2.157   6.038
 6293SOL    HW128878   6.464   2.239   6.087
 6293SOL    HW228879   6.592   2.145   6.048
 6294SOL     OW28880   7.727   6.124   3.460
 6294SOL    HW128881   7.788   6.193   3.420
 6294SOL    HW228882   7.742   6.118   3.558
 6295SOL     OW28883   7.624   3.211   2.476
 6295SOL    HW128884   7.575   3.287   2.520
 6295SOL    HW228885   7.609   3.213   2.377
 6296SOL     OW28886   2.815   3.420   3.114
 6296SOL    HW128887   2.727   3.452   3.151
 6296SOL    HW228888   2.801   3.383   3.023
 6297SOL     OW28889   4.174   7.943   2.079
 6297SOL    HW128890   4.254   7.898   2.119
 6297SOL    HW228891   4.193   7.968   1.984
 6298SOL     OW28892   7.140   3.510   4.820
 6298SOL    HW128893   7.108   3.572   4.892
 6298SOL    HW228894   7.125   3.552   4.730
 6299SOL     OW28895   1.191   7.497   7.091
 6299SOL    HW128896   1.238   7.573   7.136
 6299SOL    HW228897   1.155   7.434   7.160
 6300SOL     OW28898   6.063   4.720   3.290
 6300SOL    HW128899   6.061   4.620   3.292
 6300SOL    HW228900   6.151   4.752   3.255
 6301SOL     OW28901   7.743   6.547   0.450
 6301SOL    HW128902   7.713   6.540   0.545
 6301SOL    HW228903   7.829   6.598   0.445
 6302SOL     OW28904   7.389   3.789   0.812
 6302SOL    HW128905   7.331   3.867   0.835
 6302SOL    HW228906   7.334   3.717   0.768
 6303SOL     OW28907   2.379   0.705   2.053
 6303SOL    HW128908   2.454   0.651   2.014
 6303SOL    HW228909   2.343   0.660   2.135
 6304SOL     OW28910   6.454   1.806   4.394
 6304SOL    HW128911   6.417   1.898   4.404
 6304SOL    HW228912   6.542   1.799   4.443
 6305SOL     OW28913   4.374   2.181   0.289
 6305SOL    HW128914   4.474   2.178   0.280
 6305SOL    HW228915   4.339   2.090   0.310
 6306SOL     OW28916   1.397   3.133   7.990
 6306SOL    HW128917   1.335   3.075   7.937
 6306SOL    HW228918   1.358   3.225   8.000
 6307SOL     OW28919   6.350   4.873   3.617
 6307SOL    HW128920   6.434   4.871   3.671
 6307SOL    HW228921   6.337   4.964   3.576
 6308SOL     OW28922   0.124   5.470   7.649
 6308SOL    HW128923   0.032   5.432   7.633
 6308SOL    HW228924   0.151   5.456   7.744
 6309SOL     OW28925   3.358   1.107   7.706
 6309SOL    HW128926   3.444   1.056   7.705
 6309SOL    HW228927   3.348   1.159   7.621
 6310SOL     OW28928   3.775   7.166   2.695
 6310SOL    HW128929   3.818   7.118   2.618
 6310SOL    HW228930   3.676   7.150   2.693
 6311SOL     OW28931   0.071   3.803   2.158
 6311SOL    HW128932   0.144   3.814   2.225
 6311SOL    HW228933   0.002   3.739   2.193
 6312SOL     OW28934   4.510   5.145   1.935
 6312SOL    HW128935   4.531   5.050   1.958
 6312SOL    HW228936   4.439   5.180   1.996
 6313SOL     OW28937   2.690   3.777   1.417
 6313SOL    HW128938   2.783   3.748   1.396
 6313SOL    HW228939   2.691   3.866   1.462
 6314SOL     OW28940   1.264   6.756   7.176
 6314SOL    HW128941   1.220   6.719   7.095
 6314SOL    HW228942   1.355   6.715   7.188
 6315SOL     OW28943   2.363   4.042   0.202
 6315SOL    HW128944   2.313   4.053   0.116
 6315SOL    HW228945   2.341   4.116   0.265
 6316SOL     OW28946   1.031   6.808   2.750
 6316SOL    HW128947   1.125   6.782   2.774
 6316SOL    HW228948   1.021   6.813   2.651
 6317SOL     OW28949   3.168   4.586   7.539
 6317SOL    HW128950   3.193   4.571   7.444
 6317SOL    HW228951   3.166   4.684   7.559
 6318SOL     OW28952   4.942   7.637   7.212
 6318SOL    HW128953   4.886   7.615   7.292
 6318SOL    HW228954   4.886   7.632   7.129
 6319SOL     OW28955   3.526   7.774   4.553
 6319SOL    HW128956   3.479   7.843   4.608
 6319SOL    HW228957   3.542   7.692   4.607
 6320SOL     OW28958   4.727   5.888   7.597
 6320SOL    HW128959   4.755   5.820   7.529
 6320SOL    HW228960   4.794   5.962   7.602
 6321SOL     OW28961   2.400   0.823   4.122
 6321SOL    HW128962   2.327   0.888   4.098
 6321SOL    HW228963   2.405   0.812   4.221
 6322SOL     OW28964   1.770   3.619   4.894
 6322SOL    HW128965   1.823   3.704   4.901
 6322SOL    HW228966   1.679   3.640   4.858
 6323SOL     OW28967   5.685   2.115   7.229
 6323SOL    HW128968   5.715   2.028   7.190
 6323SOL    HW228969   5.647   2.100   7.320
 6324SOL     OW28970   1.374   7.128   7.270
 6324SOL    HW128971   1.305   7.174   7.326
 6324SOL    HW228972   1.455   7.107   7.325
 6325SOL     OW28973   1.894   1.981   2.267
 6325SOL    HW128974   1.846   1.953   2.184
 6325SOL    HW228975   1.976   1.925   2.280
 6326SOL     OW28976   6.712   3.124   0.898
 6326SOL    HW128977   6.695   3.062   0.821
 6326SOL    HW228978   6.698   3.219   0.869
 6327SOL     OW28979   3.505   2.813   1.458
 6327SOL    HW128980   3.590   2.770   1.430
 6327SOL    HW228981   3.521   2.910   1.479
 6328SOL     OW28982   0.396   5.141   0.549
 6328SOL    HW128983   0.459   5.168   0.476
 6328SOL    HW228984   0.305   5.175   0.530
 6329SOL     OW28985   6.546   0.211   2.927
 6329SOL    HW128986   6.472   0.193   2.992
 6329SOL    HW228987   6.570   0.308   2.928
 6330SOL     OW28988   1.910   1.288   4.369
 6330SOL    HW128989   1.828   1.316   4.418
 6330SOL    HW228990   1.946   1.204   4.408
 6331SOL     OW28991   5.186   5.633   7.454
 6331SOL    HW128992   5.102   5.671   7.492
 6331SOL    HW228993   5.175   5.615   7.357
 6332SOL     OW28994   1.027   7.124   4.216
 6332SOL    HW128995   1.106   7.173   4.176
 6332SOL    HW228996   1.038   7.118   4.315
 6333SOL     OW28997   7.716   2.819   5.049
 6333SOL    HW128998   7.719   2.895   4.983
 6333SOL    HW228999   7.805   2.810   5.094
 6334SOL     OW29000   8.000   5.011   3.558
 6334SOL    HW129001   7.999   5.079   3.632
 6334SOL    HW229002   8.000   4.919   3.597
 6335SOL     OW29003   6.909   1.261   6.728
 6335SOL    HW129004   6.874   1.354   6.727
 6335SOL    HW229005   6.900   1.220   6.637
 6336SOL     OW29006   6.070   4.417   6.188
 6336SOL    HW129007   6.094   4.330   6.144
 6336SOL    HW229008   6.019   4.400   6.272
 6337SOL     OW29009   4.840   2.073   0.668
 6337SOL    HW129010   4.902   1.995   0.676
 6337SOL    HW229011   4.777   2.075   0.746
 6338SOL     OW29012   3.437   2.837   1.707
 6338SOL    HW129013   3.379   2.897   1.651
 6338SOL    HW229014   3.443   2.747   1.666
 6339SOL     OW29015   5.335   5.876   0.350
 6339SOL    HW129016   5.422   5.913   0.384
 6339SOL    HW229017   5.323   5.900   0.253
 6340SOL     OW29018   7.090   7.922   7.813
 6340SOL    HW129019   7.027   7.999   7.830
 6340SOL    HW229020   7.045   7.853   7.756
 6341SOL     OW29021   6.375   3.091   7.284
 6341SOL    HW129022   6.281   3.075   7.251
 6341SOL    HW229023   6.372   3.138   7.372
 6342SOL     OW29024   3.884   0.796   2.089
 6342SOL    HW129025   3.912   0.874   2.145
 6342SOL    HW229026   3.923   0.712   2.127
 6343SOL     OW29027   3.130   1.303   0.867
 6343SOL    HW129028   3.222   1.279   0.835
 6343SOL    HW229029   3.121   1.280   0.964
 6344SOL     OW29030   5.083   0.817   6.023
 6344SOL    HW129031   5.090   0.720   6.050
 6344SOL    HW229032   5.013   0.827   5.953
 6345SOL     OW29033   5.738   5.771   1.696
 6345SOL    HW129034   5.733   5.673   1.675
 6345SOL    HW229035   5.736   5.824   1.611
 6346SOL     OW29036   5.701   2.092   3.065
 6346SOL    HW129037   5.617   2.094   3.120
 6346SOL    HW229038   5.683   2.049   2.977
 6347SOL     OW29039   6.363   2.513   4.670
 6347SOL    HW129040   6.326   2.605   4.679
 6347SOL    HW229041   6.429   2.494   4.743
 6348SOL     OW29042   4.215   5.766   5.591
 6348SOL    HW129043   4.242   5.835   5.524
 6348SOL    HW229044   4.155   5.699   5.548
 6349SOL     OW29045   3.560   1.665   5.304
 6349SOL    HW129046   3.581   1.758   5.271
 6349SOL    HW229047   3.641   1.625   5.346
 6350SOL     OW29048   7.431   5.209   3.420
 6350SOL    HW129049   7.522   5.218   3.380
 6350SOL    HW229050   7.438   5.180   3.516
 6351SOL     OW29051   0.185   6.459   7.372
 6351SOL    HW129052   0.227   6.549   7.390
 6351SOL    HW229053   0.105   6.470   7.314
 6352SOL     OW29054   4.589   6.247   6.782
 6352SOL    HW129055   4.605   6.328   6.838
 6352SOL    HW229056   4.654   6.246   6.705
 6353SOL     OW29057   5.291   6.334   0.654
 6353SOL    HW129058   5.387   6.313   0.669
 6353SOL    HW229059   5.270   6.338   0.557
 6354SOL     OW29060   3.671   2.766   0.843
 6354SOL    HW129061   3.615   2.827   0.787
 6354SOL    HW229062   3.691   2.809   0.931
 6355SOL     OW29063   6.122   7.551   2.182
 6355SOL    HW129064   6.031   7.570   2.219
 6355SOL    HW229065   6.114   7.514   2.089
 6356SOL     OW29066   7.461   3.203   1.488
 6356SOL    HW129067   7.553   3.217   1.524
 6356SOL    HW229068   7.452   3.247   1.398
 6357SOL     OW29069   1.838   0.894   1.719
 6357SOL    HW129070   1.853   0.795   1.722
 6357SOL    HW229071   1.796   0.925   1.804
 6358SOL     OW29072   6.308   5.540   0.499
 6358SOL    HW129073   6.231   5.477   0.498
 6358SOL    HW229074   6.295   5.610   0.569
 6359SOL     OW29075   2.357   6.669   4.127
 6359SOL    HW129076   2.322   6.710   4.212
 6359SOL    HW229077   2.410   6.587   4.148
 6360SOL     OW29078   6.843   5.551   6.975
 6360SOL    HW129079   6.839   5.454   6.950
 6360SOL    HW229080   6.751   5.588   6.984
 6361SOL     OW29081   0.429   3.898   5.260
 6361SOL    HW129082   0.333   3.926   5.268
 6361SOL    HW229083   0.440   3.804   5.291
 6362SOL     OW29084   4.988   4.961   6.811
 6362SOL    HW129085   4.952   5.053   6.826
 6362SOL    HW229086   5.082   4.955   6.843
 6363SOL     OW29087   2.569   3.742   7.230
 6363SOL    HW129088   2.648   3.785   7.186
 6363SOL    HW229089   2.495   3.809   7.239
 6364SOL     OW29090   4.678   2.126   5.802
 6364SOL    HW129091   4.644   2.168   5.718
 6364SOL    HW229092   4.614   2.141   5.877
 6365SOL     OW29093   5.231   5.329   5.669
 6365SOL    HW129094   5.297   5.402   5.691
 6365SOL    HW229095   5.203   5.336   5.574
 6366SOL     OW29096   0.552   0.543   5.262
 6366SOL    HW129097   0.554   0.581   5.355
 6366SOL    HW229098   0.554   0.443   5.266
 6367SOL     OW29099   2.647   5.992   4.070
 6367SOL    HW129100   2.575   5.956   4.131
 6367SOL    HW229101   2.731   5.940   4.082
 6368SOL     OW29102   3.464   4.668   6.995
 6368SOL    HW129103   3.424   4.759   7.005
 6368SOL    HW229104   3.490   4.633   7.085
 6369SOL     OW29105   6.232   4.298   0.343
 6369SOL    HW129106   6.317   4.331   0.301
 6369SOL    HW229107   6.234   4.315   0.442
 6370SOL     OW29108   6.671   2.906   2.321
 6370SOL    HW129109   6.746   2.867   2.269
 6370SOL    HW229110   6.650   2.848   2.400
 6371SOL     OW29111   1.181   6.499   6.634
 6371SOL    HW129112   1.124   6.461   6.707
 6371SOL    HW229113   1.261   6.545   6.673
 6372SOL     OW29114   4.007   2.694   7.969
 6372SOL    HW129115   3.937   2.759   8.000
 6372SOL    HW229116   3.969   2.634   7.899
 6373SOL     OW29117   6.684   4.605   0.910
 6373SOL    HW129118   6.734   4.574   0.991
 6373SOL    HW229119   6.627   4.684   0.933
 6374SOL     OW29120   4.518   6.896   0.441
 6374SOL    HW129121   4.448   6.928   0.378
 6374SOL    HW229122   4.541   6.969   0.506
 6375SOL     OW29123   5.523   5.811   7.282
 6375SOL    HW129124   5.438   5.800   7.335
 6375SOL    HW229125   5.502   5.811   7.184
 6376SOL     OW29126   1.619   6.239   3.433
 6376SOL    HW129127   1.585   6.284   3.350
 6376SOL    HW229128   1.680   6.300   3.482
 6377SOL     OW29129   5.707   0.123   2.241
 6377SOL    HW129130   5.695   0.050   2.308
 6377SOL    HW229131   5.689   0.089   2.149
 6378SOL     OW29132   5.652   5.804   7.954
 6378SOL    HW129133   5.615   5.711   7.964
 6378SOL    HW229134   5.744   5.799   7.915
 6379SOL     OW29135   6.590   6.277   6.036
 6379SOL    HW129136   6.596   6.354   5.972
 6379SOL    HW229137   6.627   6.194   5.994
 6380SOL     OW29138   6.251   5.026   5.271
 6380SOL    HW129139   6.156   5.014   5.242
 6380SOL    HW229140   6.254   5.049   5.368
 6381SOL     OW29141   4.061   5.540   0.798
 6381SOL    HW129142   4.064   5.595   0.882
 6381SOL    HW229143   4.071   5.600   0.718
 6382SOL     OW29144   6.419   5.502   2.036
 6382SOL    HW129145   6.514   5.513   2.007
 6382SOL    HW229146   6.394   5.574   2.101
 6383SOL     OW29147   7.427   3.842   5.595
 6383SOL    HW129148   7.462   3.933   5.620
 6383SOL    HW229149   7.328   3.846   5.584
 6384SOL     OW29150   0.266   4.367   3.001
 6384SOL    HW129151   0.326   4.291   3.026
 6384SOL    HW229152   0.280   4.393   2.906
 6385SOL     OW29153   3.675   7.944   2.476
 6385SOL    HW129154   3.593   8.000   2.468
 6385SOL    HW229155   3.713   7.925   2.385
 6386SOL     OW29156   0.802   1.947   6.562
 6386SOL    HW129157   0.709   1.924   6.535
 6386SOL    HW229158   0.805   1.974   6.658
 6387SOL     OW29159   4.115   0.612   0.733
 6387SOL    HW129160   4.115   0.528   0.679
 6387SOL    HW229161   4.025   0.655   0.729
 6388SOL     OW29162   4.082   3.857   4.995
 6388SOL    HW129163   4.130   3.800   5.061
 6388SOL    HW229164   4.128   3.945   4.986
 6389SOL     OW29165   2.242   2.777   6.003
 6389SOL    HW129166   2.206   2.684   5.998
 6389SOL    HW229167   2.240   2.820   5.913
 6390SOL     OW29168   2.990   6.417   3.635
 6390SOL    HW129169   2.931   6.387   3.710
 6390SOL    HW229170   2.950   6.498   3.591
 6391SOL     OW29171   6.027   0.040   3.021
 6391SOL    HW129172   6.092   0.026   2.947
 6391SOL    HW229173   6.036   0.132   3.058
 6392SOL     OW29174   1.408   7.419   3.487
 6392SOL    HW129175   1.362   7.378   3.565
 6392SOL    HW229176   1.449   7.507   3.513
 6393SOL     OW29177   6.732  -0.001   0.610
 6393SOL    HW129178   6.782   0.075   0.650
 6393SOL    HW229179   6.702   0.023   0.518
 6394SOL     OW29180   4.908   6.330   6.321
 6394SOL    HW129181   5.001   6.339   6.287
 6394SOL    HW229182   4.909   6.299   6.417
 6395SOL     OW29183   0.650   5.339   0.413
 6395SOL    HW129184   0.565   5.325   0.361
 6395SOL    HW229185   0.725   5.292   0.369
 6396SOL     OW29186   7.542   6.714   4.498
 6396SOL    HW129187   7.452   6.695   4.459
 6396SOL    HW229188   7.593   6.777   4.439
 6397SOL     OW29189   0.659   3.803   7.657
 6397SOL    HW129190   0.731   3.780   7.722
 6397SOL    HW229191   0.695   3.867   7.589
 6398SOL     OW29192   6.582   5.216   4.761
 6398SOL    HW129193   6.516   5.208   4.687
 6398SOL    HW229194   6.593   5.127   4.806
 6399SOL     OW29195   7.052  -0.000   5.223
 6399SOL    HW129196   7.147   0.029   5.235
 6399SOL    HW229197   7.001   0.070   5.174
 6400SOL     OW29198   7.213   2.770   0.242
 6400SOL    HW129199   7.300   2.757   0.196
 6400SOL    HW229200   7.205   2.707   0.319
 6401SOL     OW29201   1.384   0.231   7.137
 6401SOL    HW129202   1.333   0.204   7.055
 6401SOL    HW229203   1.322   0.250   7.212
 6402SOL     OW29204   6.736   5.364   0.487
 6402SOL    HW129205   6.712   5.408   0.400
 6402SOL    HW229206   6.757   5.268   0.472
 6403SOL     OW29207   7.510   0.951   4.566
 6403SOL    HW129208   7.564   1.013   4.623
 6403SOL    HW229209   7.453   1.004   4.503
 6404SOL     OW29210   4.511   3.560   5.785
 6404SOL    HW129211   4.567   3.593   5.710
 6404SOL    HW229212   4.414   3.568   5.761
 6405SOL     OW29213   1.165   7.660   1.505
 6405SOL    HW129214   1.233   7.587   1.509
 6405SOL    HW229215   1.105   7.647   1.427
 6406SOL     OW29216   1.709   3.681   6.311
 6406SOL    HW129217   1.689   3.651   6.405
 6406SOL    HW229218   1.749   3.772   6.313
 6407SOL     OW29219   0.921   4.845   5.325
 6407SOL    HW129220   0.997   4.859   5.389
 6407SOL    HW229221   0.914   4.749   5.300
 6408SOL     OW29222   0.479   1.107   2.388
 6408SOL    HW129223   0.488   1.069   2.296
 6408SOL    HW229224   0.446   1.037   2.451
 6409SOL     OW29225   3.661   4.737   5.109
 6409SOL    HW129226   3.666   4.674   5.031
 6409SOL    HW229227   3.722   4.707   5.182
 6410SOL     OW29228   0.665   1.806   5.911
 6410SOL    HW129229   0.712   1.893   5.897
 6410SOL    HW229230   0.603   1.787   5.835
 6411SOL     OW29231   4.622   4.144   5.030
 6411SOL    HW129232   4.576   4.140   4.942
 6411SOL    HW229233   4.555   4.135   5.104
 6412SOL     OW29234   3.237   6.891   5.138
 6412SOL    HW129235   3.297   6.880   5.058
 6412SOL    HW229236   3.254   6.816   5.203
 6413SOL     OW29237   2.076   2.292   5.065
 6413SOL    HW129238   2.174   2.284   5.049
 6413SOL    HW229239   2.053   2.384   5.097
 6414SOL     OW29240   6.483   4.320   0.734
 6414SOL    HW129241   6.538   4.334   0.817
 6414SOL    HW229242   6.544   4.313   0.654
 6415SOL     OW29243   4.546   2.067   0.044
 6415SOL    HW129244   4.550   2.162   0.074
 6415SOL    HW229245   4.576   2.007   0.119
 6416SOL     OW29246   7.266   6.811   0.474
 6416SOL    HW129247   7.167   6.809   0.489
 6416SOL    HW229248   7.314   6.789   0.558
 6417SOL     OW29249   2.058   1.049   7.491
 6417SOL    HW129250   2.140   1.012   7.446
 6417SOL    HW229251   2.027   0.987   7.563
 6418SOL     OW29252   5.651   4.728   6.304
 6418SOL    HW129253   5.721   4.738   6.234
 6418SOL    HW229254   5.654   4.805   6.367
 6419SOL     OW29255   3.639   5.808   7.405
 6419SOL    HW129256   3.555   5.832   7.357
 6419SOL    HW229257   3.653   5.869   7.483
 6420SOL     OW29258   0.763   0.713   2.438
 6420SOL    HW129259   0.742   0.742   2.344
 6420SOL    HW229260   0.707   0.764   2.503
 6421SOL     OW29261   3.189   7.270   4.465
 6421SOL    HW129262   3.128   7.346   4.444
 6421SOL    HW229263   3.135   7.190   4.491
 6422SOL     OW29264   4.682   5.848   5.349
 6422SOL    HW129265   4.662   5.934   5.302
 6422SOL    HW229266   4.636   5.772   5.302
 6423SOL     OW29267   3.603   6.064   6.491
 6423SOL    HW129268   3.691   6.061   6.539
 6423SOL    HW229269   3.616   6.103   6.399
 6424SOL     OW29270   4.565   5.733   0.199
 6424SOL    HW129271   4.642   5.771   0.252
 6424SOL    HW229272   4.567   5.770   0.106
 6425SOL     OW29273   0.519   6.543   3.295
 6425SOL    HW129274   0.469   6.479   3.236
 6425SOL    HW229275   0.542   6.498   3.381
 6426SOL     OW29276   4.159   2.801   6.952
 6426SOL    HW129277   4.152   2.898   6.977
 6426SOL    HW229278   4.150   2.744   7.034
 6427SOL     OW29279   2.506   7.067   0.317
 6427SOL    HW129280   2.596   7.098   0.286
 6427SOL    HW229281   2.481   7.114   0.402
 6428SOL     OW29282   1.689   5.559   2.675
 6428SOL    HW129283   1.678   5.651   2.637
 6428SOL    HW229284   1.728   5.566   2.767
 6429SOL     OW29285   7.343   0.820   3.270
 6429SOL    HW129286   7.403   0.740   3.260
 6429SOL    HW229287   7.299   0.840   3.182
 6430SOL     OW29288   4.464   7.587   3.656
 6430SOL    HW129289   4.546   7.597   3.599
 6430SOL    HW229290   4.482   7.525   3.732
 6431SOL     OW29291   2.063   1.851   2.022
 6431SOL    HW129292   2.070   1.783   2.095
 6431SOL    HW229293   2.142   1.912   2.023
 6432SOL     OW29294   5.107   4.054   7.292
 6432SOL    HW129295   5.135   3.958   7.290
 6432SOL    HW229296   5.078   4.084   7.201
 6433SOL     OW29297   4.113   2.453   7.393
 6433SOL    HW129298   4.159   2.374   7.353
 6433SOL    HW229299   4.170   2.494   7.464
 6434SOL     OW29300   7.411   2.842   5.541
 6434SOL    HW129301   7.492   2.786   5.522
 6434SOL    HW229302   7.390   2.841   5.638
 6435SOL     OW29303   1.329   0.978   1.623
 6435SOL    HW129304   1.257   0.914   1.650
 6435SOL    HW229305   1.341   1.048   1.694
 6436SOL     OW29306   1.650   2.276   5.557
 6436SOL    HW129307   1.687   2.227   5.479
 6436SOL    HW229308   1.582   2.343   5.526
 6437SOL     OW29309   5.586   3.507   6.640
 6437SOL    HW129310   5.538   3.595   6.642
 6437SOL    HW229311   5.655   3.507   6.568
 6438SOL     OW29312   6.010   5.209   3.603
 6438SOL    HW129313   5.972   5.287   3.652
 6438SOL    HW229314   5.950   5.184   3.527
 6439SOL     OW29315   0.098   1.715   1.578
 6439SOL    HW129316   0.107   1.706   1.479
 6439SOL    HW229317   0.085   1.625   1.619
 6440SOL     OW29318   6.101   7.635   3.810
 6440SOL    HW129319   6.130   7.724   3.845
 6440SOL    HW229320   6.063   7.580   3.885
 6441SOL     OW29321   7.544   7.397   7.442
 6441SOL    HW129322   7.519   7.337   7.366
 6441SOL    HW229323   7.489   7.375   7.522
 6442SOL     OW29324   6.358   0.389   2.096
 6442SOL    HW129325   6.342   0.304   2.146
 6442SOL    HW229326   6.456   0.405   2.084
 6443SOL     OW29327   7.072   4.324   7.834
 6443SOL    HW129328   7.004   4.286   7.771
 6443SOL    HW229329   7.160   4.280   7.819
 6444SOL     OW29330   0.464   0.489   4.687
 6444SOL    HW129331   0.405   0.540   4.624
 6444SOL    HW229332   0.411   0.421   4.736
 6445SOL     OW29333   1.624   4.960   2.573
 6445SOL    HW129334   1.556   5.033   2.587
 6445SOL    HW229335   1.687   4.956   2.651
 6446SOL     OW29336   3.708   6.797   7.213
 6446SOL    HW129337   3.737   6.731   7.143
 6446SOL    HW229338   3.657   6.750   7.284
 6447SOL     OW29339   5.096   2.040   1.288
 6447SOL    HW129340   5.120   2.122   1.340
 6447SOL    HW229341   5.132   2.047   1.195
 6448SOL     OW29342   0.512   0.001   5.179
 6448SOL    HW129343   0.534   0.074   5.244
 6448SOL    HW229344   0.475   0.040   5.095
 6449SOL     OW29345   1.445   3.167   2.028
 6449SOL    HW129346   1.355   3.175   2.071
 6449SOL    HW229347   1.436   3.140   1.932
 6450SOL     OW29348   1.920   5.941   1.311
 6450SOL    HW129349   1.995   5.884   1.345
 6450SOL    HW229350   1.862   5.971   1.387
 6451SOL     OW29351   7.043   3.238   7.514
 6451SOL    HW129352   7.031   3.317   7.453
 6451SOL    HW229353   7.110   3.260   7.585
 6452SOL     OW29354   0.209   3.119   0.329
 6452SOL    HW129355   0.125   3.164   0.362
 6452SOL    HW229356   0.187   3.056   0.255
 6453SOL     OW29357   2.469   6.101   6.738
 6453SOL    HW129358   2.383   6.051   6.750
 6453SOL    HW229359   2.454   6.182   6.681
 6454SOL     OW29360   5.018   2.036   5.578
 6454SOL    HW129361   5.077   2.007   5.653
 6454SOL    HW229362   4.995   1.957   5.521
 6455SOL     OW29363   1.690   2.178   6.048
 6455SOL    HW129364   1.638   2.236   6.110
 6455SOL    HW229365   1.657   2.084   6.054
 6456SOL     OW29366   0.562   7.726   0.913
 6456SOL    HW129367   0.631   7.655   0.924
 6456SOL    HW229368   0.494   7.697   0.845
 6457SOL     OW29369   0.081   7.137   1.681
 6457SOL    HW129370   0.171   7.122   1.640
 6457SOL    HW229371   0.089   7.137   1.781
 6458SOL     OW29372   1.149   0.071   1.046
 6458SOL    HW129373   1.062   0.090   1.093
 6458SOL    HW229374   1.134   0.064   0.948
 6459SOL     OW29375   3.436   3.179   5.469
 6459SOL    HW129376   3.437   3.193   5.370
 6459SOL    HW229377   3.406   3.262   5.516
 6460SOL     OW29378   3.518   7.623   7.449
 6460SOL    HW129379   3.617   7.638   7.447
 6460SOL    HW229380   3.495   7.540   7.397
 6461SOL     OW29381   1.039   1.033   0.253
 6461SOL    HW129382   1.103   0.964   0.284
 6461SOL    HW229383   1.081   1.090   0.183
 6462SOL     OW29384   3.321   1.845   4.294
 6462SOL    HW129385   3.250   1.785   4.257
 6462SOL    HW229386   3.407   1.829   4.246
 6463SOL     OW29387   1.700   0.103   4.865
 6463SOL    HW129388   1.633   0.073   4.797
 6463SOL    HW229389   1.654   0.146   4.943
 6464SOL     OW29390   3.276   3.409   2.483
 6464SOL    HW129391   3.294   3.382   2.578
 6464SOL    HW229392   3.329   3.353   2.420
 6465SOL     OW29393   1.854   7.112   3.196
 6465SOL    HW129394   1.756   7.130   3.199
 6465SOL    HW229395   1.892   7.148   3.110
 6466SOL     OW29396   3.901   0.825   5.526
 6466SOL    HW129397   3.934   0.910   5.484
 6466SOL    HW229398   3.893   0.753   5.457
 6467SOL     OW29399   2.722   6.346   6.506
 6467SOL    HW129400   2.681   6.396   6.582
 6467SOL    HW229401   2.662   6.349   6.426
 6468SOL     OW29402   0.420   4.555   7.814
 6468SOL    HW129403   0.407   4.483   7.745
 6468SOL    HW229404   0.477   4.628   7.777
 6469SOL     OW29405   4.206   3.708   2.308
 6469SOL    HW129406   4.205   3.804   2.279
 6469SOL    HW229407   4.143   3.696   2.385
 6470SOL     OW29408   2.437   4.098   0.710
 6470SOL    HW129409   2.372   4.166   0.744
 6470SOL    HW229410   2.518   4.143   0.674
 6471SOL     OW29411   5.634   4.320   3.873
 6471SOL    HW129412   5.695   4.380   3.925
 6471SOL    HW229413   5.583   4.374   3.806
 6472SOL     OW29414   3.389   4.543   1.720
 6472SOL    HW129415   3.436   4.477   1.778
 6472SOL    HW229416   3.294   4.553   1.749
 6473SOL     OW29417   7.887   3.260   7.626
 6473SOL    HW129418   7.929   3.346   7.656
 6473SOL    HW229419   7.788   3.264   7.639
 6474SOL     OW29420   2.321   6.549   5.950
 6474SOL    HW129421   2.248   6.606   5.911
 6474SOL    HW229422   2.334   6.570   6.047
 6475SOL     OW29423   4.111   3.507   7.394
 6475SOL    HW129424   4.030   3.530   7.448
 6475SOL    HW229425   4.166   3.589   7.378
 6476SOL     OW29426   6.658   3.079   0.597
 6476SOL    HW129427   6.695   2.991   0.568
 6476SOL    HW229428   6.707   3.153   0.551
 6477SOL     OW29429   1.974   7.488   4.348
 6477SOL    HW129430   1.933   7.472   4.438
 6477SOL    HW229431   1.967   7.406   4.292
 6478SOL     OW29432   0.969   7.841   0.249
 6478SOL    HW129433   1.054   7.811   0.292
 6478SOL    HW229434   0.905   7.765   0.241
 6479SOL     OW29435   0.629   0.771   2.758
 6479SOL    HW129436   0.548   0.820   2.726
 6479SOL    HW229437   0.647   0.794   2.854
 6480SOL     OW29438   1.946   2.755   1.374
 6480SOL    HW129439   2.042   2.735   1.389
 6480SOL    HW229440   1.895   2.671   1.358
 6481SOL     OW29441   3.078   0.016   1.166
 6481SOL    HW129442   2.982  -0.000   1.146
 6481SOL    HW229443   3.088   0.066   1.252
 6482SOL     OW29444   7.612   6.163   3.981
 6482SOL    HW129445   7.561   6.243   4.012
 6482SOL    HW229446   7.555   6.106   3.922
 6483SOL     OW29447   7.229   4.065   3.026
 6483SOL    HW129448   7.210   3.998   2.953
 6483SOL    HW229449   7.238   4.156   2.987
 6484SOL     OW29450   5.226   4.541   0.109
 6484SOL    HW129451   5.215   4.625   0.056
 6484SOL    HW229452   5.235   4.563   0.206
 6485SOL     OW29453   3.188   6.520   4.230
 6485SOL    HW129454   3.101   6.518   4.182
 6485SOL    HW229455   3.182   6.580   4.310
 6486SOL     OW29456   0.243   5.210   7.678
 6486SOL    HW129457   0.290   5.271   7.743
 6486SOL    HW229458   0.210   5.262   7.600
 6487SOL     OW29459   1.511   1.508   0.669
 6487SOL    HW129460   1.585   1.485   0.605
 6487SOL    HW229461   1.428   1.529   0.619
 6488SOL     OW29462   1.785   1.918   6.272
 6488SOL    HW129463   1.738   2.002   6.244
 6488SOL    HW229464   1.860   1.898   6.209
 6489SOL     OW29465   6.680   3.974   1.983
 6489SOL    HW129466   6.741   4.028   1.926
 6489SOL    HW229467   6.606   3.936   1.927
 6490SOL     OW29468   3.868   4.716   1.631
 6490SOL    HW129469   3.830   4.628   1.658
 6490SOL    HW229470   3.893   4.714   1.534
 6491SOL     OW29471   0.956   4.526   7.780
 6491SOL    HW129472   0.925   4.616   7.811
 6491SOL    HW229473   0.881   4.461   7.782
 6492SOL     OW29474   3.422   1.285   2.614
 6492SOL    HW129475   3.357   1.361   2.611
 6492SOL    HW229476   3.460   1.276   2.706
 6493SOL     OW29477   1.920   1.403   0.997
 6493SOL    HW129478   2.010   1.392   0.954
 6493SOL    HW229479   1.854   1.343   0.952
 6494SOL     OW29480   0.647   7.436   0.500
 6494SOL    HW129481   0.659   7.367   0.572
 6494SOL    HW229482   0.665   7.395   0.411
 6495SOL     OW29483   4.186   3.556   1.063
 6495SOL    HW129484   4.243   3.474   1.067
 6495SOL    HW229485   4.243   3.638   1.066
 6496SOL     OW29486   4.362   2.267   5.830
 6496SOL    HW129487   4.416   2.190   5.794
 6496SOL    HW229488   4.309   2.238   5.909
 6497SOL     OW29489   3.110   8.000   7.064
 6497SOL    HW129490   3.195   7.953   7.039
 6497SOL    HW229491   3.090   7.986   7.161
 6498SOL     OW29492   5.870   5.738   4.895
 6498SOL    HW129493   5.970   5.726   4.899
 6498SOL    HW229494   5.845   5.830   4.926
 6499SOL     OW29495   5.258   3.580   4.552
 6499SOL    HW129496   5.297   3.529   4.476
 6499SOL    HW229497   5.174   3.536   4.584
 6500SOL     OW29498   5.426   0.950   3.776
 6500SOL    HW129499   5.426   1.040   3.819
 6500SOL    HW229500   5.498   0.893   3.816
 6501SOL     OW29501   4.577   0.065   3.561
 6501SOL    HW129502   4.636   0.007   3.506
 6501SOL    HW229503   4.481   0.044   3.542
 6502SOL     OW29504   6.089   1.804   6.126
 6502SOL    HW129505   6.076   1.713   6.164
 6502SOL    HW229506   6.127   1.798   6.034
 6503SOL     OW29507   4.291   7.229   2.348
 6503SOL    HW129508   4.252   7.290   2.417
 6503SOL    HW229509   4.372   7.271   2.307
 6504SOL     OW29510   2.027   7.224   5.091
 6504SOL    HW129511   2.092   7.158   5.129
 6504SOL    HW229512   2.056   7.251   4.999
 6505SOL     OW29513   1.258   4.581   5.366
 6505SOL    HW129514   1.230   4.642   5.440
 6505SOL    HW229515   1.189   4.582   5.294
 6506SOL     OW29516   4.673   5.396   3.639
 6506SOL    HW129517   4.737   5.471   3.657
 6506SOL    HW229518   4.705   5.312   3.684
 6507SOL     OW29519   6.104   5.801   1.972
 6507SOL    HW129520   6.117   5.706   1.999
 6507SOL    HW229521   6.014   5.813   1.930
 6508SOL     OW29522   2.393   3.114   2.680
 6508SOL    HW129523   2.423   3.209   2.666
 6508SOL    HW229524   2.413   3.085   2.773
 6509SOL     OW29525   6.024   3.578   6.087
 6509SOL    HW129526   6.030   3.608   6.182
 6509SOL    HW229527   5.940   3.525   6.073
 6510SOL     OW29528   2.887   3.831   7.069
 6510SOL    HW129529   2.924   3.862   7.156
 6510SOL    HW229530   2.957   3.782   7.017
 6511SOL     OW29531   3.487   6.816   7.499
 6511SOL    HW129532   3.556   6.803   7.571
 6511SOL    HW229533   3.528   6.864   7.421
 6512SOL     OW29534   5.547   1.470   6.167
 6512SOL    HW129535   5.497   1.385   6.185
 6512SOL    HW229536   5.525   1.538   6.238
 6513SOL     OW29537   0.992   5.734   4.058
 6513SOL    HW129538   0.938   5.788   3.994
 6513SOL    HW229539   1.044   5.664   4.009
 6514SOL     OW29540   1.974   4.412   0.956
 6514SOL    HW129541   2.069   4.415   0.926
 6514SOL    HW229542   1.969   4.380   1.051
 6515SOL     OW29543   6.141   7.054   7.343
 6515SOL    HW129544   6.220   6.994   7.359
 6515SOL    HW229545   6.171   7.138   7.299
 6516SOL     OW29546   2.764   5.894   1.051
 6516SOL    HW129547   2.715   5.973   1.089
 6516SOL    HW229548   2.749   5.888   0.953
 6517SOL     OW29549   6.960   2.118   7.885
 6517SOL    HW129550   6.940   2.021   7.899
 6517SOL    HW229551   6.992   2.133   7.791
 6518SOL     OW29552   6.251   6.991   5.609
 6518SOL    HW129553   6.326   7.016   5.669
 6518SOL    HW229554   6.234   7.064   5.543
 6519SOL     OW29555   1.553   6.510   0.370
 6519SOL    HW129556   1.609   6.508   0.287
 6519SOL    HW229557   1.591   6.575   0.436
 6520SOL     OW29558   6.807   5.214   2.945
 6520SOL    HW129559   6.884   5.274   2.969
 6520SOL    HW229560   6.731   5.268   2.911
 6521SOL     OW29561   0.909   6.715   5.446
 6521SOL    HW129562   0.894   6.629   5.397
 6521SOL    HW229563   0.884   6.705   5.542
 6522SOL     OW29564   4.541   4.477   0.883
 6522SOL    HW129565   4.587   4.465   0.971
 6522SOL    HW229566   4.514   4.573   0.872
 6523SOL     OW29567   2.012   2.887   5.505
 6523SOL    HW129568   2.082   2.818   5.485
 6523SOL    HW229569   2.047   2.978   5.485
 6524SOL     OW29570   7.916   0.247   3.621
 6524SOL    HW129571   8.000   0.208   3.659
 6524SOL    HW229572   7.915   0.238   3.522
 6525SOL     OW29573   0.919   6.578   1.298
 6525SOL    HW129574   1.007   6.543   1.266
 6525SOL    HW229575   0.846   6.548   1.236
 6526SOL     OW29576   0.729   2.703   3.531
 6526SOL    HW129577   0.824   2.707   3.499
 6526SOL    HW229578   0.725   2.656   3.619
 6527SOL     OW29579   5.189   1.752   5.507
 6527SOL    HW129580   5.238   1.721   5.426
 6527SOL    HW229581   5.168   1.674   5.566
 6528SOL     OW29582   4.355   0.992   1.079
 6528SOL    HW129583   4.329   0.935   1.157
 6528SOL    HW229584   4.274   1.017   1.026
 6529SOL     OW29585   0.809   3.661   4.916
 6529SOL    HW129586   0.808   3.761   4.925
 6529SOL    HW229587   0.781   3.635   4.824
 6530SOL     OW29588   6.234   3.932   2.633
 6530SOL    HW129589   6.303   3.868   2.668
 6530SOL    HW229590   6.239   3.936   2.533
 6531SOL     OW29591   7.293   7.216   6.691
 6531SOL    HW129592   7.226   7.246   6.622
 6531SOL    HW229593   7.262   7.244   6.782
 6532SOL     OW29594   0.535   0.333   6.387
 6532SOL    HW129595   0.462   0.330   6.318
 6532SOL    HW229596   0.556   0.428   6.410
 6533SOL     OW29597   2.194   5.193   7.692
 6533SOL    HW129598   2.259   5.126   7.729
 6533SOL    HW229599   2.219   5.217   7.598
 6534SOL     OW29600   2.200   2.174   4.259
 6534SOL    HW129601   2.197   2.107   4.185
 6534SOL    HW229602   2.197   2.266   4.221
 6535SOL     OW29603   6.434   2.551   1.948
 6535SOL    HW129604   6.373   2.630   1.949
 6535SOL    HW229605   6.482   2.544   2.036
 6536SOL     OW29606   4.872   2.801   4.361
 6536SOL    HW129607   4.799   2.858   4.399
 6536SOL    HW229608   4.922   2.852   4.292
 6537SOL     OW29609   7.512   2.336   6.670
 6537SOL    HW129610   7.606   2.317   6.697
 6537SOL    HW229611   7.507   2.421   6.618
 6538SOL     OW29612   6.932   5.478   6.170
 6538SOL    HW129613   6.867   5.445   6.102
 6538SOL    HW229614   7.007   5.413   6.180
 6539SOL     OW29615   0.122   0.647   3.326
 6539SOL    HW129616   0.042   0.637   3.267
 6539SOL    HW229617   0.097   0.634   3.421
 6540SOL     OW29618   1.399   2.229   1.294
 6540SOL    HW129619   1.418   2.327   1.285
 6540SOL    HW229620   1.426   2.181   1.210
 6541SOL     OW29621   4.444   7.968   2.206
 6541SOL    HW129622   4.531   7.922   2.189
 6541SOL    HW229623   4.440   8.000   2.300
 6542SOL     OW29624   5.948   0.942   7.537
 6542SOL    HW129625   5.971   0.999   7.458
 6542SOL    HW229626   5.886   0.993   7.597
 6543SOL     OW29627   3.635   7.412   7.849
 6543SOL    HW129628   3.679   7.325   7.869
 6543SOL    HW229629   3.572   7.437   7.923
 6544SOL     OW29630   2.259   0.922   2.026
 6544SOL    HW129631   2.309   0.909   1.940
 6544SOL    HW229632   2.174   0.869   2.024
 6545SOL     OW29633   3.725   0.686   3.260
 6545SOL    HW129634   3.698   0.734   3.344
 6545SOL    HW229635   3.727   0.587   3.277
 6546SOL     OW29636   3.440   1.544   5.505
 6546SOL    HW129637   3.524   1.490   5.495
 6546SOL    HW229638   3.400   1.527   5.595
 6547SOL     OW29639   6.705   6.066   7.303
 6547SOL    HW129640   6.620   6.090   7.350
 6547SOL    HW229641   6.707   6.108   7.212
 6548SOL     OW29642   6.327   1.985   7.953
 6548SOL    HW129643   6.239   1.973   8.000
 6548SOL    HW229644   6.331   1.928   7.872
 6549SOL     OW29645   5.828   3.557   6.704
 6549SOL    HW129646   5.860   3.468   6.672
 6549SOL    HW229647   5.904   3.622   6.703
 6550SOL     OW29648   7.652   0.632   4.546
 6550SOL    HW129649   7.726   0.678   4.596
 6550SOL    HW229650   7.645   0.669   4.453
 6551SOL     OW29651   3.698   2.932   2.813
 6551SOL    HW129652   3.633   2.933   2.737
 6551SOL    HW229653   3.699   3.022   2.858
 6552SOL     OW29654   3.887   7.812   3.476
 6552SOL    HW129655   3.952   7.878   3.440
 6552SOL    HW229656   3.927   7.762   3.553
 6553SOL     OW29657   5.941   3.581   7.479
 6553SOL    HW129658   5.898   3.602   7.392
 6553SOL    HW229659   6.029   3.535   7.464
 6554SOL     OW29660   7.080   5.687   0.123
 6554SOL    HW129661   7.057   5.590   0.107
 6554SOL    HW229662   7.128   5.724   0.044
 6555SOL     OW29663   5.443   0.240   4.431
 6555SOL    HW129664   5.484   0.173   4.493
 6555SOL    HW229665   5.504   0.255   4.353
 6556SOL     OW29666   1.119   5.493   0.156
 6556SOL    HW129667   1.120   5.405   0.203
 6556SOL    HW229668   1.033   5.504   0.105
 6557SOL     OW29669   6.833   6.562   2.977
 6557SOL    HW129670   6.862   6.495   2.908
 6557SOL    HW229671   6.867   6.536   3.067
 6558SOL     OW29672   2.860   6.068   4.279
 6558SOL    HW129673   2.837   5.985   4.330
 6558SOL    HW229674   2.894   6.044   4.188
 6559SOL     OW29675   4.746   1.653   0.184
 6559SOL    HW129676   4.824   1.709   0.158
 6559SOL    HW229677   4.668   1.711   0.208
 6560SOL     OW29678   1.395   4.297   2.873
 6560SOL    HW129679   1.408   4.396   2.877
 6560SOL    HW229680   1.415   4.256   2.962
 6561SOL     OW29681   4.339   1.474   7.809
 6561SOL    HW129682   4.295   1.385   7.797
 6561SOL    HW229683   4.276   1.547   7.783
 6562SOL     OW29684   7.099   7.076   0.156
 6562SOL    HW129685   7.137   6.991   0.120
 6562SOL    HW229686   7.062   7.061   0.248
 6563SOL     OW29687   4.069   5.927   5.049
 6563SOL    HW129688   4.071   5.830   5.072
 6563SOL    HW229689   4.162   5.962   5.038
 6564SOL     OW29690   6.024   3.176   3.345
 6564SOL    HW129691   6.080   3.100   3.377
 6564SOL    HW229692   6.041   3.194   3.249
 6565SOL     OW29693   6.062   5.980   7.460
 6565SOL    HW129694   6.127   5.910   7.490
 6565SOL    HW229695   5.971   5.941   7.453
 6566SOL     OW29696   1.877   4.998   3.868
 6566SOL    HW129697   1.833   4.957   3.947
 6566SOL    HW229698   1.957   5.050   3.896
 6567SOL     OW29699   5.218   6.883   3.334
 6567SOL    HW129700   5.261   6.862   3.246
 6567SOL    HW229701   5.154   6.810   3.358
 6568SOL     OW29702   1.230   4.289   7.414
 6568SOL    HW129703   1.253   4.192   7.419
 6568SOL    HW229704   1.302   4.343   7.457
 6569SOL     OW29705   4.530   4.704   6.775
 6569SOL    HW129706   4.608   4.756   6.811
 6569SOL    HW229707   4.511   4.732   6.681
 6570SOL     OW29708   4.492   7.928   0.625
 6570SOL    HW129709   4.507   8.001   0.558
 6570SOL    HW229710   4.575   7.914   0.679
 6571SOL     OW29711   4.838   6.089   3.952
 6571SOL    HW129712   4.809   6.155   3.883
 6571SOL    HW229713   4.805   5.998   3.928
 6572SOL     OW29714   2.467   4.843   6.123
 6572SOL    HW129715   2.522   4.829   6.206
 6572SOL    HW229716   2.457   4.940   6.105
 6573SOL     OW29717   0.967   1.540   2.676
 6573SOL    HW129718   1.060   1.570   2.697
 6573SOL    HW229719   0.901   1.589   2.733
 6574SOL     OW29720   7.248   7.102   0.459
 6574SOL    HW129721   7.296   7.184   0.427
 6574SOL    HW229722   7.293   7.065   0.540
 6575SOL     OW29723   5.457   2.333   5.803
 6575SOL    HW129724   5.519   2.301   5.874
 6575SOL    HW229725   5.488   2.303   5.713
 6576SOL     OW29726   2.453   2.782   2.941
 6576SOL    HW129727   2.536   2.727   2.925
 6576SOL    HW229728   2.372   2.724   2.933
 6577SOL     OW29729   2.304   3.882   7.623
 6577SOL    HW129730   2.310   3.915   7.529
 6577SOL    HW229731   2.216   3.909   7.663
 6578SOL     OW29732   7.030   1.493   2.012
 6578SOL    HW129733   6.938   1.488   2.051
 6578SOL    HW229734   7.027   1.473   1.914
 6579SOL     OW29735   5.925   4.964   5.914
 6579SOL    HW129736   5.997   4.965   5.984
 6579SOL    HW229737   5.921   5.053   5.868
 6580SOL     OW29738   5.290   6.999   7.477
 6580SOL    HW129739   5.377   6.953   7.497
 6580SOL    HW229740   5.260   7.051   7.557
 6581SOL     OW29741   1.126   5.875   1.080
 6581SOL    HW129742   1.153   5.915   1.169
 6581SOL    HW229743   1.033   5.902   1.058
 6582SOL     OW29744   2.511   3.719   2.698
 6582SOL    HW129745   2.558   3.757   2.618
 6582SOL    HW229746   2.531   3.773   2.779
 6583SOL     OW29747   0.893   5.351   1.583
 6583SOL    HW129748   0.876   5.412   1.660
 6583SOL    HW229749   0.854   5.390   1.499
 6584SOL     OW29750   7.672   0.923   5.315
 6584SOL    HW129751   7.644   0.915   5.219
 6584SOL    HW229752   7.737   0.851   5.338
 6585SOL     OW29753   4.247   7.636   6.187
 6585SOL    HW129754   4.198   7.709   6.140
 6585SOL    HW229755   4.249   7.654   6.286
 6586SOL     OW29756   2.254   6.767   5.674
 6586SOL    HW129757   2.306   6.778   5.590
 6586SOL    HW229758   2.316   6.754   5.752
 6587SOL     OW29759   7.797   5.549   4.897
 6587SOL    HW129760   7.759   5.633   4.938
 6587SOL    HW229761   7.760   5.469   4.944
 6588SOL     OW29762   4.629   7.057   5.087
 6588SOL    HW129763   4.543   7.104   5.101
 6588SOL    HW229764   4.663   7.020   5.173
 6589SOL     OW29765   4.541   7.631   4.696
 6589SOL    HW129766   4.638   7.622   4.717
 6589SOL    HW229767   4.486   7.591   4.769
 6590SOL     OW29768   2.650   3.711   1.862
 6590SOL    HW129769   2.574   3.685   1.922
 6590SOL    HW229770   2.698   3.628   1.831
 6591SOL     OW29771   5.040   6.414   2.842
 6591SOL    HW129772   5.039   6.411   2.742
 6591SOL    HW229773   4.982   6.489   2.875
 6592SOL     OW29774   2.651   2.478   3.282
 6592SOL    HW129775   2.732   2.507   3.231
 6592SOL    HW229776   2.619   2.553   3.340
 6593SOL     OW29777   4.762   2.136   4.245
 6593SOL    HW129778   4.853   2.108   4.212
 6593SOL    HW229779   4.748   2.103   4.338
 6594SOL     OW29780   3.688   4.041   6.659
 6594SOL    HW129781   3.686   4.122   6.601
 6594SOL    HW229782   3.759   4.050   6.729
 6595SOL     OW29783   5.473   5.823   6.668
 6595SOL    HW129784   5.423   5.902   6.632
 6595SOL    HW229785   5.517   5.846   6.754
 6596SOL     OW29786   4.471   0.631   6.075
 6596SOL    HW129787   4.379   0.657   6.108
 6596SOL    HW229788   4.465   0.597   5.981
 6597SOL     OW29789   0.888   1.054   1.812
 6597SOL    HW129790   0.803   1.046   1.760
 6597SOL    HW229791   0.901   1.149   1.841
 6598SOL     OW29792   3.395   7.864   0.687
 6598SOL    HW129793   3.477   7.883   0.740
 6598SOL    HW229794   3.418   7.859   0.589
 6599SOL     OW29795   3.370   7.886   5.198
 6599SOL    HW129796   3.346   7.789   5.199
 6599SOL    HW229797   3.289   7.941   5.179
 6600SOL     OW29798   1.268   7.054   6.211
 6600SOL    HW129799   1.296   7.137   6.258
 6600SOL    HW229800   1.205   7.002   6.267
 6601SOL     OW29801   2.893   7.420   7.066
 6601SOL    HW129802   2.872   7.510   7.028
 6601SOL    HW229803   2.982   7.388   7.034
 6602SOL     OW29804   0.233   0.400   1.992
 6602SOL    HW129805   0.168   0.470   1.964
 6602SOL    HW229806   0.252   0.338   1.916
 6603SOL     OW29807   6.875   5.732   7.909
 6603SOL    HW129808   6.943   5.662   7.887
 6603SOL    HW229809   6.838   5.716   8.000
 6604SOL     OW29810   5.935   1.343   3.919
 6604SOL    HW129811   5.900   1.250   3.927
 6604SOL    HW229812   5.970   1.359   3.827
 6605SOL     OW29813   2.616   2.216   5.622
 6605SOL    HW129814   2.611   2.155   5.543
 6605SOL    HW229815   2.549   2.189   5.691
 6606SOL     OW29816   3.194   5.435   3.485
 6606SOL    HW129817   3.281   5.462   3.443
 6606SOL    HW229818   3.148   5.516   3.520
 6607SOL     OW29819   0.080   0.026   1.643
 6607SOL    HW129820   0.006   0.055   1.582
 6607SOL    HW229821   0.147   0.099   1.653
 6608SOL     OW29822   3.173   7.950   1.980
 6608SOL    HW129823   3.218   8.000   1.906
 6608SOL    HW229824   3.182   8.000   2.066
 6609SOL     OW29825   3.503   2.106   3.770
 6609SOL    HW129826   3.580   2.059   3.727
 6609SOL    HW229827   3.482   2.190   3.720
 6610SOL     OW29828   2.732   0.303   6.525
 6610SOL    HW129829   2.786   0.344   6.451
 6610SOL    HW229830   2.785   0.304   6.610
 6611SOL     OW29831   2.852   1.459   1.259
 6611SOL    HW129832   2.939   1.438   1.304
 6611SOL    HW229833   2.838   1.558   1.256
 6612SOL     OW29834   3.547   1.635   0.095
 6612SOL    HW129835   3.474   1.573   0.122
 6612SOL    HW229836   3.582   1.610   0.004
 6613SOL     OW29837   3.500   7.404   0.819
 6613SOL    HW129838   3.501   7.441   0.726
 6613SOL    HW229839   3.414   7.356   0.836
 6614SOL     OW29840   3.736   1.058   5.138
 6614SOL    HW129841   3.647   1.048   5.094
 6614SOL    HW229842   3.726   1.105   5.226
 6615SOL     OW29843   6.223   1.598   1.791
 6615SOL    HW129844   6.282   1.518   1.782
 6615SOL    HW229845   6.166   1.589   1.872
 6616SOL     OW29846   6.779   6.372   7.310
 6616SOL    HW129847   6.752   6.286   7.354
 6616SOL    HW229848   6.729   6.382   7.223
 6617SOL     OW29849   3.690   5.907   3.024
 6617SOL    HW129850   3.618   5.965   3.063
 6617SOL    HW229851   3.668   5.886   2.929
 6618SOL     OW29852   5.010   4.972   1.006
 6618SOL    HW129853   5.047   4.884   0.977
 6618SOL    HW229854   5.068   5.046   0.972
 6619SOL     OW29855   6.810   1.848   1.464
 6619SOL    HW129856   6.841   1.871   1.372
 6619SOL    HW229857   6.797   1.750   1.472
 6620SOL     OW29858   3.792   7.940   6.991
 6620SOL    HW129859   3.866   8.000   7.020
 6620SOL    HW229860   3.828   7.850   6.968
 6621SOL     OW29861   2.174   6.072   1.097
 6621SOL    HW129862   2.253   6.017   1.124
 6621SOL    HW229863   2.107   6.014   1.051
 6622SOL     OW29864   5.970   1.750   1.287
 6622SOL    HW129865   5.945   1.661   1.324
 6622SOL    HW229866   5.994   1.813   1.361
 6623SOL     OW29867   5.277   5.728   1.906
 6623SOL    HW129868   5.369   5.721   1.867
 6623SOL    HW229869   5.237   5.637   1.914
 6624SOL     OW29870   4.822   1.012   3.234
 6624SOL    HW129871   4.896   0.970   3.182
 6624SOL    HW229872   4.858   1.086   3.290
 6625SOL     OW29873   2.321   3.391   0.648
 6625SOL    HW129874   2.264   3.459   0.602
 6625SOL    HW229875   2.400   3.368   0.590
 6626SOL     OW29876   2.208   5.036   5.111
 6626SOL    HW129877   2.115   4.999   5.108
 6626SOL    HW229878   2.244   5.031   5.205
 6627SOL     OW29879   6.147   3.000   5.230
 6627SOL    HW129880   6.146   3.056   5.147
 6627SOL    HW229881   6.160   3.058   5.311
 6628SOL     OW29882   4.192   3.760   1.548
 6628SOL    HW129883   4.289   3.777   1.564
 6628SOL    HW229884   4.137   3.804   1.620
 6629SOL     OW29885   6.622   1.191   0.941
 6629SOL    HW129886   6.647   1.107   0.893
 6629SOL    HW229887   6.634   1.179   1.039
 6630SOL     OW29888   6.333   1.664   3.571
 6630SOL    HW129889   6.349   1.758   3.602
 6630SOL    HW229890   6.414   1.609   3.587
 6631SOL     OW29891   1.510   4.139   0.039
 6631SOL    HW129892   1.420   4.116  -0.000
 6631SOL    HW229893   1.499   4.176   0.131
 6632SOL     OW29894   6.812   0.567   2.751
 6632SOL    HW129895   6.783   0.604   2.662
 6632SOL    HW229896   6.743   0.586   2.820
 6633SOL     OW29897   5.840   7.129   2.707
 6633SOL    HW129898   5.870   7.200   2.771
 6633SOL    HW229899   5.852   7.160   2.613
 6634SOL     OW29900   4.898   3.347   3.589
 6634SOL    HW129901   4.952   3.423   3.552
 6634SOL    HW229902   4.832   3.316   3.520
 6635SOL     OW29903   1.315   1.358   3.682
 6635SOL    HW129904   1.265   1.386   3.600
 6635SOL    HW229905   1.325   1.436   3.744
 6636SOL     OW29906   3.949   5.058   5.520
 6636SOL    HW129907   3.849   5.059   5.511
 6636SOL    HW229908   3.978   5.123   5.590
 6637SOL     OW29909   5.770   4.985   3.453
 6637SOL    HW129910   5.714   5.061   3.420
 6637SOL    HW229911   5.713   4.905   3.469
 6638SOL     OW29912   6.467   4.860   6.912
 6638SOL    HW129913   6.370   4.886   6.909
 6638SOL    HW229914   6.519   4.913   6.845
 6639SOL     OW29915   0.933   0.819   5.071
 6639SOL    HW129916   0.887   0.741   5.028
 6639SOL    HW229917   0.919   0.816   5.170
 6640SOL     OW29918   2.986   4.791   6.798
 6640SOL    HW129919   2.974   4.716   6.863
 6640SOL    HW229920   3.057   4.853   6.830
 6641SOL     OW29921   7.150   3.824   3.625
 6641SOL    HW129922   7.089   3.888   3.578
 6641SOL    HW229923   7.098   3.772   3.692
 6642SOL     OW29924   5.454   2.439   4.780
 6642SOL    HW129925   5.428   2.342   4.782
 6642SOL    HW229926   5.490   2.467   4.869
 6643SOL     OW29927   1.668   6.224   6.261
 6643SOL    HW129928   1.746   6.277   6.295
 6643SOL    HW229929   1.646   6.252   6.167
 6644SOL     OW29930   2.227   7.754   6.017
 6644SOL    HW129931   2.227   7.846   5.979
 6644SOL    HW229932   2.318   7.714   6.011
 6645SOL     OW29933   3.290   4.061   1.439
 6645SOL    HW129934   3.331   3.979   1.479
 6645SOL    HW229935   3.274   4.129   1.510
 6646SOL     OW29936   5.056   7.793   4.279
 6646SOL    HW129937   5.078   7.882   4.320
 6646SOL    HW229938   5.018   7.807   4.187
 6647SOL     OW29939   4.167   7.512   0.165
 6647SOL    HW129940   4.163   7.542   0.260
 6647SOL    HW229941   4.085   7.543   0.116
 6648SOL     OW29942   3.804   1.167   2.137
 6648SOL    HW129943   3.811   1.173   2.237
 6648SOL    HW229944   3.887   1.202   2.095
 6649SOL     OW29945   4.937   1.885   4.584
 6649SOL    HW129946   5.027   1.843   4.595
 6649SOL    HW229947   4.911   1.887   4.488
 6650SOL     OW29948   5.127   0.384   3.826
 6650SOL    HW129949   5.134   0.477   3.863
 6650SOL    HW229950   5.158   0.381   3.732
 6651SOL     OW29951   1.176   0.340   1.905
 6651SOL    HW129952   1.179   0.264   1.839
 6651SOL    HW229953   1.235   0.320   1.983
 6652SOL     OW29954   3.294   1.945   0.738
 6652SOL    HW129955   3.352   1.908   0.665
 6652SOL    HW229956   3.199   1.923   0.720
 6653SOL     OW29957   1.226   1.266   2.930
 6653SOL    HW129958   1.170   1.202   2.876
 6653SOL    HW229959   1.184   1.282   3.019
 6654SOL     OW29960   2.939   4.732   5.666
 6654SOL    HW129961   2.985   4.793   5.731
 6654SOL    HW229962   2.905   4.784   5.588
 6655SOL     OW29963   2.165   7.105   2.462
 6655SOL    HW129964   2.149   7.019   2.414
 6655SOL    HW229965   2.158   7.182   2.398
 6656SOL     OW29966   1.535   7.672   3.809
 6656SOL    HW129967   1.540   7.707   3.903
 6656SOL    HW229968   1.455   7.708   3.763
 6657SOL     OW29969   0.115   2.499   3.785
 6657SOL    HW129970   0.040   2.459   3.732
 6657SOL    HW229971   0.081   2.575   3.841
 6658SOL     OW29972   3.336   5.726   0.695
 6658SOL    HW129973   3.340   5.684   0.604
 6658SOL    HW229974   3.340   5.825   0.687
 6659SOL     OW29975   3.014   1.830   5.771
 6659SOL    HW129976   2.990   1.733   5.769
 6659SOL    HW229977   2.969   1.879   5.697
 6660SOL     OW29978   0.100   7.018   4.151
 6660SOL    HW129979   0.183   6.981   4.109
 6660SOL    HW229980   0.021   6.994   4.096
 6661SOL     OW29981   1.222   7.873   7.190
 6661SOL    HW129982   1.124   7.865   7.208
 6661SOL    HW229983   1.242   7.964   7.154
 6662SOL     OW29984   1.795   6.603   1.806
 6662SOL    HW129985   1.719   6.667   1.793
 6662SOL    HW229986   1.825   6.605   1.902
 6663SOL     OW29987   0.724   2.996   1.091
 6663SOL    HW129988   0.722   3.093   1.115
 6663SOL    HW229989   0.669   2.981   1.008
 6664SOL     OW29990   4.998   5.703   1.342
 6664SOL    HW129991   5.075   5.720   1.404
 6664SOL    HW229992   5.010   5.755   1.258
 6665SOL     OW29993   2.859   4.113   0.728
 6665SOL    HW129994   2.852   4.076   0.821
 6665SOL    HW229995   2.953   4.100   0.694
 6666SOL     OW29996   0.118   1.831   2.312
 6666SOL    HW129997   0.151   1.752   2.259
 6666SOL    HW229998   0.056   1.799   2.384
 6667SOL     OW29999   5.220   2.311   5.217
 6667SOL    HW130000   5.206   2.246   5.291
 6667SOL    HW230001   5.237   2.262   5.131
 6668SOL     OW30002   3.815   7.701   6.006
 6668SOL    HW130003   3.814   7.790   6.052
 6668SOL    HW230004   3.902   7.688   5.959
 6669SOL     OW30005   5.117   1.301   4.738
 6669SOL    HW130006   5.047   1.365   4.708
 6669SOL    HW230007   5.082   1.207   4.733
 6670SOL     OW30008   3.293   1.298   4.338
 6670SOL    HW130009   3.252   1.233   4.402
 6670SOL    HW230010   3.235   1.309   4.258
 6671SOL     OW30011   6.165   3.821   5.322
 6671SOL    HW130012   6.154   3.775   5.410
 6671SOL    HW230013   6.220   3.904   5.333
 6672SOL     OW30014   7.938   0.229   6.353
 6672SOL    HW130015   8.000   0.182   6.290
 6672SOL    HW230016   7.926   0.175   6.436
 6673SOL     OW30017   1.497   6.026   2.465
 6673SOL    HW130018   1.541   6.083   2.396
 6673SOL    HW230019   1.497   5.930   2.435
 6674SOL     OW30020   7.991   4.119   4.028
 6674SOL    HW130021   8.000   4.085   3.934
 6674SOL    HW230022   7.987   4.219   4.028
 6675SOL     OW30023   6.194   1.579   6.846
 6675SOL    HW130024   6.096   1.569   6.824
 6675SOL    HW230025   6.223   1.672   6.827
 6676SOL     OW30026   6.426   6.254   2.293
 6676SOL    HW130027   6.477   6.308   2.360
 6676SOL    HW230028   6.489   6.213   2.227
 6677SOL     OW30029   1.719   1.460   1.876
 6677SOL    HW130030   1.763   1.401   1.944
 6677SOL    HW230031   1.773   1.542   1.862
 6678SOL     OW30032   1.522   1.863   1.634
 6678SOL    HW130033   1.448   1.803   1.663
 6678SOL    HW230034   1.608   1.812   1.629
 6679SOL     OW30035   0.641   0.563   3.760
 6679SOL    HW130036   0.706   0.633   3.731
 6679SOL    HW230037   0.548   0.599   3.754
 6680SOL     OW30038   7.438   7.198   0.223
 6680SOL    HW130039   7.467   7.290   0.193
 6680SOL    HW230040   7.499   7.165   0.295
 6681SOL     OW30041   2.789   6.799   7.134
 6681SOL    HW130042   2.699   6.841   7.148
 6681SOL    HW230043   2.806   6.788   7.036
 6682SOL     OW30044   5.226   7.711   5.888
 6682SOL    HW130045   5.128   7.696   5.894
 6682SOL    HW230046   5.262   7.666   5.806
 6683SOL     OW30047   4.422   7.933   7.802
 6683SOL    HW130048   4.449   7.888   7.716
 6683SOL    HW230049   4.491   8.000   7.829
 6684SOL     OW30050   3.764   0.065   5.111
 6684SOL    HW130051   3.821   0.072   5.194
 6684SOL    HW230052   3.674   0.102   5.129
 6685SOL     OW30053   6.816   3.500   5.604
 6685SOL    HW130054   6.902   3.464   5.642
 6685SOL    HW230055   6.769   3.429   5.552
 6686SOL     OW30056   1.354   6.207   2.603
 6686SOL    HW130057   1.439   6.201   2.656
 6686SOL    HW230058   1.375   6.223   2.507
 6687SOL     OW30059   1.056   4.229   1.934
 6687SOL    HW130060   1.105   4.181   1.860
 6687SOL    HW230061   0.959   4.206   1.930
 6688SOL     OW30062   5.421   7.725   4.426
 6688SOL    HW130063   5.456   7.788   4.357
 6688SOL    HW230064   5.383   7.644   4.381
 6689SOL     OW30065   7.316   3.761   6.828
 6689SOL    HW130066   7.411   3.782   6.851
 6689SOL    HW230067   7.265   3.737   6.910
 6690SOL     OW30068   4.732   7.539   2.852
 6690SOL    HW130069   4.802   7.587   2.906
 6690SOL    HW230070   4.724   7.580   2.761
 6691SOL     OW30071   4.752   2.496   0.122
 6691SOL    HW130072   4.702   2.582   0.132
 6691SOL    HW230073   4.811   2.500   0.041
 6692SOL     OW30074   2.165   0.724   1.277
 6692SOL    HW130075   2.169   0.627   1.253
 6692SOL    HW230076   2.203   0.780   1.204
 6693SOL     OW30077   0.591   3.735   7.001
 6693SOL    HW130078   0.587   3.794   7.081
 6693SOL    HW230079   0.656   3.771   6.935
 6694SOL     OW30080   3.320   7.013   6.952
 6694SOL    HW130081   3.302   7.034   7.049
 6694SOL    HW230082   3.392   6.944   6.946
 6695SOL     OW30083   0.826   4.935   4.393
 6695SOL    HW130084   0.814   4.837   4.405
 6695SOL    HW230085   0.846   4.956   4.297
 6696SOL     OW30086   5.603   7.851   2.359
 6696SOL    HW130087   5.670   7.910   2.315
 6696SOL    HW230088   5.584   7.883   2.451
 6697SOL     OW30089   6.389   7.190   5.447
 6697SOL    HW130090   6.351   7.258   5.511
 6697SOL    HW230091   6.361   7.212   5.354
 6698SOL     OW30092   7.723   7.727   5.442
 6698SOL    HW130093   7.747   7.818   5.477
 6698SOL    HW230094   7.725   7.661   5.516
 6699SOL     OW30095   5.421   1.939   0.600
 6699SOL    HW130096   5.398   1.845   0.625
 6699SOL    HW230097   5.485   1.939   0.524
 6700SOL     OW30098   0.526   2.877   0.578
 6700SOL    HW130099   0.551   2.896   0.673
 6700SOL    HW230100   0.549   2.955   0.520
 6701SOL     OW30101   0.194   4.977   2.485
 6701SOL    HW130102   0.224   4.899   2.430
 6701SOL    HW230103   0.096   4.973   2.501
 6702SOL     OW30104   5.637   1.718   6.793
 6702SOL    HW130105   5.668   1.639   6.846
 6702SOL    HW230106   5.594   1.785   6.853
 6703SOL     OW30107   1.637   0.037   3.947
 6703SOL    HW130108   1.549   0.068   3.984
 6703SOL    HW230109   1.624  -0.000   3.855
 6704SOL     OW30110   6.043   3.014   0.674
 6704SOL    HW130111   5.972   3.069   0.629
 6704SOL    HW230112   6.050   3.038   0.770
 6705SOL     OW30113   6.675   2.981   3.673
 6705SOL    HW130114   6.616   2.951   3.598
 6705SOL    HW230115   6.629   3.053   3.725
 6706SOL     OW30116   1.329   0.406   1.699
 6706SOL    HW130117   1.362   0.374   1.788
 6706SOL    HW230118   1.233   0.430   1.705
 6707SOL     OW30119   1.594   3.702   6.090
 6707SOL    HW130120   1.581   3.775   6.158
 6707SOL    HW230121   1.551   3.728   6.004
 6708SOL     OW30122   0.519   6.318   1.191
 6708SOL    HW130123   0.588   6.374   1.236
 6708SOL    HW230124   0.517   6.338   1.093
 6709SOL     OW30125   3.664   2.080   6.455
 6709SOL    HW130126   3.573   2.113   6.480
 6709SOL    HW230127   3.665   2.052   6.359
 6710SOL     OW30128   3.044   1.308   6.174
 6710SOL    HW130129   2.999   1.281   6.089
 6710SOL    HW230130   3.110   1.238   6.201
 6711SOL     OW30131   3.610   1.045   2.372
 6711SOL    HW130132   3.638   0.949   2.369
 6711SOL    HW230133   3.590   1.077   2.280
 6712SOL     OW30134   8.002   4.928   3.971
 6712SOL    HW130135   7.946   4.855   3.930
 6712SOL    HW230136   7.967   4.950   4.062
 6713SOL     OW30137   4.087   1.412   2.333
 6713SOL    HW130138   4.124   1.400   2.425
 6713SOL    HW230139   4.154   1.383   2.265
 6714SOL     OW30140   0.866   5.962   4.727
 6714SOL    HW130141   0.787   5.926   4.777
 6714SOL    HW230142   0.835   6.014   4.647
 6715SOL     OW30143   0.348   6.011   4.125
 6715SOL    HW130144   0.313   5.938   4.067
 6715SOL    HW230145   0.440   6.038   4.096
 6716SOL     OW30146   1.733   7.290   6.630
 6716SOL    HW130147   1.787   7.222   6.680
 6716SOL    HW230148   1.756   7.287   6.533
 6717SOL     OW30149   7.152   1.705   4.923
 6717SOL    HW130150   7.178   1.749   5.009
 6717SOL    HW230151   7.099   1.769   4.867
 6718SOL     OW30152   1.128   5.581   3.379
 6718SOL    HW130153   1.092   5.666   3.418
 6718SOL    HW230154   1.191   5.538   3.444
 6719SOL     OW30155   4.482   7.383   7.141
 6719SOL    HW130156   4.534   7.468   7.133
 6719SOL    HW230157   4.533   7.316   7.194
 6720SOL     OW30158   0.327   7.878   0.818
 6720SOL    HW130159   0.337   7.840   0.910
 6720SOL    HW230160   0.408   7.932   0.795
 6721SOL     OW30161   7.857   6.160   3.965
 6721SOL    HW130162   7.943   6.111   3.953
 6721SOL    HW230163   7.849   6.194   4.058
 6722SOL     OW30164   0.740   6.389   3.749
 6722SOL    HW130165   0.779   6.451   3.817
 6722SOL    HW230166   0.741   6.432   3.658
 6723SOL     OW30167   0.309   5.365   4.591
 6723SOL    HW130168   0.367   5.327   4.518
 6723SOL    HW230169   0.275   5.292   4.650
 6724SOL     OW30170   4.355   5.772   3.319
 6724SOL    HW130171   4.282   5.819   3.370
 6724SOL    HW230172   4.443   5.814   3.340
 6725SOL     OW30173   2.118   2.310   6.700
 6725SOL    HW130174   2.114   2.231   6.761
 6725SOL    HW230175   2.062   2.293   6.619
 6726SOL     OW30176   6.070   3.044   1.508
 6726SOL    HW130177   6.082   3.030   1.409
 6726SOL    HW230178   5.975   3.068   1.528
 6727SOL     OW30179   0.983   7.300   5.713
 6727SOL    HW130180   0.955   7.281   5.807
 6727SOL    HW230181   0.970   7.396   5.692
 6728SOL     OW30182   0.427   2.988   1.076
 6728SOL    HW130183   0.497   3.022   1.139
 6728SOL    HW230184   0.444   3.022   0.984
 6729SOL     OW30185   3.353   5.144   1.925
 6729SOL    HW130186   3.374   5.057   1.970
 6729SOL    HW230187   3.275   5.188   1.970
 6730SOL     OW30188   0.751   6.940   4.452
 6730SOL    HW130189   0.743   7.012   4.521
 6730SOL    HW230190   0.661   6.923   4.410
 6731SOL     OW30191   2.327   7.409   7.587
 6731SOL    HW130192   2.398   7.442   7.650
 6731SOL    HW230193   2.332   7.459   7.501
 6732SOL     OW30194   7.108   1.818   1.076
 6732SOL    HW130195   7.070   1.752   1.140
 6732SOL    HW230196   7.165   1.771   1.008
 6733SOL     OW30197   5.907   5.046   0.404
 6733SOL    HW130198   5.896   5.113   0.478
 6733SOL    HW230199   5.824   4.992   0.395
 6734SOL     OW30200   6.053   6.639   3.493
 6734SOL    HW130201   6.122   6.667   3.559
 6734SOL    HW230202   5.966   6.620   3.539
 6735SOL     OW30203   1.112   3.132   2.078
 6735SOL    HW130204   1.157   3.043   2.091
 6735SOL    HW230205   1.148   3.199   2.142
 6736SOL     OW30206   2.609   6.911   0.055
 6736SOL    HW130207   2.552   6.989   0.030
 6736SOL    HW230208   2.652   6.927   0.143
 6737SOL     OW30209   2.278   0.707   5.897
 6737SOL    HW130210   2.198   0.669   5.945
 6737SOL    HW230211   2.353   0.721   5.961
 6738SOL     OW30212   2.849   4.442   1.745
 6738SOL    HW130213   2.911   4.496   1.802
 6738SOL    HW230214   2.860   4.468   1.649
 6739SOL     OW30215   5.809   1.530   7.064
 6739SOL    HW130216   5.855   1.456   7.112
 6739SOL    HW230217   5.785   1.501   6.971
 6740SOL     OW30218   8.000   6.969   0.290
 6740SOL    HW130219   7.980   6.997   0.196
 6740SOL    HW230220   7.972   7.040   0.354
 6741SOL     OW30221   2.629   4.135   4.591
 6741SOL    HW130222   2.712   4.185   4.617
 6741SOL    HW230223   2.645   4.036   4.597
 6742SOL     OW30224   3.780   4.435   6.314
 6742SOL    HW130225   3.839   4.369   6.269
 6742SOL    HW230226   3.786   4.424   6.413
 6743SOL     OW30227   2.079   2.456   3.730
 6743SOL    HW130228   2.101   2.410   3.816
 6743SOL    HW230229   1.986   2.493   3.733
 6744SOL     OW30230   3.135   1.583   3.753
 6744SOL    HW130231   3.153   1.596   3.851
 6744SOL    HW230232   3.113   1.671   3.711
 6745SOL     OW30233   0.391   5.994   3.633
 6745SOL    HW130234   0.433   6.085   3.630
 6745SOL    HW230235   0.352   5.971   3.544
 6746SOL     OW30236   4.852   3.737   7.132
 6746SOL    HW130237   4.929   3.797   7.153
 6746SOL    HW230238   4.885   3.643   7.123
 6747SOL     OW30239   6.866   3.153   5.651
 6747SOL    HW130240   6.828   3.062   5.639
 6747SOL    HW230241   6.957   3.148   5.692
 6748SOL     OW30242   6.472   5.025   2.330
 6748SOL    HW130243   6.427   5.009   2.418
 6748SOL    HW230244   6.405   5.024   2.256
 6749SOL     OW30245   7.283   4.799   4.680
 6749SOL    HW130246   7.196   4.789   4.728
 6749SOL    HW230247   7.282   4.883   4.626
 6750SOL     OW30248   3.497   0.494   6.466
 6750SOL    HW130249   3.551   0.423   6.511
 6750SOL    HW230250   3.539   0.518   6.378
 6751SOL     OW30251   3.022   0.519   5.350
 6751SOL    HW130252   2.950   0.470   5.300
 6751SOL    HW230253   2.984   0.560   5.433
 6752SOL     OW30254   4.633   2.148   6.460
 6752SOL    HW130255   4.634   2.215   6.386
 6752SOL    HW230256   4.540   2.138   6.496
 6753SOL     OW30257   2.140   4.006   5.849
 6753SOL    HW130258   2.210   4.036   5.784
 6753SOL    HW230259   2.178   3.939   5.912
 6754SOL     OW30260   4.885   2.724   1.013
 6754SOL    HW130261   4.952   2.757   0.946
 6754SOL    HW230262   4.819   2.796   1.034
 6755SOL     OW30263   7.005   7.487   0.614
 6755SOL    HW130264   7.074   7.557   0.633
 6755SOL    HW230265   6.992   7.478   0.515
 6756SOL     OW30266   6.842   2.438   7.883
 6756SOL    HW130267   6.901   2.372   7.836
 6756SOL    HW230268   6.811   2.400   7.970
 6757SOL     OW30269   1.587   4.553   5.182
 6757SOL    HW130270   1.513   4.606   5.223
 6757SOL    HW230271   1.550   4.484   5.120
 6758SOL     OW30272   2.246   0.525   0.684
 6758SOL    HW130273   2.168   0.479   0.728
 6758SOL    HW230274   2.259   0.488   0.592
 6759SOL     OW30275   3.869   5.201   0.818
 6759SOL    HW130276   3.885   5.163   0.909
 6759SOL    HW230277   3.817   5.286   0.825
 6760SOL     OW30278   5.076   0.906   2.807
 6760SOL    HW130279   5.104   0.990   2.854
 6760SOL    HW230280   4.977   0.906   2.794
 6761SOL     OW30281   3.935   4.138   5.367
 6761SOL    HW130282   4.015   4.109   5.420
 6761SOL    HW230283   3.964   4.191   5.288
 6762SOL     OW30284   6.513   4.797   2.122
 6762SOL    HW130285   6.486   4.705   2.095
 6762SOL    HW230286   6.488   4.814   2.217
 6763SOL     OW30287   2.471   6.454   5.704
 6763SOL    HW130288   2.526   6.493   5.630
 6763SOL    HW230289   2.454   6.524   5.774
 6764SOL     OW30290   7.249   5.293   2.374
 6764SOL    HW130291   7.212   5.247   2.455
 6764SOL    HW230292   7.342   5.260   2.356
 6765SOL     OW30293   4.672   3.062   6.661
 6765SOL    HW130294   4.613   3.006   6.603
 6765SOL    HW230295   4.643   3.055   6.756
 6766SOL     OW30296   7.882   0.182   2.986
 6766SOL    HW130297   7.856   0.131   2.905
 6766SOL    HW230298   7.820   0.160   3.062
 6767SOL     OW30299   6.990   4.893   4.122
 6767SOL    HW130300   7.070   4.942   4.156
 6767SOL    HW230301   6.962   4.824   4.188
 6768SOL     OW30302   4.628   0.472   7.351
 6768SOL    HW130303   4.686   0.452   7.272
 6768SOL    HW230304   4.536   0.436   7.334
 6769SOL     OW30305   1.247   4.137   2.838
 6769SOL    HW130306   1.232   4.132   2.937
 6769SOL    HW230307   1.321   4.076   2.811
 6770SOL     OW30308   5.328   5.706   3.845
 6770SOL    HW130309   5.324   5.715   3.746
 6770SOL    HW230310   5.343   5.610   3.870
 6771SOL     OW30311   4.782   7.230   1.445
 6771SOL    HW130312   4.735   7.168   1.508
 6771SOL    HW230313   4.731   7.236   1.359
 6772SOL     OW30314   7.945   5.904   3.764
 6772SOL    HW130315   8.000   5.929   3.844
 6772SOL    HW230316   7.859   5.957   3.764
 6773SOL     OW30317   7.270   2.535   6.774
 6773SOL    HW130318   7.367   2.526   6.751
 6773SOL    HW230319   7.254   2.503   6.868
 6774SOL     OW30320   2.110   3.286   5.240
 6774SOL    HW130321   2.011   3.277   5.233
 6774SOL    HW230322   2.153   3.249   5.157
 6775SOL     OW30323   3.059   7.275   1.093
 6775SOL    HW130324   3.010   7.348   1.141
 6775SOL    HW230325   3.054   7.290   0.994
 6776SOL     OW30326   5.816   4.745   0.904
 6776SOL    HW130327   5.775   4.744   0.812
 6776SOL    HW230328   5.834   4.838   0.933
 6777SOL     OW30329   3.690   7.325   4.593
 6777SOL    HW130330   3.735   7.292   4.510
 6777SOL    HW230331   3.629   7.401   4.570
 6778SOL     OW30332   0.410   4.485   3.511
 6778SOL    HW130333   0.374   4.425   3.439
 6778SOL    HW230334   0.393   4.580   3.487
 6779SOL     OW30335   2.337   2.989   0.902
 6779SOL    HW130336   2.287   2.902   0.909
 6779SOL    HW230337   2.421   2.976   0.849
 6780SOL     OW30338   0.260   2.257   1.482
 6780SOL    HW130339   0.202   2.303   1.416
 6780SOL    HW230340   0.331   2.319   1.516
 6781SOL     OW30341   5.437   1.377   3.144
 6781SOL    HW130342   5.463   1.413   3.054
 6781SOL    HW230343   5.368   1.435   3.186
 6782SOL     OW30344   1.508   4.116   7.535
 6782SOL    HW130345   1.606   4.126   7.552
 6782SOL    HW230346   1.470   4.204   7.507
 6783SOL     OW30347   6.400   0.957   4.252
 6783SOL    HW130348   6.402   0.861   4.281
 6783SOL    HW230349   6.430   0.964   4.156
 6784SOL     OW30350   6.092   0.972   4.778
 6784SOL    HW130351   6.163   1.041   4.764
 6784SOL    HW230352   6.100   0.933   4.870
 6785SOL     OW30353   3.633   2.955   7.228
 6785SOL    HW130354   3.608   3.035   7.284
 6785SOL    HW230355   3.684   2.983   7.148
 6786SOL     OW30356   7.687   4.797   5.026
 6786SOL    HW130357   7.756   4.793   5.099
 6786SOL    HW230358   7.672   4.891   4.998
 6787SOL     OW30359   6.476   4.445   3.114
 6787SOL    HW130360   6.509   4.533   3.146
 6787SOL    HW230361   6.493   4.375   3.184
 6788SOL     OW30362   0.161   4.095   4.850
 6788SOL    HW130363   0.222   4.155   4.903
 6788SOL    HW230364   0.201   4.077   4.760
 6789SOL     OW30365   7.145   1.073   0.744
 6789SOL    HW130366   7.143   0.994   0.683
 6789SOL    HW230367   7.065   1.072   0.805
 6790SOL     OW30368   7.226   5.610   1.118
 6790SOL    HW130369   7.238   5.705   1.090
 6790SOL    HW230370   7.133   5.596   1.152
 6791SOL     OW30371   4.170   2.033   3.797
 6791SOL    HW130372   4.175   1.938   3.765
 6791SOL    HW230373   4.126   2.036   3.887
 6792SOL     OW30374   2.104   1.257   1.405
 6792SOL    HW130375   2.197   1.251   1.371
 6792SOL    HW230376   2.100   1.221   1.498
 6793SOL     OW30377   3.376   0.904   1.753
 6793SOL    HW130378   3.290   0.950   1.728
 6793SOL    HW230379   3.397   0.921   1.849
 6794SOL     OW30380   7.481   4.728   5.218
 6794SOL    HW130381   7.415   4.689   5.154
 6794SOL    HW230382   7.554   4.663   5.236
 6795SOL     OW30383   7.490   1.638  -0.000
 6795SOL    HW130384   7.440   1.601   0.079
 6795SOL    HW230385   7.567   1.693   0.031
 6796SOL     OW30386   3.453   2.599   6.509
 6796SOL    HW130387   3.521   2.535   6.473
 6796SOL    HW230388   3.476   2.625   6.602
 6797SOL     OW30389   7.067   6.051   4.962
 6797SOL    HW130390   7.047   6.138   5.006
 6797SOL    HW230391   7.020   6.045   4.874
 6798SOL     OW30392   5.885   2.168   2.275
 6798SOL    HW130393   5.893   2.136   2.180
 6798SOL    HW230394   5.855   2.093   2.333
 6799SOL     OW30395   3.128   2.241   2.251
 6799SOL    HW130396   3.148   2.316   2.315
 6799SOL    HW230397   3.041   2.258   2.205
 6800SOL     OW30398   5.079   2.475   2.720
 6800SOL    HW130399   5.179   2.479   2.724
 6800SOL    HW230400   5.044   2.544   2.655
 6801SOL     OW30401   2.088   7.400   1.171
 6801SOL    HW130402   2.001   7.352   1.161
 6801SOL    HW230403   2.164   7.341   1.143
 6802SOL     OW30404   6.060   3.603   7.727
 6802SOL    HW130405   6.028   3.510   7.708
 6802SOL    HW230406   6.093   3.646   7.643
 6803SOL     OW30407   3.013   7.224   7.899
 6803SOL    HW130408   3.093   7.283   7.906
 6803SOL    HW230409   3.041   7.132   7.872
 6804SOL     OW30410   6.735   1.651   2.636
 6804SOL    HW130411   6.714   1.632   2.732
 6804SOL    HW230412   6.651   1.666   2.585
 6805SOL     OW30413   6.434   2.470   0.037
 6805SOL    HW130414   6.474   2.383   0.008
 6805SOL    HW230415   6.402   2.463   0.132
 6806SOL     OW30416   1.547   4.106   6.360
 6806SOL    HW130417   1.488   4.114   6.440
 6806SOL    HW230418   1.509   4.039   6.296
 6807SOL     OW30419   4.779   1.608   5.861
 6807SOL    HW130420   4.731   1.695   5.875
 6807SOL    HW230421   4.740   1.559   5.783
 6808SOL     OW30422   6.908   1.863   2.926
 6808SOL    HW130423   6.819   1.893   2.891
 6808SOL    HW230424   6.924   1.900   3.017
 6809SOL     OW30425   6.862   2.184   3.175
 6809SOL    HW130426   6.771   2.223   3.166
 6809SOL    HW230427   6.862   2.088   3.146
 6810SOL     OW30428   5.964   3.796   1.059
 6810SOL    HW130429   5.944   3.707   1.101
 6810SOL    HW230430   6.056   3.826   1.085
 6811SOL     OW30431   5.271   3.164   0.922
 6811SOL    HW130432   5.309   3.089   0.978
 6811SOL    HW230433   5.303   3.156   0.828
 6812SOL     OW30434   1.361   6.584   3.469
 6812SOL    HW130435   1.433   6.602   3.536
 6812SOL    HW230436   1.401   6.543   3.387
 6813SOL     OW30437   3.244   7.026   3.151
 6813SOL    HW130438   3.262   6.935   3.188
 6813SOL    HW230439   3.293   7.038   3.065
 6814SOL     OW30440   4.467   4.486   6.961
 6814SOL    HW130441   4.526   4.566   6.946
 6814SOL    HW230442   4.403   4.476   6.885
 6815SOL     OW30443   5.939   4.225   3.141
 6815SOL    HW130444   5.846   4.229   3.104
 6815SOL    HW230445   5.956   4.305   3.200
 6816SOL     OW30446   4.635   7.554   5.033
 6816SOL    HW130447   4.685   7.556   4.947
 6816SOL    HW230448   4.635   7.644   5.076
 6817SOL     OW30449   1.148   1.471   4.176
 6817SOL    HW130450   1.188   1.536   4.111
 6817SOL    HW230451   1.068   1.427   4.136
 6818SOL     OW30452   2.105   4.941   7.595
 6818SOL    HW130453   2.123   4.955   7.693
 6818SOL    HW230454   2.126   5.025   7.545
 6819SOL     OW30455   7.758   7.534   5.245
 6819SOL    HW130456   7.681   7.471   5.243
 6819SOL    HW230457   7.834   7.498   5.191
 6820SOL     OW30458   7.414   5.978   0.809
 6820SOL    HW130459   7.359   6.051   0.769
 6820SOL    HW230460   7.450   6.007   0.898
 6821SOL     OW30461   5.279   4.160   4.363
 6821SOL    HW130462   5.258   4.254   4.339
 6821SOL    HW230463   5.315   4.155   4.456
 6822SOL     OW30464   2.681   4.115   0.517
 6822SOL    HW130465   2.763   4.169   0.494
 6822SOL    HW230466   2.708   4.031   0.564
 6823SOL     OW30467   4.546   6.419   4.056
 6823SOL    HW130468   4.511   6.350   4.119
 6823SOL    HW230469   4.640   6.442   4.078
 6824SOL     OW30470   5.064   2.257   5.776
 6824SOL    HW130471   5.161   2.229   5.776
 6824SOL    HW230472   5.030   2.261   5.870
 6825SOL     OW30473   5.074   3.159   3.777
 6825SOL    HW130474   5.048   3.248   3.739
 6825SOL    HW230475   5.025   3.142   3.862
 6826SOL     OW30476   0.256   5.999   6.545
 6826SOL    HW130477   0.339   5.971   6.496
 6826SOL    HW230478   0.264   5.974   6.641
 6827SOL     OW30479   2.951   5.402   7.320
 6827SOL    HW130480   2.882   5.455   7.369
 6827SOL    HW230481   3.042   5.438   7.340
 6828SOL     OW30482   5.152   3.280   2.076
 6828SOL    HW130483   5.183   3.333   1.996
 6828SOL    HW230484   5.117   3.191   2.046
 6829SOL     OW30485   6.877   4.936   1.819
 6829SOL    HW130486   6.934   4.867   1.774
 6829SOL    HW230487   6.885   4.927   1.918
 6830SOL     OW30488   8.000   7.798   6.468
 6830SOL    HW130489   7.971   7.887   6.501
 6830SOL    HW230490   7.963   7.781   6.377
 6831SOL     OW30491   3.944   5.217   4.164
 6831SOL    HW130492   3.979   5.127   4.189
 6831SOL    HW230493   4.003   5.257   4.093
 6832SOL     OW30494   7.523   2.242   7.160
 6832SOL    HW130495   7.614   2.284   7.170
 6832SOL    HW230496   7.510   2.171   7.229
 6833SOL     OW30497   0.711   1.556   5.862
 6833SOL    HW130498   0.806   1.589   5.860
 6833SOL    HW230499   0.664   1.583   5.779
 6834SOL     OW30500   0.058   4.101   5.797
 6834SOL    HW130501  -0.000   4.019   5.787
 6834SOL    HW230502   0.145   4.076   5.839
 6835SOL     OW30503   6.687   6.459   2.134
 6835SOL    HW130504   6.602   6.511   2.144
 6835SOL    HW230505   6.766   6.520   2.145
 6836SOL     OW30506   6.069   3.029   5.640
 6836SOL    HW130507   6.032   3.110   5.595
 6836SOL    HW230508   6.157   3.005   5.600
 6837SOL     OW30509   5.323   5.268   6.818
 6837SOL    HW130510   5.376   5.327   6.878
 6837SOL    HW230511   5.332   5.173   6.848
 6838SOL     OW30512   6.659   5.519   1.214
 6838SOL    HW130513   6.592   5.488   1.282
 6838SOL    HW230514   6.636   5.611   1.184
 6839SOL     OW30515   2.896   0.555   3.485
 6839SOL    HW130516   2.866   0.584   3.394
 6839SOL    HW230517   2.984   0.507   3.478
 6840SOL     OW30518   6.597   6.998   5.466
 6840SOL    HW130519   6.672   7.036   5.412
 6840SOL    HW230520   6.510   7.008   5.417
 6841SOL     OW30521   4.812   5.858   7.152
 6841SOL    HW130522   4.799   5.950   7.188
 6841SOL    HW230523   4.731   5.830   7.099
 6842SOL     OW30524   1.256   3.957   1.297
 6842SOL    HW130525   1.193   3.905   1.354
 6842SOL    HW230526   1.348   3.918   1.303
 6843SOL     OW30527   6.410   7.764   6.526
 6843SOL    HW130528   6.326   7.802   6.488
 6843SOL    HW230529   6.439   7.817   6.605
 6844SOL     OW30530   3.257   5.384   7.173
 6844SOL    HW130531   3.237   5.475   7.136
 6844SOL    HW230532   3.298   5.392   7.263
 6845SOL     OW30533   3.513   1.069   7.108
 6845SOL    HW130534   3.578   1.095   7.036
 6845SOL    HW230535   3.555   1.084   7.198
 6846SOL     OW30536   6.977   4.591   1.532
 6846SOL    HW130537   7.024   4.658   1.590
 6846SOL    HW230538   6.965   4.627   1.440
 6847SOL     OW30539   1.793   2.196   4.634
 6847SOL    HW130540   1.796   2.296   4.643
 6847SOL    HW230541   1.750   2.171   4.548
 6848SOL     OW30542   2.543   5.960   6.246
 6848SOL    HW130543   2.604   5.966   6.325
 6848SOL    HW230544   2.532   5.865   6.217
 6849SOL     OW30545   4.971   3.732   1.667
 6849SOL    HW130546   4.982   3.639   1.633
 6849SOL    HW230547   5.054   3.786   1.649
 6850SOL     OW30548   6.387   2.650   0.747
 6850SOL    HW130549   6.473   2.625   0.790
 6850SOL    HW230550   6.403   2.683   0.654
 6851SOL     OW30551   7.180   0.805   3.417
 6851SOL    HW130552   7.175   0.750   3.500
 6851SOL    HW230553   7.130   0.760   3.343
 6852SOL     OW30554   2.756   1.467   3.447
 6852SOL    HW130555   2.688   1.409   3.490
 6852SOL    HW230556   2.799   1.527   3.515
 6853SOL     OW30557   0.983   7.089   2.669
 6853SOL    HW130558   0.992   7.043   2.758
 6853SOL    HW230559   0.980   7.022   2.596
 6854SOL     OW30560   6.557   3.285   4.457
 6854SOL    HW130561   6.498   3.366   4.462
 6854SOL    HW230562   6.610   3.286   4.372
 6855SOL     OW30563   6.484   3.272   2.676
 6855SOL    HW130564   6.527   3.339   2.615
 6855SOL    HW230565   6.555   3.216   2.720
 6856SOL     OW30566   6.948   6.336   7.483
 6856SOL    HW130567   6.932   6.314   7.580
 6856SOL    HW230568   7.045   6.326   7.461
 6857SOL     OW30569   2.965   1.572   1.035
 6857SOL    HW130570   3.022   1.599   0.957
 6857SOL    HW230571   2.997   1.484   1.072
 6858SOL     OW30572   7.561   6.786   6.918
 6858SOL    HW130573   7.461   6.790   6.920
 6858SOL    HW230574   7.599   6.856   6.979
 6859SOL     OW30575   3.884   4.413   7.063
 6859SOL    HW130576   3.958   4.350   7.084
 6859SOL    HW230577   3.826   4.426   7.144
 6860SOL     OW30578   5.660   3.813   4.285
 6860SOL    HW130579   5.567   3.783   4.305
 6860SOL    HW230580   5.713   3.738   4.245
 6861SOL     OW30581   2.939   2.964   0.682
 6861SOL    HW130582   2.866   2.909   0.641
 6861SOL    HW230583   2.912   2.995   0.773
 6862SOL     OW30584   5.701   3.269   4.792
 6862SOL    HW130585   5.712   3.308   4.884
 6862SOL    HW230586   5.783   3.286   4.738
 6863SOL     OW30587   4.813   6.571   6.466
 6863SOL    HW130588   4.777   6.493   6.415
 6863SOL    HW230589   4.770   6.574   6.557
 6864SOL     OW30590   7.508   5.914   7.942
 6864SOL    HW130591   7.444   5.967   7.998
 6864SOL    HW230592   7.580   5.875   8.000
 6865SOL     OW30593   4.918   0.387   0.371
 6865SOL    HW130594   4.857   0.460   0.337
 6865SOL    HW230595   4.885   0.355   0.460
 6866SOL     OW30596   7.017   7.952   5.816
 6866SOL    HW130597   7.067   8.000   5.888
 6866SOL    HW230598   6.977   7.868   5.853
 6867SOL     OW30599   5.589   7.584   2.907
 6867SOL    HW130600   5.603   7.673   2.949
 6867SOL    HW230601   5.676   7.535   2.899
 6868SOL     OW30602   7.312   2.273   4.419
 6868SOL    HW130603   7.346   2.316   4.335
 6868SOL    HW230604   7.297   2.176   4.404
 6869SOL     OW30605   0.926   2.795   0.595
 6869SOL    HW130606   0.896   2.728   0.526
 6869SOL    HW230607   0.880   2.882   0.580
 6870SOL     OW30608   0.199   3.361   5.813
 6870SOL    HW130609   0.162   3.448   5.846
 6870SOL    HW230610   0.149   3.332   5.732
 6871SOL     OW30611   3.205   5.206   6.291
 6871SOL    HW130612   3.115   5.244   6.310
 6871SOL    HW230613   3.224   5.210   6.193
 6872SOL     OW30614   5.483   3.135   5.527
 6872SOL    HW130615   5.538   3.054   5.549
 6872SOL    HW230616   5.481   3.148   5.428
 6873SOL     OW30617   4.385   6.016   4.609
 6873SOL    HW130618   4.407   6.113   4.618
 6873SOL    HW230619   4.391   5.987   4.514
 6874SOL     OW30620   1.304   2.088   0.867
 6874SOL    HW130621   1.276   2.076   0.962
 6874SOL    HW230622   1.394   2.049   0.852
 6875SOL     OW30623   5.283   2.862   5.816
 6875SOL    HW130624   5.255   2.958   5.808
 6875SOL    HW230625   5.283   2.834   5.912
 6876SOL     OW30626   4.066   3.727   5.463
 6876SOL    HW130627   3.980   3.755   5.421
 6876SOL    HW230628   4.124   3.682   5.395
 6877SOL     OW30629   3.668   6.690   2.364
 6877SOL    HW130630   3.762   6.691   2.398
 6877SOL    HW230631   3.637   6.596   2.353
 6878SOL     OW30632   7.328   6.265   6.530
 6878SOL    HW130633   7.230   6.244   6.524
 6878SOL    HW230634   7.365   6.281   6.439
 6879SOL     OW30635   0.502   2.752   1.538
 6879SOL    HW130636   0.472   2.662   1.571
 6879SOL    HW230637   0.531   2.747   1.443
 6880SOL     OW30638   4.458   4.233   5.569
 6880SOL    HW130639   4.380   4.181   5.535
 6880SOL    HW230640   4.439   4.266   5.661
 6881SOL     OW30641   2.779   3.432   7.933
 6881SOL    HW130642   2.825   3.518   7.911
 6881SOL    HW230643   2.706   3.449   8.000
 6882SOL     OW30644   4.577   7.324   6.378
 6882SOL    HW130645   4.492   7.276   6.398
 6882SOL    HW230646   4.572   7.419   6.409
 6883SOL     OW30647   6.526   1.176   7.394
 6883SOL    HW130648   6.609   1.209   7.348
 6883SOL    HW230649   6.550   1.142   7.485
 6884SOL     OW30650   6.713   1.574   0.621
 6884SOL    HW130651   6.652   1.648   0.649
 6884SOL    HW230652   6.795   1.612   0.579
 6885SOL     OW30653   0.401   2.163   4.555
 6885SOL    HW130654   0.388   2.220   4.473
 6885SOL    HW230655   0.326   2.098   4.563
 6886SOL     OW30656   4.515   3.107   7.235
 6886SOL    HW130657   4.420   3.099   7.206
 6886SOL    HW230658   4.576   3.088   7.158
 6887SOL     OW30659   5.929   3.761   5.618
 6887SOL    HW130660   6.022   3.796   5.608
 6887SOL    HW230661   5.885   3.803   5.698
 6888SOL     OW30662   0.266   4.585   6.548
 6888SOL    HW130663   0.213   4.570   6.631
 6888SOL    HW230664   0.208   4.574   6.467
 6889SOL     OW30665   1.097   1.595   2.369
 6889SOL    HW130666   1.016   1.597   2.428
 6889SOL    HW230667   1.160   1.668   2.395
 6890SOL     OW30668   1.437   0.800   7.159
 6890SOL    HW130669   1.513   0.854   7.195
 6890SOL    HW230670   1.450   0.782   7.062
 6891SOL     OW30671   5.966   7.229   1.566
 6891SOL    HW130672   5.894   7.171   1.528
 6891SOL    HW230673   5.942   7.259   1.658
 6892SOL     OW30674   5.394   5.045   5.017
 6892SOL    HW130675   5.394   4.996   5.104
 6892SOL    HW230676   5.303   5.045   4.977
 6893SOL     OW30677   1.329   5.694   2.354
 6893SOL    HW130678   1.241   5.648   2.361
 6893SOL    HW230679   1.384   5.676   2.436
 6894SOL     OW30680   3.589   3.444   6.819
 6894SOL    HW130681   3.617   3.350   6.838
 6894SOL    HW230682   3.564   3.453   6.723
 6895SOL     OW30683   2.942   7.965   0.997
 6895SOL    HW130684   2.918   7.868   0.987
 6895SOL    HW230685   2.979   8.000   0.911
 6896SOL     OW30686   0.746   5.350   0.042
 6896SOL    HW130687   0.831   5.382  -0.000
 6896SOL    HW230688   0.715   5.415   0.112
 6897SOL     OW30689   1.417   2.096   5.583
 6897SOL    HW130690   1.441   2.189   5.613
 6897SOL    HW230691   1.436   2.031   5.656
 6898SOL     OW30692   1.459   1.914   7.274
 6898SOL    HW130693   1.553   1.921   7.241
 6898SOL    HW230694   1.434   1.819   7.288
 6899SOL     OW30695   3.325   7.755   5.522
 6899SOL    HW130696   3.259   7.831   5.524
 6899SOL    HW230697   3.339   7.726   5.427
 6900SOL     OW30698   2.284   3.691   5.264
 6900SOL    HW130699   2.227   3.609   5.261
 6900SOL    HW230700   2.307   3.720   5.171
 6901SOL     OW30701   7.037   6.375   2.068
 6901SOL    HW130702   7.036   6.280   2.099
 6901SOL    HW230703   6.965   6.426   2.115
 6902SOL     OW30704   0.440   7.764   0.029
 6902SOL    HW130705   0.381   7.716   0.094
 6902SOL    HW230706   0.531   7.778   0.068
 6903SOL     OW30707   0.487   4.200   0.794
 6903SOL    HW130708   0.426   4.213   0.872
 6903SOL    HW230709   0.582   4.219   0.821
 6904SOL     OW30710   5.759   4.623   2.056
 6904SOL    HW130711   5.774   4.529   2.026
 6904SOL    HW230712   5.846   4.666   2.079
 6905SOL     OW30713   2.610   6.569   4.042
 6905SOL    HW130714   2.550   6.534   3.970
 6905SOL    HW230715   2.642   6.494   4.100
 6906SOL     OW30716   1.965   1.182   7.782
 6906SOL    HW130717   1.924   1.245   7.847
 6906SOL    HW230718   1.916   1.186   7.695
 6907SOL     OW30719   6.111   4.438   5.425
 6907SOL    HW130720   6.042   4.457   5.355
 6907SOL    HW230721   6.070   4.387   5.500
 6908SOL     OW30722   7.458   6.431   1.939
 6908SOL    HW130723   7.452   6.495   1.863
 6908SOL    HW230724   7.516   6.468   2.011
 6909SOL     OW30725   7.452   4.045   4.086
 6909SOL    HW130726   7.385   4.103   4.039
 6909SOL    HW230727   7.499   4.098   4.157
 6910SOL     OW30728   1.007   7.679   0.895
 6910SOL    HW130729   1.040   7.766   0.861
 6910SOL    HW230730   1.042   7.663   0.988
 6911SOL     OW30731   6.694   4.202   5.695
 6911SOL    HW130732   6.707   4.302   5.694
 6911SOL    HW230733   6.689   4.169   5.789
 6912SOL     OW30734   2.111   6.841   4.123
 6912SOL    HW130735   2.205   6.849   4.088
 6912SOL    HW230736   2.112   6.800   4.214
 6913SOL     OW30737   2.586   2.261   6.958
 6913SOL    HW130738   2.538   2.192   6.904
 6913SOL    HW230739   2.647   2.218   7.023
 6914SOL     OW30740   0.442   2.085   6.095
 6914SOL    HW130741   0.499   2.128   6.165
 6914SOL    HW230742   0.491   2.010   6.051
 6915SOL     OW30743   4.229   3.023   4.997
 6915SOL    HW130744   4.309   2.969   5.022
 6915SOL    HW230745   4.247   3.120   5.011
 6916SOL     OW30746   6.663   5.871   3.374
 6916SOL    HW130747   6.743   5.883   3.316
 6916SOL    HW230748   6.674   5.923   3.459
 6917SOL     OW30749   3.316   6.111   4.308
 6917SOL    HW130750   3.360   6.177   4.369
 6917SOL    HW230751   3.317   6.146   4.214
 6918SOL     OW30752   7.905   1.716   0.200
 6918SOL    HW130753   8.000   1.721   0.231
 6918SOL    HW230754   7.898   1.751   0.107
 6919SOL     OW30755   5.942   1.669   1.018
 6919SOL    HW130756   5.881   1.694   1.094
 6919SOL    HW230757   5.897   1.689   0.931
 6920SOL     OW30758   7.239   7.566   6.341
 6920SOL    HW130759   7.252   7.541   6.437
 6920SOL    HW230760   7.263   7.662   6.327
 6921SOL     OW30761   7.774   3.566   2.680
 6921SOL    HW130762   7.703   3.515   2.630
 6921SOL    HW230763   7.744   3.583   2.774
 6922SOL     OW30764   4.196   1.578   5.210
 6922SOL    HW130765   4.218   1.649   5.143
 6922SOL    HW230766   4.259   1.584   5.288
 6923SOL     OW30767   7.758   0.799   3.035
 6923SOL    HW130768   7.689   0.751   2.981
 6923SOL    HW230769   7.731   0.801   3.131
 6924SOL     OW30770   1.682   7.768   2.315
 6924SOL    HW130771   1.661   7.691   2.254
 6924SOL    HW230772   1.659   7.745   2.409
 6925SOL     OW30773   5.925   3.133   5.844
 6925SOL    HW130774   5.993   3.060   5.844
 6925SOL    HW230775   5.956   3.208   5.786
 6926SOL     OW30776   6.131   0.970   6.584
 6926SOL    HW130777   6.160   0.993   6.676
 6926SOL    HW230778   6.208   0.977   6.521
 6927SOL     OW30779   3.920   2.529   0.474
 6927SOL    HW130780   3.949   2.572   0.389
 6927SOL    HW230781   3.899   2.432   0.458
 6928SOL     OW30782   0.536   2.434   4.988
 6928SOL    HW130783   0.439   2.458   4.991
 6928SOL    HW230784   0.546   2.335   4.975
 6929SOL     OW30785   4.873   1.599   3.549
 6929SOL    HW130786   4.832   1.509   3.560
 6929SOL    HW230787   4.810   1.669   3.582
 6930SOL     OW30788   8.000   3.115   3.177
 6930SOL    HW130789   7.952   3.030   3.156
 6930SOL    HW230790   7.997   3.133   3.276
 6931SOL     OW30791   1.776   7.280   7.378
 6931SOL    HW130792   1.764   7.195   7.327
 6931SOL    HW230793   1.868   7.285   7.415
 6932SOL     OW30794   5.575   2.329   3.647
 6932SOL    HW130795   5.515   2.391   3.698
 6932SOL    HW230796   5.535   2.309   3.558
 6933SOL     OW30797   0.915   3.513   0.421
 6933SOL    HW130798   0.827   3.533   0.379
 6933SOL    HW230799   0.918   3.552   0.513
 6934SOL     OW30800   2.948   4.307   2.022
 6934SOL    HW130801   2.919   4.349   2.108
 6934SOL    HW230802   2.886   4.333   1.949
 6935SOL     OW30803   6.090   7.362   5.501
 6935SOL    HW130804   5.994   7.372   5.477
 6935SOL    HW230805   6.128   7.451   5.526
 6936SOL     OW30806   1.019   1.084   4.387
 6936SOL    HW130807   1.057   0.996   4.417
 6936SOL    HW230808   1.054   1.106   4.296
 6937SOL     OW30809   7.853   3.314   5.064
 6937SOL    HW130810   7.810   3.226   5.046
 6937SOL    HW230811   7.870   3.362   4.977
 6938SOL     OW30812   0.406   4.550   5.411
 6938SOL    HW130813   0.356   4.612   5.350
 6938SOL    HW230814   0.424   4.596   5.498
 6939SOL     OW30815   2.645   4.279   3.609
 6939SOL    HW130816   2.583   4.206   3.639
 6939SOL    HW230817   2.720   4.239   3.555
 6940SOL     OW30818   7.003   4.249   0.391
 6940SOL    HW130819   6.928   4.307   0.423
 6940SOL    HW230820   7.043   4.288   0.308
 6941SOL     OW30821   0.730   4.060   1.307
 6941SOL    HW130822   0.750   3.970   1.267
 6941SOL    HW230823   0.813   4.098   1.347
 6942SOL     OW30824   6.899   0.458   4.822
 6942SOL    HW130825   6.803   0.453   4.794
 6942SOL    HW230826   6.904   0.473   4.921
 6943SOL     OW30827   2.414   5.357   1.595
 6943SOL    HW130828   2.335   5.409   1.630
 6943SOL    HW230829   2.385   5.297   1.520
 6944SOL     OW30830   7.008   0.123   5.625
 6944SOL    HW130831   6.978   0.156   5.715
 6944SOL    HW230832   6.947   0.051   5.594
 6945SOL     OW30833   6.274   3.169   3.137
 6945SOL    HW130834   6.199   3.105   3.123
 6945SOL    HW230835   6.267   3.211   3.228
 6946SOL     OW30836   6.187   4.205   4.780
 6946SOL    HW130837   6.238   4.125   4.748
 6946SOL    HW230838   6.141   4.185   4.866
 6947SOL     OW30839   0.708   3.881   4.724
 6947SOL    HW130840   0.640   3.812   4.749
 6947SOL    HW230841   0.681   3.970   4.761
 6948SOL     OW30842   5.146   3.048   6.350
 6948SOL    HW130843   5.221   2.985   6.331
 6948SOL    HW230844   5.088   3.010   6.423
 6949SOL     OW30845   7.071   3.062   3.378
 6949SOL    HW130846   7.042   3.059   3.282
 6949SOL    HW230847   7.123   3.145   3.395
 6950SOL     OW30848   0.668   2.657   0.568
 6950SOL    HW130849   0.677   2.734   0.506
 6950SOL    HW230850   0.723   2.674   0.651
 6951SOL     OW30851   3.769   2.622   5.600
 6951SOL    HW130852   3.687   2.599   5.547
 6951SOL    HW230853   3.771   2.568   5.684
 6952SOL     OW30854   5.579   0.560   1.794
 6952SOL    HW130855   5.523   0.485   1.757
 6952SOL    HW230856   5.548   0.582   1.887
 6953SOL     OW30857   5.167   2.720   1.508
 6953SOL    HW130858   5.231   2.780   1.461
 6953SOL    HW230859   5.216   2.660   1.572
 6954SOL     OW30860   4.910   4.845   2.697
 6954SOL    HW130861   4.945   4.891   2.616
 6954SOL    HW230862   4.854   4.908   2.751
 6955SOL     OW30863   7.002   3.600   6.272
 6955SOL    HW130864   7.038   3.612   6.179
 6955SOL    HW230865   6.920   3.544   6.270
 6956SOL     OW30866   6.197   3.302   7.715
 6956SOL    HW130867   6.114   3.269   7.670
 6956SOL    HW230868   6.240   3.228   7.766
 6957SOL     OW30869   3.332   5.162   7.300
 6957SOL    HW130870   3.318   5.122   7.209
 6957SOL    HW230871   3.361   5.091   7.364
 6958SOL     OW30872   7.899   2.698   5.505
 6958SOL    HW130873   7.818   2.702   5.446
 6958SOL    HW230874   7.896   2.773   5.571
 6959SOL     OW30875   7.094   5.644   1.389
 6959SOL    HW130876   7.114   5.551   1.418
 6959SOL    HW230877   7.175   5.686   1.348
 6960SOL     OW30878   3.114   3.354   0.803
 6960SOL    HW130879   3.081   3.441   0.766
 6960SOL    HW230880   3.155   3.369   0.893
 6961SOL     OW30881   6.687   3.534   7.284
 6961SOL    HW130882   6.785   3.525   7.268
 6961SOL    HW230883   6.669   3.550   7.381
 6962SOL     OW30884   0.251   3.438   6.283
 6962SOL    HW130885   0.163   3.484   6.286
 6962SOL    HW230886   0.242   3.344   6.316
 6963SOL     OW30887   4.215   1.107   4.592
 6963SOL    HW130888   4.255   1.028   4.639
 6963SOL    HW230889   4.286   1.176   4.575
 6964SOL     OW30890   5.496   2.080   4.340
 6964SOL    HW130891   5.411   2.089   4.289
 6964SOL    HW230892   5.574   2.089   4.278
 6965SOL     OW30893   5.472   2.982   5.840
 6965SOL    HW130894   5.550   2.974   5.779
 6965SOL    HW230895   5.492   2.941   5.929
 6966SOL     OW30896   4.738   2.625   1.190
 6966SOL    HW130897   4.707   2.530   1.180
 6966SOL    HW230898   4.676   2.675   1.250
 6967SOL     OW30899   1.267   1.173   4.333
 6967SOL    HW130900   1.271   1.272   4.347
 6967SOL    HW230901   1.308   1.149   4.245
 6968SOL     OW30902   7.033   1.406   2.313
 6968SOL    HW130903   6.952   1.439   2.265
 6968SOL    HW230904   7.043   1.455   2.400
 6969SOL     OW30905   5.706  -0.000   2.893
 6969SOL    HW130906   5.754   0.080   2.931
 6969SOL    HW230907   5.631   0.030   2.835
 6970SOL     OW30908   1.634   0.977   6.015
 6970SOL    HW130909   1.536   0.973   6.031
 6970SOL    HW230910   1.653   0.991   5.918
 6971SOL     OW30911   1.768   7.549   0.414
 6971SOL    HW130912   1.702   7.475   0.427
 6971SOL    HW230913   1.813   7.540   0.325
 6972SOL     OW30914   5.671   3.181   3.804
 6972SOL    HW130915   5.758   3.137   3.780
 6972SOL    HW230916   5.627   3.216   3.721
 6973SOL     OW30917   3.981   0.381   3.719
 6973SOL    HW130918   4.010   0.471   3.687
 6973SOL    HW230919   4.021   0.362   3.809
 6974SOL     OW30920   5.184   6.604   3.286
 6974SOL    HW130921   5.272   6.559   3.302
 6974SOL    HW230922   5.179   6.635   3.191
 6975SOL     OW30923   6.544   6.758   7.768
 6975SOL    HW130924   6.572   6.679   7.713
 6975SOL    HW230925   6.587   6.752   7.859
 6976SOL     OW30926   2.412   3.657   5.458
 6976SOL    HW130927   2.489   3.717   5.476
 6976SOL    HW230928   2.326   3.703   5.480
 6977SOL     OW30929   6.723   7.583   1.317
 6977SOL    HW130930   6.747   7.513   1.250
 6977SOL    HW230931   6.640   7.630   1.289
 6978SOL     OW30932   1.762   6.665   1.529
 6978SOL    HW130933   1.768   6.698   1.434
 6978SOL    HW230934   1.699   6.723   1.581
 6979SOL     OW30935   3.898   5.397   6.729
 6979SOL    HW130936   3.908   5.466   6.657
 6979SOL    HW230937   3.892   5.306   6.688
 6980SOL     OW30938   6.395   3.764   2.885
 6980SOL    HW130939   6.421   3.711   2.965
 6980SOL    HW230940   6.392   3.862   2.908
 6981SOL     OW30941   4.136   7.212   5.488
 6981SOL    HW130942   4.188   7.295   5.468
 6981SOL    HW230943   4.146   7.188   5.585
 6982SOL     OW30944   0.366   0.065   7.567
 6982SOL    HW130945   0.337   0.158   7.592
 6982SOL    HW230946   0.326   0.040   7.479
 6983SOL     OW30947   0.017   0.330   6.049
 6983SOL    HW130948   0.014   0.423   6.086
 6983SOL    HW230949   0.106   0.289   6.065
 6984SOL     OW30950   1.543   4.841   7.001
 6984SOL    HW130951   1.590   4.806   6.920
 6984SOL    HW230952   1.453   4.798   7.010
 6985SOL     OW30953   5.664   4.181   5.155
 6985SOL    HW130954   5.588   4.209   5.096
 6985SOL    HW230955   5.640   4.096   5.203
 6986SOL     OW30956   2.711   5.742   0.713
 6986SOL    HW130957   2.737   5.837   0.731
 6986SOL    HW230958   2.635   5.740   0.649
 6987SOL     OW30959   7.087   0.701   1.648
 6987SOL    HW130960   7.152   0.689   1.723
 6987SOL    HW230961   7.090   0.794   1.614
 6988SOL     OW30962   2.523   2.922   5.038
 6988SOL    HW130963   2.524   2.980   5.120
 6988SOL    HW230964   2.494   2.975   4.958
 6989SOL     OW30965   2.646   7.058   1.420
 6989SOL    HW130966   2.732   7.034   1.466
 6989SOL    HW230967   2.665   7.109   1.337
 6990SOL     OW30968   5.531   5.409   1.913
 6990SOL    HW130969   5.488   5.350   1.981
 6990SOL    HW230970   5.622   5.436   1.943
 6991SOL     OW30971   0.851   2.737   1.157
 6991SOL    HW130972   0.877   2.833   1.170
 6991SOL    HW230973   0.832   2.695   1.246
 6992SOL     OW30974   5.845   6.610   2.911
 6992SOL    HW130975   5.860   6.536   2.977
 6992SOL    HW230976   5.929   6.626   2.859
 6993SOL     OW30977   1.075   0.363   5.128
 6993SOL    HW130978   1.029   0.304   5.062
 6993SOL    HW230979   1.023   0.366   5.214
 6994SOL     OW30980   6.951   3.687   7.174
 6994SOL    HW130981   6.929   3.694   7.271
 6994SOL    HW230982   7.032   3.629   7.161
 6995SOL     OW30983   6.123   3.392   6.761
 6995SOL    HW130984   6.191   3.424   6.695
 6995SOL    HW230985   6.054   3.463   6.776
 6996SOL     OW30986   2.131   3.923   7.905
 6996SOL    HW130987   2.035   3.915   7.879
 6996SOL    HW230988   2.143   3.893   8.000
 6997SOL     OW30989   0.670   7.777   0.691
 6997SOL    HW130990   0.643   7.859   0.641
 6997SOL    HW230991   0.642   7.696   0.641
 6998SOL     OW30992   5.915   4.718   2.408
 6998SOL    HW130993   5.953   4.793   2.463
 6998SOL    HW230994   5.828   4.746   2.367
 6999SOL     OW30995   2.067   5.135   3.364
 6999SOL    HW130996   2.091   5.224   3.405
 6999SOL    HW230997   2.029   5.149   3.273
 7000SOL     OW30998   6.275   0.134   4.674
 7000SOL    HW130999   6.278   0.225   4.632
 7000SOL    HW231000   6.312   0.139   4.767
 7001SOL     OW31001   7.776   0.008   6.236
 7001SOL    HW131002   7.843   0.014   6.310
 7001SOL    HW231003   7.824  -0.000   6.148
 7002SOL     OW31004   5.633   6.904   2.961
 7002SOL    HW131005   5.540   6.909   2.924
 7002SOL    HW231006   5.637   6.947   3.051
 7003SOL     OW31007   2.261   1.121   7.299
 7003SOL    HW131008   2.251   1.070   7.213
 7003SOL    HW231009   2.256   1.219   7.281
 7004SOL     OW31010   0.154   5.214   1.551
 7004SOL    HW131011   0.244   5.183   1.520
 7004SOL    HW231012   0.135   5.179   1.643
 7005SOL     OW31013   1.737   7.714   5.730
 7005SOL    HW131014   1.676   7.648   5.775
 7005SOL    HW231015   1.792   7.668   5.661
 7006SOL     OW31016   6.688   0.852   3.274
 7006SOL    HW131017   6.714   0.795   3.195
 7006SOL    HW231018   6.609   0.812   3.320
 7007SOL     OW31019   6.614   6.846   0.254
 7007SOL    HW131020   6.534   6.901   0.231
 7007SOL    HW231021   6.619   6.766   0.193
 7008SOL     OW31022   3.504   0.655   7.763
 7008SOL    HW131023   3.450   0.731   7.800
 7008SOL    HW231024   3.601   0.670   7.781
 7009SOL     OW31025   6.557   1.048   2.824
 7009SOL    HW131026   6.645   1.065   2.869
 7009SOL    HW231027   6.559   1.086   2.731
 7010SOL     OW31028   1.513   3.928   3.548
 7010SOL    HW131029   1.534   3.912   3.645
 7010SOL    HW231030   1.431   3.877   3.522
 7011SOL     OW31031   1.700   3.294   4.461
 7011SOL    HW131032   1.780   3.237   4.441
 7011SOL    HW231033   1.676   3.348   4.380
 7012SOL     OW31034   7.574   0.893   5.533
 7012SOL    HW131035   7.552   0.990   5.521
 7012SOL    HW231036   7.521   0.838   5.468
 7013SOL     OW31037   7.100   3.955   1.839
 7013SOL    HW131038   7.108   3.855   1.838
 7013SOL    HW231039   7.046   3.985   1.918
 7014SOL     OW31040   6.712   0.738   3.827
 7014SOL    HW131041   6.753   0.733   3.918
 7014SOL    HW231042   6.677   0.831   3.811
 7015SOL     OW31043   5.808   1.865   5.513
 7015SOL    HW131044   5.743   1.932   5.551
 7015SOL    HW231045   5.878   1.844   5.581
 7016SOL     OW31046   7.293   2.482   1.890
 7016SOL    HW131047   7.261   2.403   1.942
 7016SOL    HW231048   7.393   2.487   1.892
 7017SOL     OW31049   2.971   5.911   7.096
 7017SOL    HW131050   2.882   5.955   7.112
 7017SOL    HW231051   2.990   5.907   6.998
 7018SOL     OW31052   2.700   3.620   0.980
 7018SOL    HW131053   2.615   3.571   0.959
 7018SOL    HW231054   2.773   3.590   0.919
 7019SOL     OW31055   0.656   6.870   2.502
 7019SOL    HW131056   0.579   6.933   2.506
 7019SOL    HW231057   0.711   6.878   2.585
 7020SOL     OW31058   0.068   4.375   5.814
 7020SOL    HW131059  -0.001   4.310   5.845
 7020SOL    HW231060   0.068   4.381   5.714
 7021SOL     OW31061   1.860   4.054   3.461
 7021SOL    HW131062   1.917   4.016   3.533
 7021SOL    HW231063   1.908   4.128   3.413
 7022SOL     OW31064   1.528   3.676   7.284
 7022SOL    HW131065   1.498   3.681   7.380
 7022SOL    HW231066   1.607   3.616   7.277
 7023SOL     OW31067   0.585   2.281   4.318
 7023SOL    HW131068   0.681   2.289   4.346
 7023SOL    HW231069   0.575   2.310   4.222
 7024SOL     OW31070   0.035   0.378   7.288
 7024SOL    HW131071   0.073   0.441   7.357
 7024SOL    HW231072   0.073   0.287   7.301
 7025SOL     OW31073   5.845   7.818   5.930
 7025SOL    HW131074   5.904   7.830   5.850
 7025SOL    HW231075   5.755   7.785   5.902
 7026SOL     OW31076   6.904   6.970   3.667
 7026SOL    HW131077   7.000   6.943   3.667
 7026SOL    HW231078   6.845   6.889   3.670
 7027SOL     OW31079   0.464   7.039   6.080
 7027SOL    HW131080   0.502   7.132   6.080
 7027SOL    HW231081   0.374   7.040   6.122
 7028SOL     OW31082   6.463   6.084   4.731
 7028SOL    HW131083   6.472   6.174   4.686
 7028SOL    HW231084   6.523   6.080   4.811
 7029SOL     OW31085   1.101   4.141   0.391
 7029SOL    HW131086   1.188   4.109   0.430
 7029SOL    HW231087   1.119   4.195   0.309
 7030SOL     OW31088   3.178   2.953   6.207
 7030SOL    HW131089   3.135   2.903   6.132
 7030SOL    HW231090   3.270   2.918   6.222
 7031SOL     OW31091   1.491   7.635   1.832
 7031SOL    HW131092   1.587   7.609   1.845
 7031SOL    HW231093   1.462   7.611   1.740
 7032SOL     OW31094   3.178   4.925   1.576
 7032SOL    HW131095   3.145   4.919   1.482
 7032SOL    HW231096   3.277   4.941   1.576
 7033SOL     OW31097   5.251   3.570   5.037
 7033SOL    HW131098   5.244   3.586   5.136
 7033SOL    HW231099   5.195   3.637   4.988
 7034SOL     OW31100   7.624   1.811   4.365
 7034SOL    HW131101   7.596   1.725   4.323
 7034SOL    HW231102   7.588   1.817   4.458
 7035SOL     OW31103   3.231   6.433   1.038
 7035SOL    HW131104   3.202   6.385   0.955
 7035SOL    HW231105   3.298   6.378   1.087
 7036SOL     OW31106   1.626   1.632   6.993
 7036SOL    HW131107   1.549   1.670   6.941
 7036SOL    HW231108   1.710   1.639   6.940
 7037SOL     OW31109   4.160   7.045   3.716
 7037SOL    HW131110   4.086   7.113   3.721
 7037SOL    HW231111   4.182   7.026   3.620
 7038SOL     OW31112   1.220   1.961   2.335
 7038SOL    HW131113   1.282   1.884   2.318
 7038SOL    HW231114   1.219   1.981   2.433
 7039SOL     OW31115   2.800   3.307   0.880
 7039SOL    HW131116   2.770   3.383   0.821
 7039SOL    HW231117   2.816   3.341   0.972
 7040SOL     OW31118   4.543   3.874   0.628
 7040SOL    HW131119   4.625   3.903   0.578
 7040SOL    HW231120   4.566   3.855   0.723
 7041SOL     OW31121   6.565   5.464   5.220
 7041SOL    HW131122   6.629   5.420   5.283
 7041SOL    HW231123   6.471   5.453   5.253
 7042SOL     OW31124   1.796   2.008   4.290
 7042SOL    HW131125   1.767   2.102   4.309
 7042SOL    HW231126   1.828   2.001   4.196
 7043SOL     OW31127   1.545   2.569   5.355
 7043SOL    HW131128   1.546   2.668   5.340
 7043SOL    HW231129   1.564   2.549   5.451
 7044SOL     OW31130   1.234   3.885   7.611
 7044SOL    HW131131   1.203   3.820   7.680
 7044SOL    HW231132   1.193   3.975   7.629
 7045SOL     OW31133   5.519   4.313   6.158
 7045SOL    HW131134   5.428   4.302   6.118
 7045SOL    HW231135   5.512   4.352   6.250
 7046SOL     OW31136   1.319   2.462   4.902
 7046SOL    HW131137   1.397   2.497   4.953
 7046SOL    HW231138   1.350   2.418   4.817
 7047SOL     OW31139   5.014   3.438   6.563
 7047SOL    HW131140   4.999   3.499   6.641
 7047SOL    HW231141   4.931   3.385   6.545
 7048SOL     OW31142   7.550   0.240   5.310
 7048SOL    HW131143   7.629   0.215   5.254
 7048SOL    HW231144   7.536   0.172   5.382
 7049SOL     OW31145   7.078   5.633   5.354
 7049SOL    HW131146   7.071   5.662   5.450
 7049SOL    HW231147   6.988   5.637   5.311
 7050SOL     OW31148   3.773   0.761   0.587
 7050SOL    HW131149   3.701   0.815   0.630
 7050SOL    HW231150   3.752   0.744   0.491
 7051SOL     OW31151   3.077   3.167   6.997
 7051SOL    HW131152   3.097   3.100   7.068
 7051SOL    HW231153   3.155   3.177   6.936
 7052SOL     OW31154   1.459   5.358   3.163
 7052SOL    HW131155   1.533   5.413   3.203
 7052SOL    HW231156   1.453   5.374   3.065
 7053SOL     OW31157   4.135   2.372   0.489
 7053SOL    HW131158   4.092   2.375   0.579
 7053SOL    HW231159   4.082   2.315   0.427
 7054SOL     OW31160   1.975   5.116   3.605
 7054SOL    HW131161   1.929   5.076   3.526
 7054SOL    HW231162   1.983   5.049   3.678
 7055SOL     OW31163   1.241   1.694   1.599
 7055SOL    HW131164   1.252   1.707   1.698
 7055SOL    HW231165   1.200   1.776   1.558
 7056SOL     OW31166   3.418   4.346   4.363
 7056SOL    HW131167   3.372   4.299   4.288
 7056SOL    HW231168   3.384   4.440   4.370
 7057SOL     OW31169   7.525   1.415   6.540
 7057SOL    HW131170   7.550   1.322   6.513
 7057SOL    HW231171   7.604   1.475   6.534
 7058SOL     OW31172   5.144   6.767   3.764
 7058SOL    HW131173   5.133   6.853   3.813
 7058SOL    HW231174   5.110   6.777   3.670
 7059SOL     OW31175   6.562   4.606   3.976
 7059SOL    HW131176   6.613   4.536   3.927
 7059SOL    HW231177   6.591   4.609   4.071
 7060SOL     OW31178   3.920   6.279   3.433
 7060SOL    HW131179   4.010   6.237   3.428
 7060SOL    HW231180   3.853   6.225   3.383
 7061SOL     OW31181   3.092   0.643   1.188
 7061SOL    HW131182   3.068   0.727   1.139
 7061SOL    HW231183   3.186   0.649   1.222
 7062SOL     OW31184   4.524   1.634   4.949
 7062SOL    HW131185   4.505   1.563   5.017
 7062SOL    HW231186   4.622   1.643   4.935
 7063SOL     OW31187   4.025   5.880   2.327
 7063SOL    HW131188   4.037   5.785   2.353
 7063SOL    HW231189   4.087   5.938   2.380
 7064SOL     OW31190   2.060   2.805   7.815
 7064SOL    HW131191   1.999   2.883   7.803
 7064SOL    HW231192   2.055   2.744   7.735
 7065SOL     OW31193   2.545   7.840   5.185
 7065SOL    HW131194   2.632   7.800   5.215
 7065SOL    HW231195   2.563   7.913   5.119
 7066SOL     OW31196   4.021   5.368   4.559
 7066SOL    HW131197   4.112   5.338   4.586
 7066SOL    HW231198   4.019   5.392   4.462
 7067SOL     OW31199   0.734   1.352   4.689
 7067SOL    HW131200   0.655   1.371   4.746
 7067SOL    HW231201   0.705   1.330   4.596
 7068SOL     OW31202   5.689   0.819   6.471
 7068SOL    HW131203   5.631   0.738   6.484
 7068SOL    HW231204   5.687   0.876   6.553
 7069SOL     OW31205   3.504   4.066   3.425
 7069SOL    HW131206   3.557   4.088   3.343
 7069SOL    HW231207   3.434   4.136   3.440
 7070SOL     OW31208   2.678   0.430   6.872
 7070SOL    HW131209   2.674   0.334   6.902
 7070SOL    HW231210   2.667   0.435   6.773
 7071SOL     OW31211   0.572   1.526   4.350
 7071SOL    HW131212   0.488   1.472   4.336
 7071SOL    HW231213   0.630   1.520   4.269
 7072SOL     OW31214   6.355   0.326   0.612
 7072SOL    HW131215   6.301   0.410   0.623
 7072SOL    HW231216   6.301   0.247   0.640
 7073SOL     OW31217   7.710   3.001   1.588
 7073SOL    HW131218   7.716   2.927   1.521
 7073SOL    HW231219   7.710   2.964   1.681
 7074SOL     OW31220   7.500   2.959   3.254
 7074SOL    HW131221   7.455   2.880   3.296
 7074SOL    HW231222   7.478   3.043   3.304
 7075SOL     OW31223   1.009   4.029   3.395
 7075SOL    HW131224   0.987   4.035   3.492
 7075SOL    HW231225   0.927   4.004   3.342
 7076SOL     OW31226   5.644   2.676   3.717
 7076SOL    HW131227   5.580   2.600   3.726
 7076SOL    HW231228   5.630   2.742   3.791
 7077SOL     OW31229   3.533   6.465   4.583
 7077SOL    HW131230   3.474   6.409   4.641
 7077SOL    HW231231   3.619   6.417   4.564
 7078SOL     OW31232   3.026   5.875   2.943
 7078SOL    HW131233   2.994   5.812   2.872
 7078SOL    HW231234   2.979   5.856   3.029
 7079SOL     OW31235   1.408   5.487   4.901
 7079SOL    HW131236   1.396   5.389   4.882
 7079SOL    HW231237   1.391   5.506   4.997
 7080SOL     OW31238   0.500   6.948   1.595
 7080SOL    HW131239   0.430   7.012   1.564
 7080SOL    HW231240   0.530   6.973   1.687
 7081SOL     OW31241   5.131   7.575   0.846
 7081SOL    HW131242   5.070   7.502   0.815
 7081SOL    HW231243   5.109   7.600   0.940
 7082SOL     OW31244   0.834   1.271   6.432
 7082SOL    HW131245   0.829   1.295   6.530
 7082SOL    HW231246   0.780   1.336   6.378
 7083SOL     OW31247   4.629   0.896   5.676
 7083SOL    HW131248   4.607   0.945   5.761
 7083SOL    HW231249   4.548   0.894   5.616
 7084SOL     OW31250   0.969   1.935   3.655
 7084SOL    HW131251   1.061   1.951   3.620
 7084SOL    HW231252   0.970   1.863   3.725
 7085SOL     OW31253   6.077   2.740   5.031
 7085SOL    HW131254   6.073   2.718   4.934
 7085SOL    HW231255   5.985   2.762   5.065
 7086SOL     OW31256   3.886   6.664   1.384
 7086SOL    HW131257   3.875   6.715   1.299
 7086SOL    HW231258   3.919   6.571   1.365
 7087SOL     OW31259   2.816   1.480   2.875
 7087SOL    HW131260   2.770   1.391   2.868
 7087SOL    HW231261   2.915   1.468   2.869
 7088SOL     OW31262   4.898   2.104   5.950
 7088SOL    HW131263   4.834   2.070   6.019
 7088SOL    HW231264   4.879   2.060   5.862
 7089SOL     OW31265   0.285   7.898   2.483
 7089SOL    HW131266   0.210   7.834   2.467
 7089SOL    HW231267   0.320   7.887   2.576
 7090SOL     OW31268   6.874   6.657   4.566
 7090SOL    HW131269   6.948   6.599   4.532
 7090SOL    HW231270   6.844   6.625   4.656
 7091SOL     OW31271   3.611   7.674   6.498
 7091SOL    HW131272   3.550   7.741   6.542
 7091SOL    HW231273   3.624   7.595   6.558
 7092SOL     OW31274   2.029   4.704   6.062
 7092SOL    HW131275   1.971   4.761   6.120
 7092SOL    HW231276   2.013   4.725   5.966
 7093SOL     OW31277   2.590   5.510   7.168
 7093SOL    HW131278   2.571   5.547   7.076
 7093SOL    HW231279   2.684   5.476   7.171
 7094SOL     OW31280   2.818   6.966   2.489
 7094SOL    HW131281   2.879   6.895   2.523
 7094SOL    HW231282   2.818   6.967   2.389
 7095SOL     OW31283   2.839   4.812   5.201
 7095SOL    HW131284   2.772   4.778   5.135
 7095SOL    HW231285   2.795   4.826   5.290
 7096SOL     OW31286   7.359   3.158   5.692
 7096SOL    HW131287   7.295   3.081   5.698
 7096SOL    HW231288   7.345   3.208   5.607
 7097SOL     OW31289   6.037   7.280   0.515
 7097SOL    HW131290   6.120   7.276   0.459
 7097SOL    HW231291   5.957   7.295   0.457
 7098SOL     OW31292   2.966   0.382   0.552
 7098SOL    HW131293   2.956   0.294   0.599
 7098SOL    HW231294   3.030   0.373   0.476
 7099SOL     OW31295   6.620   2.991   4.409
 7099SOL    HW131296   6.529   3.002   4.370
 7099SOL    HW231297   6.618   3.009   4.507
 7100SOL     OW31298   3.675   6.122   7.922
 7100SOL    HW131299   3.770   6.096   7.937
 7100SOL    HW231300   3.619   6.095   8.000
 7101SOL     OW31301   3.417   5.188   4.599
 7101SOL    HW131302   3.406   5.279   4.641
 7101SOL    HW231303   3.383   5.190   4.505
 7102SOL     OW31304   2.067   0.967   2.922
 7102SOL    HW131305   2.049   0.876   2.960
 7102SOL    HW231306   2.108   0.958   2.831
 7103SOL     OW31307   1.397   0.635   0.823
 7103SOL    HW131308   1.398   0.734   0.810
 7103SOL    HW231309   1.330   0.611   0.893
 7104SOL     OW31310   5.746   6.331   5.821
 7104SOL    HW131311   5.794   6.338   5.908
 7104SOL    HW231312   5.699   6.243   5.814
 7105SOL     OW31313   7.006   4.354   4.686
 7105SOL    HW131314   6.938   4.281   4.694
 7105SOL    HW231315   6.976   4.435   4.736
 7106SOL     OW31316   0.981   0.606   7.056
 7106SOL    HW131317   0.941   0.696   7.073
 7106SOL    HW231318   1.040   0.609   6.976
 7107SOL     OW31319   3.839   3.820   7.102
 7107SOL    HW131320   3.904   3.875   7.049
 7107SOL    HW231321   3.746   3.832   7.066
 7108SOL     OW31322   4.247   7.883   4.831
 7108SOL    HW131323   4.157   7.920   4.855
 7108SOL    HW231324   4.319   7.946   4.859
 7109SOL     OW31325   6.919   5.455   0.285
 7109SOL    HW131326   6.940   5.523   0.356
 7109SOL    HW231327   7.005   5.418   0.249
 7110SOL     OW31328   2.539   7.126   4.414
 7110SOL    HW131329   2.595   7.061   4.465
 7110SOL    HW231330   2.593   7.167   4.340
 7111SOL     OW31331   6.583   3.439   2.326
 7111SOL    HW131332   6.635   3.514   2.286
 7111SOL    HW231333   6.566   3.457   2.423
 7112SOL     OW31334   0.512   1.972   0.748
 7112SOL    HW131335   0.608   1.987   0.726
 7112SOL    HW231336   0.497   1.974   0.846
 7113SOL     OW31337   5.343   5.133   3.452
 7113SOL    HW131338   5.414   5.202   3.438
 7113SOL    HW231339   5.379   5.057   3.506
 7114SOL     OW31340   5.075   0.731   3.935
 7114SOL    HW131341   5.074   0.650   3.993
 7114SOL    HW231342   5.011   0.720   3.859
 7115SOL     OW31343   5.699   6.178   5.387
 7115SOL    HW131344   5.640   6.127   5.449
 7115SOL    HW231345   5.786   6.130   5.375
 7116SOL     OW31346   3.202   1.269   4.866
 7116SOL    HW131347   3.221   1.175   4.896
 7116SOL    HW231348   3.194   1.272   4.767
 7117SOL     OW31349   6.280   4.143   3.129
 7117SOL    HW131350   6.210   4.210   3.154
 7117SOL    HW231351   6.265   4.111   3.035
 7118SOL     OW31352   1.735   7.074   5.817
 7118SOL    HW131353   1.781   7.038   5.736
 7118SOL    HW231354   1.762   7.169   5.833
 7119SOL     OW31355   7.067   1.860   0.261
 7119SOL    HW131356   6.982   1.897   0.224
 7119SOL    HW231357   7.114   1.931   0.314
 7120SOL     OW31358   4.791   7.059   0.423
 7120SOL    HW131359   4.817   7.014   0.508
 7120SOL    HW231360   4.701   7.101   0.432
 7121SOL     OW31361   7.798   6.169   6.417
 7121SOL    HW131362   7.889   6.157   6.378
 7121SOL    HW231363   7.783   6.102   6.490
 7122SOL     OW31364   5.475   1.809   0.029
 7122SOL    HW131365   5.486   1.809   0.129
 7122SOL    HW231366   5.428   1.726  -0.000
 7123SOL     OW31367   7.866   2.920   3.707
 7123SOL    HW131368   7.896   2.948   3.799
 7123SOL    HW231369   7.939   2.871   3.661
 7124SOL     OW31370   0.899   7.971   7.887
 7124SOL    HW131371   0.799   7.971   7.886
 7124SOL    HW231372   0.932   7.958   7.980
 7125SOL     OW31373   0.802   1.699   2.464
 7125SOL    HW131374   0.772   1.764   2.535
 7125SOL    HW231375   0.724   1.646   2.432
 7126SOL     OW31376   2.473   4.014   6.771
 7126SOL    HW131377   2.467   3.914   6.767
 7126SOL    HW231378   2.453   4.053   6.681
 7127SOL     OW31379   4.088   3.847   3.012
 7127SOL    HW131380   3.995   3.873   2.984
 7127SOL    HW231381   4.113   3.896   3.095
 7128SOL     OW31382   6.384   4.575   3.691
 7128SOL    HW131383   6.417   4.654   3.639
 7128SOL    HW231384   6.437   4.563   3.774
 7129SOL     OW31385   7.744   4.123   3.939
 7129SOL    HW131386   7.707   4.036   3.971
 7129SOL    HW231387   7.788   4.110   3.850
 7130SOL     OW31388   4.346   3.491   2.270
 7130SOL    HW131389   4.329   3.559   2.198
 7130SOL    HW231390   4.280   3.503   2.344
 7131SOL     OW31391   1.461   3.547   2.645
 7131SOL    HW131392   1.423   3.626   2.599
 7131SOL    HW231393   1.388   3.491   2.684
 7132SOL     OW31394   2.609   4.802   5.535
 7132SOL    HW131395   2.667   4.819   5.615
 7132SOL    HW231396   2.664   4.764   5.460
 7133SOL     OW31397   0.611   5.972   0.440
 7133SOL    HW131398   0.657   6.053   0.477
 7133SOL    HW231399   0.553   5.999   0.363
 7134SOL     OW31400   2.140   2.595   3.356
 7134SOL    HW131401   2.207   2.523   3.373
 7134SOL    HW231402   2.048   2.558   3.355
 7135SOL     OW31403   6.221   3.764   3.312
 7135SOL    HW131404   6.189   3.675   3.343
 7135SOL    HW231405   6.318   3.759   3.289
 7136SOL     OW31406   6.907   4.967   6.209
 7136SOL    HW131407   6.988   4.949   6.153
 7136SOL    HW231408   6.925   4.941   6.304
 7137SOL     OW31409   1.597   6.960   0.640
 7137SOL    HW131410   1.564   7.049   0.673
 7137SOL    HW231411   1.561   6.943   0.548
 7138SOL     OW31412   6.654   5.576   2.229
 7138SOL    HW131413   6.581   5.550   2.292
 7138SOL    HW231414   6.738   5.525   2.250
 7139SOL     OW31415   3.578   2.799   4.596
 7139SOL    HW131416   3.485   2.770   4.576
 7139SOL    HW231417   3.581   2.844   4.685
 7140SOL     OW31418   6.544   4.773   6.587
 7140SOL    HW131419   6.623   4.730   6.629
 7140SOL    HW231420   6.461   4.721   6.608
 7141SOL     OW31421   2.065   7.119   4.563
 7141SOL    HW131422   2.089   7.126   4.660
 7141SOL    HW231423   2.011   7.036   4.547
 7142SOL     OW31424   1.340   2.038   1.465
 7142SOL    HW131425   1.358   1.957   1.522
 7142SOL    HW231426   1.378   2.025   1.373
 7143SOL     OW31427   3.465   4.581   0.975
 7143SOL    HW131428   3.440   4.660   0.920
 7143SOL    HW231429   3.494   4.611   1.066
 7144SOL     OW31430   4.157   5.012   1.982
 7144SOL    HW131431   4.084   4.995   1.916
 7144SOL    HW231432   4.127   4.985   2.073
 7145SOL     OW31433   0.845   5.799   4.960
 7145SOL    HW131434   0.753   5.830   4.983
 7145SOL    HW231435   0.842   5.738   4.881
 7146SOL     OW31436   4.726   4.758   0.219
 7146SOL    HW131437   4.650   4.743   0.283
 7146SOL    HW231438   4.721   4.692   0.144
 7147SOL     OW31439   4.722   5.747   3.599
 7147SOL    HW131440   4.775   5.796   3.668
 7147SOL    HW231441   4.696   5.810   3.525
 7148SOL     OW31442   1.285   4.232   1.290
 7148SOL    HW131443   1.241   4.269   1.208
 7148SOL    HW231444   1.223   4.171   1.338
 7149SOL     OW31445   3.784   5.848   1.152
 7149SOL    HW131446   3.728   5.914   1.103
 7149SOL    HW231447   3.864   5.823   1.096
 7150SOL     OW31448   4.472   2.555   3.434
 7150SOL    HW131449   4.467   2.537   3.532
 7150SOL    HW231450   4.424   2.484   3.383
 7151SOL     OW31451   6.640   0.796   0.761
 7151SOL    HW131452   6.677   0.857   0.691
 7151SOL    HW231453   6.540   0.796   0.756
 7152SOL     OW31454   6.999   7.923   1.157
 7152SOL    HW131455   6.917   7.948   1.208
 7152SOL    HW231456   7.031   8.000   1.103
 7153SOL     OW31457   3.656   3.571   4.087
 7153SOL    HW131458   3.582   3.503   4.083
 7153SOL    HW231459   3.648   3.626   4.170
 7154SOL     OW31460   3.542   5.807   0.096
 7154SOL    HW131461   3.527   5.778   0.001
 7154SOL    HW231462   3.639   5.800   0.118
 7155SOL     OW31463   1.000   4.789   0.888
 7155SOL    HW131464   0.949   4.868   0.921
 7155SOL    HW231465   1.060   4.755   0.961
 7156SOL     OW31466   7.153   4.392   7.085
 7156SOL    HW131467   7.218   4.453   7.129
 7156SOL    HW231468   7.063   4.435   7.081
 7157SOL     OW31469   5.157   6.426   0.143
 7157SOL    HW131470   5.154   6.526   0.136
 7157SOL    HW231471   5.135   6.385   0.055
 7158SOL     OW31472   5.277   7.922   3.621
 7158SOL    HW131473   5.359   7.867   3.608
 7158SOL    HW231474   5.250   7.922   3.717
 7159SOL     OW31475   1.020   3.615   7.687
 7159SOL    HW131476   0.989   3.706   7.717
 7159SOL    HW231477   1.108   3.593   7.728
 7160SOL     OW31478   3.039   7.548   3.430
 7160SOL    HW131479   3.031   7.462   3.379
 7160SOL    HW231480   3.135   7.576   3.434
 7161SOL     OW31481   0.068   3.153   0.737
 7161SOL    HW131482  -0.000   3.204   0.791
 7161SOL    HW231483   0.022   3.086   0.679
 7162SOL     OW31484   1.266   0.697   0.241
 7162SOL    HW131485   1.222   0.752   0.312
 7162SOL    HW231486   1.230   0.724   0.151
 7163SOL     OW31487   4.877   6.314   6.868
 7163SOL    HW131488   4.959   6.258   6.876
 7163SOL    HW231489   4.811   6.289   6.939
 7164SOL     OW31490   6.121  -0.001   0.391
 7164SOL    HW131491   6.093   0.036   0.302
 7164SOL    HW231492   6.123   0.073   0.458
 7165SOL     OW31493   0.317   0.841   2.818
 7165SOL    HW131494   0.290   0.921   2.872
 7165SOL    HW231495   0.320   0.760   2.877
 7166SOL     OW31496   3.613   7.750   5.380
 7166SOL    HW131497   3.708   7.773   5.363
 7166SOL    HW231498   3.557   7.774   5.301
 7167SOL     OW31499   3.970   5.440   3.295
 7167SOL    HW131500   3.962   5.412   3.199
 7167SOL    HW231501   4.026   5.374   3.345
 7168SOL     OW31502   1.900   5.163   7.578
 7168SOL    HW131503   1.948   5.231   7.634
 7168SOL    HW231504   1.859   5.208   7.498
 7169SOL     OW31505   2.899   4.821   4.901
 7169SOL    HW131506   2.812   4.787   4.866
 7169SOL    HW231507   2.884   4.883   4.978
 7170SOL     OW31508   3.157   6.764   3.552
 7170SOL    HW131509   3.083   6.819   3.514
 7170SOL    HW231510   3.180   6.796   3.644
 7171SOL     OW31511   1.776   4.197   2.831
 7171SOL    HW131512   1.712   4.119   2.829
 7171SOL    HW231513   1.798   4.225   2.737
 7172SOL     OW31514  -0.001   1.477   6.405
 7172SOL    HW131515   0.063   1.472   6.328
 7172SOL    HW231516   0.015   1.560   6.458
 7173SOL     OW31517   5.362   6.265   5.773
 7173SOL    HW131518   5.372   6.365   5.770
 7173SOL    HW231519   5.320   6.238   5.859
 7174SOL     OW31520   7.247   7.910   2.717
 7174SOL    HW131521   7.331   7.935   2.765
 7174SOL    HW231522   7.234   7.970   2.638
 7175SOL     OW31523   3.500   0.789   4.033
 7175SOL    HW131524   3.423   0.725   4.031
 7175SOL    HW231525   3.550   0.785   3.946
 7176SOL     OW31526   2.864   2.838   1.598
 7176SOL    HW131527   2.882   2.846   1.500
 7176SOL    HW231528   2.773   2.799   1.613
 7177SOL     OW31529   4.827   1.765   0.870
 7177SOL    HW131530   4.739   1.790   0.829
 7177SOL    HW231531   4.892   1.740   0.798
 7178SOL     OW31532   0.386   6.611   6.848
 7178SOL    HW131533   0.329   6.676   6.796
 7178SOL    HW231534   0.417   6.537   6.789
 7179SOL     OW31535   2.573   6.268   5.645
 7179SOL    HW131536   2.485   6.221   5.646
 7179SOL    HW231537   2.632   6.230   5.574
 7180SOL     OW31538   0.639   0.960   2.579
 7180SOL    HW131539   0.573   1.016   2.629
 7180SOL    HW231540   0.681   1.015   2.506
 7181SOL     OW31541   0.281   4.611   7.540
 7181SOL    HW131542   0.378   4.623   7.561
 7181SOL    HW231543   0.263   4.646   7.448
 7182SOL     OW31544   0.735   2.647   4.477
 7182SOL    HW131545   0.686   2.583   4.536
 7182SOL    HW231546   0.756   2.731   4.528
 7183SOL     OW31547   4.452   0.979   4.415
 7183SOL    HW131548   4.537   0.934   4.387
 7183SOL    HW231549   4.426   0.948   4.506
 7184SOL     OW31550   5.063   2.539   2.365
 7184SOL    HW131551   5.058   2.464   2.298
 7184SOL    HW231552   5.003   2.614   2.338
 7185SOL     OW31553   4.680   2.944   4.657
 7185SOL    HW131554   4.677   2.950   4.558
 7185SOL    HW231555   4.589   2.958   4.696
 7186SOL     OW31556   4.047   0.767   3.564
 7186SOL    HW131557   4.081   0.686   3.613
 7186SOL    HW231558   4.070   0.759   3.467
 7187SOL     OW31559   7.288   1.285   6.384
 7187SOL    HW131560   7.378   1.299   6.342
 7187SOL    HW231561   7.249   1.373   6.412
 7188SOL     OW31562   7.917   6.793   5.155
 7188SOL    HW131563   7.918   6.693   5.146
 7188SOL    HW231564   7.876   6.819   5.242
 7189SOL     OW31565   2.961   0.773   4.351
 7189SOL    HW131566   2.913   0.820   4.277
 7189SOL    HW231567   3.038   0.721   4.314
 7190SOL     OW31568   7.922   5.007   2.674
 7190SOL    HW131569   7.834   5.006   2.626
 7190SOL    HW231570   7.965   5.096   2.665
 7191SOL     OW31571   7.535   6.253   2.381
 7191SOL    HW131572   7.579   6.238   2.470
 7191SOL    HW231573   7.438   6.273   2.395
 7192SOL     OW31574   2.044   7.574   0.788
 7192SOL    HW131575   2.128   7.574   0.733
 7192SOL    HW231576   2.063   7.537   0.879
 7193SOL     OW31577   2.063   2.149   2.477
 7193SOL    HW131578   2.083   2.059   2.437
 7193SOL    HW231579   2.079   2.147   2.576
 7194SOL     OW31580   2.619   0.323   2.285
 7194SOL    HW131581   2.664   0.306   2.373
 7194SOL    HW231582   2.532   0.274   2.281
 7195SOL     OW31583   3.030   7.141   2.344
 7195SOL    HW131584   2.931   7.152   2.351
 7195SOL    HW231585   3.074   7.175   2.428
 7196SOL     OW31586   1.385   7.503   6.985
 7196SOL    HW131587   1.433   7.589   6.968
 7196SOL    HW231588   1.413   7.435   6.918
 7197SOL     OW31589   5.747   6.500   5.441
 7197SOL    HW131590   5.735   6.486   5.540
 7197SOL    HW231591   5.760   6.598   5.423
 7198SOL     OW31592   5.017   2.348   6.816
 7198SOL    HW131593   5.057   2.428   6.862
 7198SOL    HW231594   5.004   2.274   6.881
 7199SOL     OW31595   0.361   2.882   1.394
 7199SOL    HW131596   0.318   2.797   1.423
 7199SOL    HW231597   0.408   2.869   1.307
 7200SOL     OW31598   7.896   2.859   0.491
 7200SOL    HW131599   7.989   2.867   0.528
 7200SOL    HW231600   7.892   2.896   0.399
 7201SOL     OW31601   5.564   3.241   6.716
 7201SOL    HW131602   5.639   3.306   6.723
 7201SOL    HW231603   5.477   3.289   6.706
 7202SOL     OW31604   7.584   0.943   4.931
 7202SOL    HW131605   7.661   0.967   4.989
 7202SOL    HW231606   7.590   0.992   4.844
 7203SOL     OW31607   3.336   4.568   2.699
 7203SOL    HW131608   3.270   4.625   2.651
 7203SOL    HW231609   3.315   4.565   2.796
 7204SOL     OW31610   6.289   0.016   3.219
 7204SOL    HW131611   6.232   0.084   3.172
 7204SOL    HW231612   6.386   0.034   3.201
 7205SOL     OW31613   1.928   5.721   0.926
 7205SOL    HW131614   1.961   5.647   0.984
 7205SOL    HW231615   1.896   5.798   0.982
 7206SOL     OW31616   5.823   0.575   1.083
 7206SOL    HW131617   5.891   0.525   1.030
 7206SOL    HW231618   5.822   0.542   1.178
 7207SOL     OW31619   7.208   3.887   7.252
 7207SOL    HW131620   7.164   3.856   7.168
 7207SOL    HW231621   7.289   3.943   7.229
 7208SOL     OW31622   7.588   5.860   2.168
 7208SOL    HW131623   7.524   5.887   2.240
 7208SOL    HW231624   7.573   5.765   2.142
 7209SOL     OW31625   3.028   7.154   0.096
 7209SOL    HW131626   3.062   7.071   0.141
 7209SOL    HW231627   3.047   7.150  -0.002
 7210SOL     OW31628   3.053   2.091   4.667
 7210SOL    HW131629   3.131   2.119   4.611
 7210SOL    HW231630   3.086   2.047   4.751
 7211SOL     OW31631   5.557   5.091   3.089
 7211SOL    HW131632   5.487   5.159   3.066
 7211SOL    HW231633   5.627   5.133   3.147
 7212SOL     OW31634   2.025   0.715   0.685
 7212SOL    HW131635   2.124   0.732   0.678
 7212SOL    HW231636   2.005   0.668   0.770
 7213SOL     OW31637   4.066   0.465   1.538
 7213SOL    HW131638   4.108   0.429   1.622
 7213SOL    HW231639   3.984   0.413   1.516
 7214SOL     OW31640   6.084   1.170   7.869
 7214SOL    HW131641   6.006   1.118   7.905
 7214SOL    HW231642   6.127   1.119   7.794
 7215SOL     OW31643   4.286   2.849   6.504
 7215SOL    HW131644   4.233   2.798   6.571
 7215SOL    HW231645   4.225   2.899   6.443
 7216SOL     OW31646   5.749   3.129   7.691
 7216SOL    HW131647   5.831   3.142   7.635
 7216SOL    HW231648   5.713   3.037   7.679
 7217SOL     OW31649   1.365   1.776   2.591
 7217SOL    HW131650   1.280   1.800   2.544
 7217SOL    HW231651   1.408   1.858   2.627
 7218SOL     OW31652   5.424   4.496   6.671
 7218SOL    HW131653   5.330   4.460   6.671
 7218SOL    HW231654   5.457   4.504   6.765
 7219SOL     OW31655   1.650   3.869   2.898
 7219SOL    HW131656   1.565   3.910   2.932
 7219SOL    HW231657   1.661   3.888   2.800
 7220SOL     OW31658   4.907   6.309   0.200
 7220SOL    HW131659   4.955   6.358   0.273
 7220SOL    HW231660   4.924   6.353   0.112
 7221SOL     OW31661   6.546   3.586   6.053
 7221SOL    HW131662   6.493   3.588   5.968
 7221SOL    HW231663   6.616   3.657   6.052
 7222SOL     OW31664   2.368   3.925   2.427
 7222SOL    HW131665   2.447   3.888   2.477
 7222SOL    HW231666   2.396   3.948   2.333
 7223SOL     OW31667   6.754   4.356   0.969
 7223SOL    HW131668   6.713   4.301   1.043
 7223SOL    HW231669   6.818   4.300   0.916
 7224SOL     OW31670   6.747   2.811   2.024
 7224SOL    HW131671   6.700   2.894   2.055
 7224SOL    HW231672   6.832   2.799   2.077
 7225SOL     OW31673   3.150   7.387   5.671
 7225SOL    HW131674   3.105   7.476   5.683
 7225SOL    HW231675   3.231   7.398   5.615
 7226SOL     OW31676   4.491   2.221   3.559
 7226SOL    HW131677   4.508   2.144   3.498
 7226SOL    HW231678   4.551   2.298   3.534
 7227SOL     OW31679   2.977   4.632   3.469
 7227SOL    HW131680   3.063   4.599   3.510
 7227SOL    HW231681   2.994   4.717   3.418
 7228SOL     OW31682   3.645   5.971   4.853
 7228SOL    HW131683   3.556   6.011   4.875
 7228SOL    HW231684   3.677   5.916   4.930
 7229SOL     OW31685   4.259   0.466   6.255
 7229SOL    HW131686   4.216   0.449   6.167
 7229SOL    HW231687   4.261   0.564   6.274
 7230SOL     OW31688   6.999   0.753   4.086
 7230SOL    HW131689   7.064   0.700   4.140
 7230SOL    HW231690   6.988   0.711   3.996
 7231SOL     OW31691   0.981   0.402   6.873
 7231SOL    HW131692   0.934   0.481   6.832
 7231SOL    HW231693   0.925   0.320   6.862
 7232SOL     OW31694   1.869   5.164   5.008
 7232SOL    HW131695   1.907   5.092   5.066
 7232SOL    HW231696   1.918   5.166   4.921
 7233SOL     OW31697   3.164   7.425   2.945
 7233SOL    HW131698   3.250   7.397   2.904
 7233SOL    HW231699   3.159   7.393   3.040
 7234SOL     OW31700   5.344   5.107   6.077
 7234SOL    HW131701   5.275   5.066   6.137
 7234SOL    HW231702   5.311   5.195   6.044
 7235SOL     OW31703   6.138   0.335   6.261
 7235SOL    HW131704   6.155   0.427   6.226
 7235SOL    HW231705   6.055   0.298   6.219
 7236SOL     OW31706   7.962   1.978   6.859
 7236SOL    HW131707   7.994   2.056   6.913
 7236SOL    HW231708   7.914   1.912   6.917
 7237SOL     OW31709   3.831   4.188   1.470
 7237SOL    HW131710   3.876   4.140   1.547
 7237SOL    HW231711   3.898   4.207   1.399
 7238SOL     OW31712   0.282   7.206   5.866
 7238SOL    HW131713   0.309   7.300   5.845
 7238SOL    HW231714   0.333   7.142   5.809
 7239SOL     OW31715   4.448   5.725   4.071
 7239SOL    HW131716   4.352   5.728   4.099
 7239SOL    HW231717   4.458   5.667   3.990
 7240SOL     OW31718   0.108   6.375   6.462
 7240SOL    HW131719   0.015   6.354   6.490
 7240SOL    HW231720   0.159   6.290   6.446
 7241SOL     OW31721   0.508   5.424   0.948
 7241SOL    HW131722   0.488   5.433   0.851
 7241SOL    HW231723   0.584   5.359   0.961
 7242SOL     OW31724   5.967   2.036   4.038
 7242SOL    HW131725   6.012   1.947   4.048
 7242SOL    HW231726   5.884   2.027   3.984
 7243SOL     OW31727   3.403   4.950   3.748
 7243SOL    HW131728   3.402   5.038   3.795
 7243SOL    HW231729   3.496   4.914   3.746
 7244SOL     OW31730   6.462   3.844   3.953
 7244SOL    HW131731   6.392   3.775   3.933
 7244SOL    HW231732   6.448   3.880   4.046
 7245SOL     OW31733   7.459   5.013   7.260
 7245SOL    HW131734   7.463   5.043   7.165
 7245SOL    HW231735   7.435   5.090   7.319
 7246SOL     OW31736   6.314   3.114   1.254
 7246SOL    HW131737   6.390   3.065   1.212
 7246SOL    HW231738   6.302   3.203   1.210
 7247SOL     OW31739   5.485   4.531   7.547
 7247SOL    HW131740   5.446   4.608   7.597
 7247SOL    HW231741   5.448   4.529   7.454
 7248SOL     OW31742   6.292   5.383   3.302
 7248SOL    HW131743   6.303   5.287   3.272
 7248SOL    HW231744   6.247   5.385   3.391
 7249SOL     OW31745   7.902   0.332   0.767
 7249SOL    HW131746   7.814   0.375   0.747
 7249SOL    HW231747   7.913   0.321   0.866
 7250SOL     OW31748   4.421   7.226   4.386
 7250SOL    HW131749   4.427   7.165   4.307
 7250SOL    HW231750   4.508   7.227   4.435
 7251SOL     OW31751   3.881   1.298   3.157
 7251SOL    HW131752   3.804   1.294   3.093
 7251SOL    HW231753   3.862   1.244   3.238
 7252SOL     OW31754   1.581   6.724   7.611
 7252SOL    HW131755   1.536   6.642   7.649
 7252SOL    HW231756   1.618   6.704   7.521
 7253SOL     OW31757   3.372   2.395   5.970
 7253SOL    HW131758   3.352   2.414   5.873
 7253SOL    HW231759   3.460   2.348   5.978
 7254SOL     OW31760   7.817   5.311   2.062
 7254SOL    HW131761   7.907   5.341   2.095
 7254SOL    HW231762   7.772   5.257   2.133
 7255SOL     OW31763   5.898   6.693   5.739
 7255SOL    HW131764   5.903   6.787   5.773
 7255SOL    HW231765   5.861   6.692   5.646
 7256SOL     OW31766   4.911   5.996   0.559
 7256SOL    HW131767   4.951   6.085   0.582
 7256SOL    HW231768   4.843   5.970   0.627
 7257SOL     OW31769   3.046   2.201   5.390
 7257SOL    HW131770   3.080   2.292   5.413
 7257SOL    HW231771   3.022   2.152   5.474
 7258SOL     OW31772   4.512   4.534   4.672
 7258SOL    HW131773   4.541   4.441   4.649
 7258SOL    HW231774   4.476   4.537   4.765
 7259SOL     OW31775   2.337   2.585   1.720
 7259SOL    HW131776   2.397   2.559   1.795
 7259SOL    HW231777   2.266   2.647   1.753
 7260SOL     OW31778   3.793   3.495   0.694
 7260SOL    HW131779   3.757   3.470   0.604
 7260SOL    HW231780   3.772   3.591   0.714
 7261SOL     OW31781   4.397   6.338   3.291
 7261SOL    HW131782   4.483   6.304   3.331
 7261SOL    HW231783   4.416   6.389   3.207
 7262SOL     OW31784   4.358   2.623   2.358
 7262SOL    HW131785   4.305   2.624   2.273
 7262SOL    HW231786   4.420   2.701   2.361
 7263SOL     OW31787   5.131   4.599   6.099
 7263SOL    HW131788   5.125   4.695   6.127
 7263SOL    HW231789   5.227   4.571   6.094
 7264SOL     OW31790   1.896   7.176   4.824
 7264SOL    HW131791   1.870   7.147   4.732
 7264SOL    HW231792   1.956   7.108   4.865
 7265SOL     OW31793   3.990   1.205   2.603
 7265SOL    HW131794   3.985   1.257   2.518
 7265SOL    HW231795   3.979   1.107   2.584
 7266SOL     OW31796   2.601   7.669   0.551
 7266SOL    HW131797   2.521   7.650   0.608
 7266SOL    HW231798   2.598   7.610   0.469
 7267SOL     OW31799   4.566   3.803   2.894
 7267SOL    HW131800   4.590   3.876   2.958
 7267SOL    HW231801   4.645   3.778   2.839
 7268SOL     OW31802   3.090   6.886   6.247
 7268SOL    HW131803   3.083   6.789   6.271
 7268SOL    HW231804   3.135   6.897   6.158
 7269SOL     OW31805   6.005   4.350   0.068
 7269SOL    HW131806   6.011   4.396   0.156
 7269SOL    HW231807   6.096   4.333   0.031
 7270SOL     OW31808   7.906   2.534   3.508
 7270SOL    HW131809   7.964   2.594   3.563
 7270SOL    HW231810   7.858   2.469   3.568
 7271SOL     OW31811   0.842   7.834   6.800
 7271SOL    HW131812   0.893   7.889   6.867
 7271SOL    HW231813   0.841   7.881   6.712
 7272SOL     OW31814   3.344   5.287   7.629
 7272SOL    HW131815   3.415   5.348   7.595
 7272SOL    HW231816   3.365   5.259   7.722
 7273SOL     OW31817   1.529   0.143   7.378
 7273SOL    HW131818   1.547   0.216   7.312
 7273SOL    HW231819   1.614   0.094   7.398
 7274SOL     OW31820   6.944   2.994   6.514
 7274SOL    HW131821   6.961   3.080   6.465
 7274SOL    HW231822   6.856   3.000   6.562
 7275SOL     OW31823   1.521   5.233   5.465
 7275SOL    HW131824   1.429   5.265   5.444
 7275SOL    HW231825   1.542   5.250   5.561
 7276SOL     OW31826   5.596   7.051   0.905
 7276SOL    HW131827   5.572   7.144   0.876
 7276SOL    HW231828   5.597   7.045   1.004
 7277SOL     OW31829   5.973   4.311   0.438
 7277SOL    HW131830   6.028   4.237   0.399
 7277SOL    HW231831   5.939   4.370   0.365
 7278SOL     OW31832   7.964   7.414   4.330
 7278SOL    HW131833   7.958   7.510   4.358
 7278SOL    HW231834   7.999   7.359   4.405
 7279SOL     OW31835   5.001   6.993   2.267
 7279SOL    HW131836   5.015   6.902   2.230
 7279SOL    HW231837   4.987   7.059   2.193
 7280SOL     OW31838   7.210   1.997   7.825
 7280SOL    HW131839   7.167   2.042   7.904
 7280SOL    HW231840   7.236   1.903   7.849
 7281SOL     OW31841   0.108   3.384   0.058
 7281SOL    HW131842   0.019   3.413   0.022
 7281SOL    HW231843   0.181   3.420  -0.000
 7282SOL     OW31844   2.926   0.165   0.094
 7282SOL    HW131845   2.981   0.117   0.025
 7282SOL    HW231846   2.981   0.236   0.139
 7283SOL     OW31847   1.712   5.489   1.850
 7283SOL    HW131848   1.774   5.421   1.889
 7283SOL    HW231849   1.659   5.533   1.923
 7284SOL     OW31850   7.618   0.493   1.559
 7284SOL    HW131851   7.576   0.576   1.523
 7284SOL    HW231852   7.653   0.510   1.652
 7285SOL     OW31853   6.064   7.156   3.119
 7285SOL    HW131854   5.986   7.129   3.064
 7285SOL    HW231855   6.070   7.101   3.202
 7286SOL     OW31856   2.454   0.220   4.607
 7286SOL    HW131857   2.382   0.290   4.614
 7286SOL    HW231858   2.421   0.143   4.552
 7287SOL     OW31859   6.668   5.746   7.763
 7287SOL    HW131860   6.745   5.806   7.747
 7287SOL    HW231861   6.693   5.652   7.740
 7288SOL     OW31862   2.777   5.679   6.701
 7288SOL    HW131863   2.697   5.735   6.684
 7288SOL    HW231864   2.762   5.621   6.782
 7289SOL     OW31865   3.777   5.482   7.094
 7289SOL    HW131866   3.681   5.465   7.118
 7289SOL    HW231867   3.836   5.433   7.157
 7290SOL     OW31868   2.297   4.292   3.209
 7290SOL    HW131869   2.292   4.296   3.309
 7290SOL    HW231870   2.329   4.202   3.181
 7291SOL     OW31871   5.546   3.072   2.920
 7291SOL    HW131872   5.641   3.082   2.951
 7291SOL    HW231873   5.536   3.108   2.827
 7292SOL     OW31874   5.903   4.901   5.266
 7292SOL    HW131875   5.807   4.913   5.293
 7292SOL    HW231876   5.911   4.830   5.197
 7293SOL     OW31877   2.621   2.042   7.535
 7293SOL    HW131878   2.690   1.977   7.567
 7293SOL    HW231879   2.647   2.077   7.445
 7294SOL     OW31880   5.482   1.176   6.110
 7294SOL    HW131881   5.573   1.166   6.070
 7294SOL    HW231882   5.485   1.158   6.208
 7295SOL     OW31883   2.115   0.072   0.738
 7295SOL    HW131884   2.180  -0.000   0.714
 7295SOL    HW231885   2.060   0.043   0.816
 7296SOL     OW31886   6.213   0.324   7.484
 7296SOL    HW131887   6.154   0.373   7.549
 7296SOL    HW231888   6.158   0.262   7.429
 7297SOL     OW31889   2.554   2.091   7.177
 7297SOL    HW131890   2.616   2.145   7.234
 7297SOL    HW231891   2.469   2.141   7.161
 7298SOL     OW31892   2.169   5.823   0.957
 7298SOL    HW131893   2.207   5.744   0.910
 7298SOL    HW231894   2.117   5.794   1.037
 7299SOL     OW31895   3.995   6.376   1.739
 7299SOL    HW131896   4.083   6.413   1.708
 7299SOL    HW231897   4.006   6.327   1.825
 7300SOL     OW31898   0.290   6.301   1.979
 7300SOL    HW131899   0.370   6.286   2.037
 7300SOL    HW231900   0.282   6.398   1.957
 7301SOL     OW31901   1.876   0.693   3.751
 7301SOL    HW131902   1.860   0.603   3.790
 7301SOL    HW231903   1.857   0.764   3.820
 7302SOL     OW31904   1.667   4.720   1.946
 7302SOL    HW131905   1.715   4.741   2.032
 7302SOL    HW231906   1.729   4.736   1.868
 7303SOL     OW31907   0.999   3.006   4.130
 7303SOL    HW131908   1.090   3.010   4.088
 7303SOL    HW231909   0.992   2.927   4.190
 7304SOL     OW31910   3.792   3.303   1.588
 7304SOL    HW131911   3.790   3.211   1.549
 7304SOL    HW231912   3.760   3.300   1.683
 7305SOL     OW31913   4.784   6.871   5.825
 7305SOL    HW131914   4.785   6.850   5.923
 7305SOL    HW231915   4.780   6.969   5.811
 7306SOL     OW31916   3.631   0.669   2.905
 7306SOL    HW131917   3.538   0.654   2.939
 7306SOL    HW231918   3.646   0.614   2.823
 7307SOL     OW31919   1.620   1.876   5.144
 7307SOL    HW131920   1.714   1.911   5.139
 7307SOL    HW231921   1.612   1.810   5.218
 7308SOL     OW31922   2.793   6.285   1.098
 7308SOL    HW131923   2.784   6.375   1.141
 7308SOL    HW231924   2.706   6.257   1.058
 7309SOL     OW31925   7.490   5.393   3.540
 7309SOL    HW131926   7.510   5.488   3.514
 7309SOL    HW231927   7.515   5.378   3.635
 7310SOL     OW31928   3.687   6.627   6.544
 7310SOL    HW131929   3.774   6.580   6.559
 7310SOL    HW231930   3.674   6.645   6.446
 7311SOL     OW31931   3.451   4.222   0.199
 7311SOL    HW131932   3.447   4.318   0.229
 7311SOL    HW231933   3.424   4.216   0.103
 7312SOL     OW31934   0.818   0.742   1.666
 7312SOL    HW131935   0.802   0.778   1.758
 7312SOL    HW231936   0.774   0.653   1.656
 7313SOL     OW31937   1.691   3.647   2.706
 7313SOL    HW131938   1.790   3.635   2.711
 7313SOL    HW231939   1.665   3.674   2.613
 7314SOL     OW31940   2.323   6.101   5.734
 7314SOL    HW131941   2.403   6.071   5.787
 7314SOL    HW231942   2.240   6.090   5.790
 7315SOL     OW31943   3.345   5.905   3.490
 7315SOL    HW131944   3.422   5.925   3.428
 7315SOL    HW231945   3.355   5.957   3.574
 7316SOL     OW31946   1.700   6.187   6.689
 7316SOL    HW131947   1.707   6.087   6.686
 7316SOL    HW231948   1.612   6.214   6.729
 7317SOL     OW31949   1.620   7.360   4.547
 7317SOL    HW131950   1.521   7.354   4.541
 7317SOL    HW231951   1.660   7.269   4.555
 7318SOL     OW31952   5.115   3.366   0.982
 7318SOL    HW131953   5.028   3.368   1.032
 7318SOL    HW231954   5.115   3.433   0.909
 7319SOL     OW31955   7.450   7.527   5.916
 7319SOL    HW131956   7.547   7.548   5.906
 7319SOL    HW231957   7.396   7.610   5.913
 7320SOL     OW31958   1.706   6.841   0.392
 7320SOL    HW131959   1.747   6.773   0.331
 7320SOL    HW231960   1.744   6.832   0.484
 7321SOL     OW31961   2.830   1.552   6.522
 7321SOL    HW131962   2.806   1.553   6.424
 7321SOL    HW231963   2.749   1.571   6.577
 7322SOL     OW31964   3.022   6.979   5.324
 7322SOL    HW131965   2.972   7.054   5.279
 7322SOL    HW231966   3.043   7.004   5.418
 7323SOL     OW31967   1.041   1.742   0.600
 7323SOL    HW131968   1.011   1.648   0.584
 7323SOL    HW231969   1.140   1.748   0.584
 7324SOL     OW31970   0.883   4.499   5.271
 7324SOL    HW131971   0.952   4.497   5.343
 7324SOL    HW231972   0.879   4.410   5.225
 7325SOL     OW31973   2.492   1.821   7.660
 7325SOL    HW131974   2.496   1.864   7.570
 7325SOL    HW231975   2.398   1.823   7.694
 7326SOL     OW31976   4.701   7.071   7.967
 7326SOL    HW131977   4.612   7.101   8.001
 7326SOL    HW231978   4.694   7.046   7.870
 7327SOL     OW31979   5.115   3.060   1.654
 7327SOL    HW131980   5.076   2.980   1.609
 7327SOL    HW231981   5.047   3.105   1.710
 7328SOL     OW31982   6.239   7.284   6.149
 7328SOL    HW131983   6.140   7.273   6.136
 7328SOL    HW231984   6.287   7.262   6.065
 7329SOL     OW31985   0.480   6.852   7.908
 7329SOL    HW131986   0.548   6.911   7.864
 7329SOL    HW231987   0.511   6.827   8.000
 7330SOL     OW31988   3.101   7.327   2.585
 7330SOL    HW131989   3.040   7.361   2.656
 7330SOL    HW231990   3.092   7.382   2.502
 7331SOL     OW31991   5.246   1.628   5.120
 7331SOL    HW131992   5.181   1.556   5.094
 7331SOL    HW231993   5.225   1.661   5.212
 7332SOL     OW31994   4.717   6.137   0.561
 7332SOL    HW131995   4.643   6.194   0.524
 7332SOL    HW231996   4.741   6.168   0.653
 7333SOL     OW31997   4.096   5.226   3.591
 7333SOL    HW131998   4.038   5.150   3.561
 7333SOL    HW231999   4.063   5.262   3.678
 7334SOL     OW32000   1.786   1.002   3.927
 7334SOL    HW132001   1.747   1.043   3.844
 7334SOL    HW232002   1.747   0.911   3.941
 7335SOL     OW32003   0.316   6.594   3.461
 7335SOL    HW132004   0.235   6.562   3.511
 7335SOL    HW232005   0.312   6.562   3.366
 7336SOL     OW32006   0.493   6.609   5.105
 7336SOL    HW132007   0.481   6.708   5.107
 7336SOL    HW232008   0.489   6.572   5.198
 7337SOL     OW32009   6.595   1.556   0.352
 7337SOL    HW132010   6.676   1.615   0.362
 7337SOL    HW232011   6.622   1.460   0.359
 7338SOL     OW32012   6.858   0.970   6.541
 7338SOL    HW132013   6.926   1.003   6.606
 7338SOL    HW232014   6.895   0.893   6.489
 7339SOL     OW32015   1.604   6.536   3.671
 7339SOL    HW132016   1.596   6.437   3.682
 7339SOL    HW232017   1.697   6.560   3.642
 7340SOL     OW32018   6.514   7.942   1.635
 7340SOL    HW132019   6.567   8.000   1.698
 7340SOL    HW232020   6.560   7.937   1.547
 7341SOL     OW32021   7.841   7.427   7.378
 7341SOL    HW132022   7.759   7.370   7.386
 7341SOL    HW232023   7.873   7.454   7.469
 7342SOL     OW32024   0.889   4.242   3.443
 7342SOL    HW132025   0.798   4.219   3.476
 7342SOL    HW232026   0.914   4.335   3.472
 7343SOL     OW32027   4.548   6.323   0.373
 7343SOL    HW132028   4.602   6.393   0.420
 7343SOL    HW232029   4.535   6.348   0.277
 7344SOL     OW32030   7.068   4.672   3.261
 7344SOL    HW132031   7.142   4.609   3.286
 7344SOL    HW232032   7.094   4.723   3.178
 7345SOL     OW32033   5.199   5.235   5.113
 7345SOL    HW132034   5.292   5.204   5.129
 7345SOL    HW232035   5.135   5.183   5.170
 7346SOL     OW32036   7.611   3.775   6.006
 7346SOL    HW132037   7.563   3.710   5.947
 7346SOL    HW232038   7.709   3.771   5.987
 7347SOL     OW32039   4.401   7.386   6.126
 7347SOL    HW132040   4.463   7.440   6.069
 7347SOL    HW232041   4.389   7.295   6.086
 7348SOL     OW32042   7.880   7.331   6.179
 7348SOL    HW132043   7.933   7.406   6.140
 7348SOL    HW232044   7.786   7.334   6.148
 7349SOL     OW32045   3.697   6.307   3.834
 7349SOL    HW132046   3.784   6.260   3.849
 7349SOL    HW232047   3.714   6.392   3.783
 7350SOL     OW32048   4.245   0.156   1.699
 7350SOL    HW132049   4.322   0.148   1.636
 7350SOL    HW232050   4.211   0.250   1.699
 7351SOL     OW32051   7.086   2.534   1.964
 7351SOL    HW132052   7.059   2.482   2.045
 7351SOL    HW232053   7.005   2.574   1.920
 7352SOL     OW32054   4.557   2.112   0.934
 7352SOL    HW132055   4.615   2.193   0.937
 7352SOL    HW232056   4.526   2.088   1.026
 7353SOL     OW32057   2.741   1.891   0.704
 7353SOL    HW132058   2.841   1.883   0.709
 7353SOL    HW232059   2.699   1.843   0.781
 7354SOL     OW32060   4.155   7.262   1.523
 7354SOL    HW132061   4.212   7.339   1.493
 7354SOL    HW232062   4.204   7.206   1.589
 7355SOL     OW32063   4.716   0.968   4.891
 7355SOL    HW132064   4.804   0.929   4.919
 7355SOL    HW232065   4.728   1.063   4.863
 7356SOL     OW32066   6.960   3.284   0.876
 7356SOL    HW132067   6.993   3.299   0.970
 7356SOL    HW232068   7.005   3.204   0.837
 7357SOL     OW32069   3.030   4.876   4.642
 7357SOL    HW132070   3.064   4.969   4.655
 7357SOL    HW232071   3.035   4.826   4.728
 7358SOL     OW32072   4.662   0.153   4.856
 7358SOL    HW132073   4.665   0.073   4.796
 7358SOL    HW232074   4.670   0.237   4.801
 7359SOL     OW32075   5.503   7.859   6.567
 7359SOL    HW132076   5.571   7.787   6.552
 7359SOL    HW232077   5.445   7.835   6.645
 7360SOL     OW32078   1.806   2.617   6.572
 7360SOL    HW132079   1.801   2.583   6.666
 7360SOL    HW232080   1.880   2.570   6.523
 7361SOL     OW32081   7.532   7.150   1.836
 7361SOL    HW132082   7.443   7.167   1.878
 7361SOL    HW232083   7.560   7.231   1.784
 7362SOL     OW32084   5.235   6.227   2.810
 7362SOL    HW132085   5.238   6.317   2.853
 7362SOL    HW232086   5.177   6.229   2.729
 7363SOL     OW32087   0.051   4.329   2.722
 7363SOL    HW132088   0.083   4.250   2.775
 7363SOL    HW232089   0.052   4.307   2.625
 7364SOL     OW32090   2.228   6.841   1.787
 7364SOL    HW132091   2.159   6.895   1.836
 7364SOL    HW232092   2.214   6.849   1.688
 7365SOL     OW32093   6.875   6.345   0.408
 7365SOL    HW132094   6.857   6.252   0.376
 7365SOL    HW232095   6.813   6.367   0.483
 7366SOL     OW32096   7.959   0.640   2.326
 7366SOL    HW132097   8.000   0.591   2.249
 7366SOL    HW232098   8.000   0.730   2.334
 7367SOL     OW32099   4.583   7.680   7.635
 7367SOL    HW132100   4.578   7.766   7.585
 7367SOL    HW232101   4.548   7.692   7.728
 7368SOL     OW32102   2.847   3.877   4.610
 7368SOL    HW132103   2.786   3.893   4.688
 7368SOL    HW232104   2.918   3.947   4.608
 7369SOL     OW32105   5.275   6.147   2.512
 7369SOL    HW132106   5.350   6.195   2.559
 7369SOL    HW232107   5.226   6.209   2.453
 7370SOL     OW32108   2.619   6.453   5.944
 7370SOL    HW132109   2.695   6.428   6.004
 7370SOL    HW232110   2.650   6.517   5.874
 7371SOL     OW32111   0.098   0.875   6.628
 7371SOL    HW132112   0.003   0.906   6.631
 7371SOL    HW232113   0.143   0.895   6.715
 7372SOL     OW32114   3.686   5.214   6.821
 7372SOL    HW132115   3.683   5.296   6.763
 7372SOL    HW232116   3.771   5.164   6.805
 7373SOL     OW32117   3.650   0.115   6.825
 7373SOL    HW132118   3.641   0.126   6.924
 7373SOL    HW232119   3.643   0.019   6.801
 7374SOL     OW32120   6.884   7.372   2.963
 7374SOL    HW132121   6.902   7.358   2.865
 7374SOL    HW232122   6.805   7.319   2.991
 7375SOL     OW32123   3.684   7.455   1.230
 7375SOL    HW132124   3.616   7.413   1.170
 7375SOL    HW232125   3.704   7.548   1.200
 7376SOL     OW32126   1.004   3.694   4.590
 7376SOL    HW132127   1.088   3.746   4.608
 7376SOL    HW232128   0.941   3.704   4.667
 7377SOL     OW32129   4.764   1.176   3.602
 7377SOL    HW132130   4.765   1.206   3.506
 7377SOL    HW232131   4.687   1.216   3.650
 7378SOL     OW32132   3.255   0.490   3.355
 7378SOL    HW132133   3.329   0.542   3.399
 7378SOL    HW232134   3.277   0.473   3.260
 7379SOL     OW32135   7.472   3.486   6.012
 7379SOL    HW132136   7.403   3.462   5.944
 7379SOL    HW232137   7.437   3.469   6.104
 7380SOL     OW32138   6.238   0.726   2.033
 7380SOL    HW132139   6.203   0.709   2.125
 7380SOL    HW232140   6.228   0.823   2.010
 7381SOL     OW32141   2.787   4.556   2.223
 7381SOL    HW132142   2.754   4.467   2.193
 7381SOL    HW232143   2.769   4.569   2.320
 7382SOL     OW32144   6.732   1.661   6.594
 7382SOL    HW132145   6.824   1.681   6.627
 7382SOL    HW232146   6.716   1.707   6.507
 7383SOL     OW32147   1.919   6.949   1.816
 7383SOL    HW132148   1.918   6.965   1.915
 7383SOL    HW232149   1.976   7.019   1.771
 7384SOL     OW32150   5.716   5.614   0.869
 7384SOL    HW132151   5.810   5.615   0.904
 7384SOL    HW232152   5.706   5.681   0.796
 7385SOL     OW32153   6.219   1.392   7.934
 7385SOL    HW132154   6.146   1.347   7.985
 7385SOL    HW232155   6.275   1.324   7.887
 7386SOL     OW32156   2.339   6.036   4.581
 7386SOL    HW132157   2.279   6.079   4.648
 7386SOL    HW232158   2.421   6.092   4.567
 7387SOL     OW32159   7.644   1.228   2.451
 7387SOL    HW132160   7.553   1.220   2.491
 7387SOL    HW232161   7.711   1.248   2.523
 7388SOL     OW32162   2.116   3.180   4.335
 7388SOL    HW132163   2.024   3.140   4.340
 7388SOL    HW232164   2.163   3.168   4.422
 7389SOL     OW32165   3.776   2.168   3.655
 7389SOL    HW132166   3.738   2.207   3.571
 7389SOL    HW232167   3.809   2.076   3.638
 7390SOL     OW32168   3.918   1.889   7.778
 7390SOL    HW132169   3.961   1.801   7.758
 7390SOL    HW232170   3.954   1.927   7.863
 7391SOL     OW32171   1.467   3.366   5.800
 7391SOL    HW132172   1.441   3.284   5.749
 7391SOL    HW232173   1.416   3.371   5.885
 7392SOL     OW32174   1.273   0.792   7.470
 7392SOL    HW132175   1.277   0.865   7.539
 7392SOL    HW232176   1.344   0.805   7.402
 7393SOL     OW32177   1.390   5.710   3.564
 7393SOL    HW132178   1.393   5.622   3.611
 7393SOL    HW232179   1.436   5.703   3.475
 7394SOL     OW32180   3.887   6.165   4.243
 7394SOL    HW132181   3.986   6.170   4.249
 7394SOL    HW232182   3.847   6.152   4.333
 7395SOL     OW32183   6.606   7.660   3.849
 7395SOL    HW132184   6.530   7.613   3.893
 7395SOL    HW232185   6.596   7.655   3.750
 7396SOL     OW32186   0.336   1.138   7.388
 7396SOL    HW132187   0.265   1.070   7.369
 7396SOL    HW232188   0.316   1.185   7.473
 7397SOL     OW32189   2.151   6.010   6.105
 7397SOL    HW132190   2.239   5.967   6.128
 7397SOL    HW232191   2.080   5.939   6.099
 7398SOL     OW32192   1.567   6.683   6.151
 7398SOL    HW132193   1.475   6.699   6.186
 7398SOL    HW232194   1.562   6.643   6.059
 7399SOL     OW32195   6.890   4.723   5.956
 7399SOL    HW132196   6.891   4.624   5.942
 7399SOL    HW232197   6.839   4.768   5.883
 7400SOL     OW32198   1.305   7.769   2.531
 7400SOL    HW132199   1.243   7.744   2.457
 7400SOL    HW232200   1.283   7.715   2.613
 7401SOL     OW32201   1.034   0.840   3.825
 7401SOL    HW132202   1.121   0.889   3.820
 7401SOL    HW232203   1.016   0.794   3.738
 7402SOL     OW32204   6.935   0.988   6.275
 7402SOL    HW132205   6.846   1.033   6.286
 7402SOL    HW232206   6.936   0.937   6.189
 7403SOL     OW32207   3.787   6.653   4.650
 7403SOL    HW132208   3.882   6.626   4.630
 7403SOL    HW232209   3.767   6.741   4.608
 7404SOL     OW32210   7.606   0.956   1.084
 7404SOL    HW132211   7.618   0.861   1.053
 7404SOL    HW232212   7.605   0.959   1.184
 7405SOL     OW32213   1.130   5.487   0.448
 7405SOL    HW132214   1.066   5.419   0.484
 7405SOL    HW232215   1.213   5.488   0.503
 7406SOL     OW32216   1.277   4.546   3.898
 7406SOL    HW132217   1.338   4.472   3.928
 7406SOL    HW232218   1.203   4.557   3.963
 7407SOL     OW32219   0.460   1.357   7.054
 7407SOL    HW132220   0.419   1.280   7.105
 7407SOL    HW232221   0.388   1.411   7.011
 7408SOL     OW32222   2.815   2.995   1.771
 7408SOL    HW132223   2.834   3.047   1.687
 7408SOL    HW232224   2.722   2.960   1.769
 7409SOL     OW32225   4.156   0.816   4.870
 7409SOL    HW132226   4.237   0.762   4.893
 7409SOL    HW232227   4.170   0.863   4.783
 7410SOL     OW32228   0.477   5.013   1.730
 7410SOL    HW132229   0.563   5.044   1.769
 7410SOL    HW232230   0.402   5.072   1.761
 7411SOL     OW32231   2.357   0.527   6.852
 7411SOL    HW132232   2.399   0.438   6.874
 7411SOL    HW232233   2.402   0.566   6.772
 7412SOL     OW32234   3.715   0.949   6.944
 7412SOL    HW132235   3.803   0.904   6.956
 7412SOL    HW232236   3.699   0.968   6.847
 7413SOL     OW32237   4.431   4.408   0.333
 7413SOL    HW132238   4.458   4.356   0.413
 7413SOL    HW232239   4.451   4.356   0.250
 7414SOL     OW32240   3.146   5.222   3.464
 7414SOL    HW132241   3.237   5.181   3.458
 7414SOL    HW232242   3.106   5.203   3.554
 7415SOL     OW32243   1.506   7.269   6.650
 7415SOL    HW132244   1.502   7.355   6.702
 7415SOL    HW232245   1.434   7.267   6.581
 7416SOL     OW32246   6.203   6.022   4.668
 7416SOL    HW132247   6.146   5.941   4.679
 7416SOL    HW232248   6.185   6.064   4.579
 7417SOL     OW32249   6.419   6.605   6.937
 7417SOL    HW132250   6.331   6.604   6.890
 7417SOL    HW232251   6.409   6.641   7.029
 7418SOL     OW32252   6.595   0.143   7.960
 7418SOL    HW132253   6.685   0.166   8.000
 7418SOL    HW232254   6.562   0.058   8.000
 7419SOL     OW32255   7.413   1.088   3.132
 7419SOL    HW132256   7.440   1.184   3.148
 7419SOL    HW232257   7.369   1.079   3.043
 7420SOL     OW32258   6.262   4.714   3.973
 7420SOL    HW132259   6.258   4.756   4.064
 7420SOL    HW232260   6.295   4.780   3.906
 7421SOL     OW32261   2.326   5.603   0.787
 7421SOL    HW132262   2.381   5.687   0.785
 7421SOL    HW232263   2.365   5.535   0.724
 7422SOL     OW32264   6.721   0.452   0.321
 7422SOL    HW132265   6.721   0.485   0.227
 7422SOL    HW232266   6.807   0.478   0.366
 7423SOL     OW32267   6.908   4.502   5.189
 7423SOL    HW132268   6.912   4.412   5.233
 7423SOL    HW232269   6.821   4.513   5.141
 7424SOL     OW32270   4.542   5.848   6.302
 7424SOL    HW132271   4.507   5.773   6.359
 7424SOL    HW232272   4.507   5.838   6.209
 7425SOL     OW32273   3.990   6.081   6.859
 7425SOL    HW132274   4.058   6.026   6.811
 7425SOL    HW232275   4.008   6.178   6.845
 7426SOL     OW32276   5.566   4.571   5.867
 7426SOL    HW132277   5.471   4.581   5.837
 7426SOL    HW232278   5.619   4.522   5.798
 7427SOL     OW32279   5.995   7.476   1.648
 7427SOL    HW132280   6.075   7.470   1.708
 7427SOL    HW232281   5.975   7.571   1.627
 7428SOL     OW32282   5.916   6.161   6.260
 7428SOL    HW132283   5.988   6.093   6.248
 7428SOL    HW232284   5.955   6.253   6.259
 7429SOL     OW32285   1.399   1.502   6.853
 7429SOL    HW132286   1.332   1.435   6.823
 7429SOL    HW232287   1.354   1.575   6.904
 7430SOL     OW32288   2.340   7.799   0.199
 7430SOL    HW132289   2.322   7.864   0.273
 7430SOL    HW232290   2.284   7.822   0.119
 7431SOL     OW32291   0.034   6.748   7.640
 7431SOL    HW132292   0.001   6.835   7.677
 7431SOL    HW232293   0.001   6.735   7.547
 7432SOL     OW32294   1.749   0.649   3.521
 7432SOL    HW132295   1.838   0.609   3.544
 7432SOL    HW232296   1.706   0.597   3.448
 7433SOL     OW32297   3.183   6.600   0.818
 7433SOL    HW132298   3.163   6.692   0.785
 7433SOL    HW232299   3.239   6.605   0.901
 7434SOL     OW32300   2.601   7.481   6.960
 7434SOL    HW132301   2.659   7.554   6.996
 7434SOL    HW232302   2.569   7.505   6.869
 7435SOL     OW32303   3.318   4.663   7.284
 7435SOL    HW132304   3.309   4.711   7.196
 7435SOL    HW232305   3.414   4.650   7.306
 7436SOL     OW32306   3.980   0.061   7.306
 7436SOL    HW132307   3.917   0.000   7.353
 7436SOL    HW232308   4.009   0.021   7.219
 7437SOL     OW32309   3.032   7.166   0.643
 7437SOL    HW132310   3.009   7.239   0.707
 7437SOL    HW232311   3.127   7.175   0.613
 7438SOL     OW32312   4.813   1.489   1.523
 7438SOL    HW132313   4.826   1.392   1.544
 7438SOL    HW232314   4.860   1.512   1.438
 7439SOL     OW32315   2.585   2.491   6.024
 7439SOL    HW132316   2.675   2.513   6.061
 7439SOL    HW232317   2.530   2.444   6.094
 7440SOL     OW32318   2.621   2.628   2.748
 7440SOL    HW132319   2.573   2.544   2.721
 7440SOL    HW232320   2.718   2.620   2.729
 7441SOL     OW32321   0.684   4.995   5.786
 7441SOL    HW132322   0.685   5.027   5.691
 7441SOL    HW232323   0.608   4.932   5.800
 7442SOL     OW32324   5.960   3.867   7.752
 7442SOL    HW132325   5.989   3.839   7.661
 7442SOL    HW232326   6.037   3.862   7.816
 7443SOL     OW32327   4.332   2.043   4.687
 7443SOL    HW132328   4.278   1.988   4.751
 7443SOL    HW232329   4.399   2.097   4.737
 7444SOL     OW32330   0.269   5.612   3.146
 7444SOL    HW132331   0.176   5.615   3.111
 7444SOL    HW232332   0.270   5.629   3.245
 7445SOL     OW32333   3.976   1.829   6.667
 7445SOL    HW132334   3.925   1.896   6.612
 7445SOL    HW232335   4.020   1.762   6.608
 7446SOL     OW32336   3.802   0.902   5.808
 7446SOL    HW132337   3.888   0.935   5.847
 7446SOL    HW232338   3.804   0.909   5.709
 7447SOL     OW32339   3.296   3.193   1.997
 7447SOL    HW132340   3.313   3.265   2.064
 7447SOL    HW232341   3.271   3.233   1.909
 7448SOL     OW32342   1.631   2.962   7.096
 7448SOL    HW132343   1.534   2.946   7.077
 7448SOL    HW232344   1.640   3.020   7.177
 7449SOL     OW32345   7.770   6.633   1.786
 7449SOL    HW132346   7.795   6.543   1.749
 7449SOL    HW232347   7.732   6.623   1.878
 7450SOL     OW32348   1.333   6.321   4.870
 7450SOL    HW132349   1.257   6.266   4.835
 7450SOL    HW232350   1.310   6.358   4.960
 7451SOL     OW32351   7.056   3.327   1.859
 7451SOL    HW132352   6.974   3.352   1.807
 7451SOL    HW232353   7.044   3.353   1.955
 7452SOL     OW32354   6.839   4.547   1.278
 7452SOL    HW132355   6.760   4.572   1.334
 7452SOL    HW232356   6.810   4.515   1.189
 7453SOL     OW32357   6.254   2.484   6.228
 7453SOL    HW132358   6.165   2.527   6.234
 7453SOL    HW232359   6.255   2.417   6.154
 7454SOL     OW32360   7.427   3.791   2.874
 7454SOL    HW132361   7.522   3.760   2.867
 7454SOL    HW232362   7.392   3.775   2.966
 7455SOL     OW32363   0.336   5.622   1.284
 7455SOL    HW132364   0.247   5.662   1.307
 7455SOL    HW232365   0.334   5.587   1.190
 7456SOL     OW32366   7.933   0.065   4.284
 7456SOL    HW132367   7.890   0.113   4.208
 7456SOL    HW232368   8.000  -0.000   4.250
 7457SOL     OW32369   3.806   4.738   6.248
 7457SOL    HW132370   3.774   4.746   6.154
 7457SOL    HW232371   3.769   4.654   6.289
 7458SOL     OW32372   0.709   0.388   3.090
 7458SOL    HW132373   0.701   0.296   3.052
 7458SOL    HW232374   0.620   0.418   3.125
 7459SOL     OW32375   3.063   4.850   3.100
 7459SOL    HW132376   3.017   4.896   3.176
 7459SOL    HW232377   3.058   4.906   3.018
 7460SOL     OW32378   2.073   7.280   2.833
 7460SOL    HW132379   2.004   7.261   2.904
 7460SOL    HW232380   2.100   7.194   2.788
 7461SOL     OW32381   3.507   5.220   3.721
 7461SOL    HW132382   3.445   5.280   3.671
 7461SOL    HW232383   3.530   5.262   3.809
 7462SOL     OW32384   1.615   3.645   7.951
 7462SOL    HW132385   1.712   3.663   7.972
 7462SOL    HW232386   1.600   3.547   7.944
 7463SOL     OW32387   4.163   4.033   7.595
 7463SOL    HW132388   4.183   3.963   7.665
 7463SOL    HW232389   4.247   4.078   7.567
 7464SOL     OW32390   7.300   2.345   5.743
 7464SOL    HW132391   7.207   2.337   5.708
 7464SOL    HW232392   7.300   2.382   5.835
 7465SOL     OW32393   3.010   5.954   0.976
 7465SOL    HW132394   3.038   5.882   0.912
 7465SOL    HW232395   2.944   6.015   0.932
 7466SOL     OW32396   3.747   1.414   0.430
 7466SOL    HW132397   3.772   1.510   0.442
 7466SOL    HW232398   3.700   1.401   0.342
 7467SOL     OW32399   5.934   2.168   5.113
 7467SOL    HW132400   6.029   2.141   5.096
 7467SOL    HW232401   5.912   2.159   5.210
 7468SOL     OW32402   1.431   7.129   4.440
 7468SOL    HW132403   1.519   7.172   4.417
 7468SOL    HW232404   1.446   7.039   4.480
 7469SOL     OW32405   6.639   2.077   2.348
 7469SOL    HW132406   6.589   2.153   2.306
 7469SOL    HW232407   6.732   2.105   2.370
 7470SOL     OW32408   3.968   1.764   6.384
 7470SOL    HW132409   3.951   1.686   6.324
 7470SOL    HW232410   3.881   1.799   6.420
 7471SOL     OW32411   2.039   5.850   3.016
 7471SOL    HW132412   2.075   5.943   3.024
 7471SOL    HW232413   1.940   5.850   3.028
 7472SOL     OW32414   2.249   3.862   3.330
 7472SOL    HW132415   2.202   3.924   3.267
 7472SOL    HW232416   2.219   3.879   3.424
 7473SOL     OW32417   2.899   3.329   5.509
 7473SOL    HW132418   2.882   3.306   5.413
 7473SOL    HW232419   2.990   3.368   5.519
 7474SOL     OW32420   2.927   2.593   7.192
 7474SOL    HW132421   2.890   2.503   7.171
 7474SOL    HW232422   3.024   2.587   7.215
 7475SOL     OW32423   1.308   4.944   3.496
 7475SOL    HW132424   1.376   4.902   3.557
 7475SOL    HW232425   1.296   4.889   3.414
 7476SOL     OW32426   1.222   6.439   1.645
 7476SOL    HW132427   1.218   6.407   1.739
 7476SOL    HW232428   1.310   6.416   1.604
 7477SOL     OW32429   1.245   5.303   7.751
 7477SOL    HW132430   1.331   5.284   7.702
 7477SOL    HW232431   1.233   5.238   7.826
 7478SOL     OW32432   6.890   4.499   4.038
 7478SOL    HW132433   6.819   4.435   4.009
 7478SOL    HW232434   6.851   4.590   4.051
 7479SOL     OW32435   3.116   5.660   2.240
 7479SOL    HW132436   3.187   5.658   2.169
 7479SOL    HW232437   3.077   5.752   2.246
 7480SOL     OW32438   7.668   4.504   5.037
 7480SOL    HW132439   7.740   4.434   5.025
 7480SOL    HW232440   7.703   4.579   5.093
 7481SOL     OW32441   5.045   7.721   5.162
 7481SOL    HW132442   5.129   7.768   5.135
 7481SOL    HW232443   4.967   7.758   5.111
 7482SOL     OW32444   5.070   3.003   1.307
 7482SOL    HW132445   5.000   3.056   1.356
 7482SOL    HW232446   5.110   3.059   1.234
 7483SOL     OW32447   4.996   2.221   5.230
 7483SOL    HW132448   4.967   2.151   5.164
 7483SOL    HW232449   4.989   2.185   5.323
 7484SOL     OW32450   2.380   0.936   6.812
 7484SOL    HW132451   2.304   0.985   6.856
 7484SOL    HW232452   2.466   0.984   6.831
 7485SOL     OW32453   6.416   2.446   4.175
 7485SOL    HW132454   6.479   2.404   4.110
 7485SOL    HW232455   6.425   2.404   4.265
 7486SOL     OW32456   7.092   3.998   6.378
 7486SOL    HW132457   7.151   3.923   6.405
 7486SOL    HW232458   7.147   4.078   6.355
 7487SOL     OW32459   4.709   0.410   0.729
 7487SOL    HW132460   4.790   0.457   0.762
 7487SOL    HW232461   4.654   0.379   0.806
 7488SOL     OW32462   4.745   2.618   1.722
 7488SOL    HW132463   4.785   2.687   1.782
 7488SOL    HW232464   4.712   2.661   1.638
 7489SOL     OW32465   2.082   6.490   6.669
 7489SOL    HW132466   2.041   6.450   6.751
 7489SOL    HW232467   2.149   6.559   6.695
 7490SOL     OW32468   7.041   6.128   0.672
 7490SOL    HW132469   7.025   6.219   0.632
 7490SOL    HW232470   7.041   6.135   0.772
 7491SOL     OW32471   7.315   6.314   3.735
 7491SOL    HW132472   7.244   6.248   3.760
 7491SOL    HW232473   7.302   6.344   3.641
 7492SOL     OW32474   6.402   1.624   2.043
 7492SOL    HW132475   6.376   1.553   1.978
 7492SOL    HW232476   6.383   1.714   2.005
 7493SOL     OW32477   2.582   6.928   5.458
 7493SOL    HW132478   2.628   6.843   5.434
 7493SOL    HW232479   2.499   6.908   5.510
 7494SOL     OW32480   6.444   3.236   5.832
 7494SOL    HW132481   6.516   3.176   5.869
 7494SOL    HW232482   6.469   3.266   5.740
 7495SOL     OW32483   6.348   7.181   3.383
 7495SOL    HW132484   6.372   7.138   3.296
 7495SOL    HW232485   6.269   7.134   3.424
 7496SOL     OW32486   1.204   1.735   6.122
 7496SOL    HW132487   1.267   1.785   6.180
 7496SOL    HW232488   1.225   1.752   6.025
 7497SOL     OW32489   7.320   6.702   7.950
 7497SOL    HW132490   7.393   6.656   8.000
 7497SOL    HW232491   7.347   6.796   7.929
 7498SOL     OW32492   0.328   1.815   5.498
 7498SOL    HW132493   0.322   1.910   5.530
 7498SOL    HW232494   0.355   1.756   5.574
 7499SOL     OW32495   7.068   6.812   6.504
 7499SOL    HW132496   7.167   6.822   6.514
 7499SOL    HW232497   7.047   6.741   6.437
 7500SOL     OW32498   4.140   4.856   7.394
 7500SOL    HW132499   4.129   4.780   7.458
 7500SOL    HW232500   4.145   4.820   7.300
 7501SOL     OW32501   7.307   1.444   0.173
 7501SOL    HW132502   7.250   1.524   0.157
 7501SOL    HW232503   7.255   1.360   0.158
 7502SOL     OW32504   7.746   7.403   3.553
 7502SOL    HW132505   7.845   7.416   3.545
 7502SOL    HW232506   7.722   7.308   3.534
 7503SOL     OW32507   5.570   4.161   5.884
 7503SOL    HW132508   5.498   4.231   5.876
 7503SOL    HW232509   5.643   4.180   5.819
 7504SOL     OW32510   7.066   0.819   5.504
 7504SOL    HW132511   7.045   0.888   5.573
 7504SOL    HW232512   7.052   0.856   5.412
 7505SOL     OW32513   4.280   6.360   0.441
 7505SOL    HW132514   4.281   6.299   0.361
 7505SOL    HW232515   4.249   6.310   0.522
 7506SOL     OW32516   5.022   7.414   6.061
 7506SOL    HW132517   4.925   7.396   6.081
 7506SOL    HW232518   5.056   7.487   6.119
 7507SOL     OW32519   0.682   5.942   1.250
 7507SOL    HW132520   0.700   5.968   1.345
 7507SOL    HW232521   0.618   5.865   1.247
 7508SOL     OW32522   4.327   1.989   0.840
 7508SOL    HW132523   4.254   1.922   0.826
 7508SOL    HW232524   4.386   1.960   0.915
 7509SOL     OW32525   4.479   6.136   1.559
 7509SOL    HW132526   4.564   6.178   1.526
 7509SOL    HW232527   4.493   6.098   1.651
 7510SOL     OW32528   1.327   0.859   6.081
 7510SOL    HW132529   1.370   0.832   5.995
 7510SOL    HW232530   1.365   0.806   6.157
 7511SOL     OW32531   7.560   7.206   3.347
 7511SOL    HW132532   7.505   7.137   3.298
 7511SOL    HW232533   7.541   7.201   3.445
 7512SOL     OW32534   1.049   7.011   2.386
 7512SOL    HW132535   1.033   7.109   2.399
 7512SOL    HW232536   0.964   6.964   2.364
 7513SOL     OW32537   1.291   0.993   2.599
 7513SOL    HW132538   1.256   0.900   2.594
 7513SOL    HW232539   1.230   1.050   2.654
 7514SOL     OW32540   1.088   3.644   4.327
 7514SOL    HW132541   1.004   3.692   4.352
 7514SOL    HW232542   1.150   3.641   4.406
 7515SOL     OW32543   7.951   0.869   5.118
 7515SOL    HW132544   7.865   0.911   5.089
 7515SOL    HW232545   7.980   0.907   5.206
 7516SOL     OW32546   0.081   3.006   1.824
 7516SOL    HW132547   0.148   2.974   1.756
 7516SOL    HW232548   0.099   2.964   1.912
 7517SOL     OW32549   0.754   3.086   5.797
 7517SOL    HW132550   0.683   3.148   5.831
 7517SOL    HW232551   0.726   3.047   5.709
 7518SOL     OW32552   6.218   2.423   4.810
 7518SOL    HW132553   6.188   2.397   4.902
 7518SOL    HW232554   6.161   2.497   4.774
 7519SOL     OW32555   1.928   3.777   2.220
 7519SOL    HW132556   1.930   3.874   2.243
 7519SOL    HW232557   1.959   3.764   2.125
 7520SOL     OW32558   0.716   4.183   7.905
 7520SOL    HW132559   0.705   4.083   7.902
 7520SOL    HW232560   0.717   4.214   8.000
 7521SOL     OW32561   1.217   7.716   3.515
 7521SOL    HW132562   1.209   7.804   3.468
 7521SOL    HW232563   1.306   7.709   3.559
 7522SOL     OW32564   2.654   6.669   3.448
 7522SOL    HW132565   2.674   6.732   3.373
 7522SOL    HW232566   2.621   6.582   3.411
 7523SOL     OW32567   4.786   5.928   1.338
 7523SOL    HW132568   4.818   5.968   1.424
 7523SOL    HW232569   4.818   5.834   1.331
 7524SOL     OW32570   4.641   3.794   1.132
 7524SOL    HW132571   4.676   3.884   1.110
 7524SOL    HW232572   4.707   3.743   1.188
 7525SOL     OW32573   3.239   2.360   4.884
 7525SOL    HW132574   3.157   2.366   4.941
 7525SOL    HW232575   3.231   2.422   4.807
 7526SOL     OW32576   6.932   3.076   3.977
 7526SOL    HW132577   6.925   2.977   3.987
 7526SOL    HW232578   6.874   3.121   4.045
 7527SOL     OW32579   7.436   5.647   3.705
 7527SOL    HW132580   7.491   5.570   3.739
 7527SOL    HW232581   7.430   5.718   3.775
 7528SOL     OW32582   7.171   5.926   2.699
 7528SOL    HW132583   7.127   5.874   2.773
 7528SOL    HW232584   7.137   5.895   2.610
 7529SOL     OW32585   2.721   7.210   0.120
 7529SOL    HW132586   2.757   7.117   0.111
 7529SOL    HW232587   2.741   7.245   0.212
 7530SOL     OW32588   5.362   2.441   2.326
 7530SOL    HW132589   5.294   2.440   2.252
 7530SOL    HW232590   5.424   2.363   2.317
 7531SOL     OW32591   1.365   5.494   3.917
 7531SOL    HW132592   1.418   5.461   3.839
 7531SOL    HW232593   1.376   5.432   3.995
 7532SOL     OW32594   3.929   4.689   3.064
 7532SOL    HW132595   3.966   4.665   3.154
 7532SOL    HW232596   3.832   4.663   3.059
 7533SOL     OW32597   5.998   5.924   4.494
 7533SOL    HW132598   5.967   5.991   4.562
 7533SOL    HW232599   5.919   5.877   4.454
 7534SOL     OW32600   0.760   5.647   2.373
 7534SOL    HW132601   0.849   5.602   2.362
 7534SOL    HW232602   0.727   5.635   2.466
 7535SOL     OW32603  -0.000   7.207   0.464
 7535SOL    HW132604   0.063   7.190   0.388
 7535SOL    HW232605   0.037   7.280   0.522
 7536SOL     OW32606   4.443   7.494   0.756
 7536SOL    HW132607   4.384   7.552   0.813
 7536SOL    HW232608   4.526   7.470   0.806
 7537SOL     OW32609   7.329   7.710   2.664
 7537SOL    HW132610   7.407   7.735   2.606
 7537SOL    HW232611   7.294   7.620   2.638
 7538SOL     OW32612   1.915   0.434   5.756
 7538SOL    HW132613   1.849   0.501   5.793
 7538SOL    HW232614   1.887   0.407   5.664
 7539SOL     OW32615   7.815   4.768   3.236
 7539SOL    HW132616   7.913   4.782   3.226
 7539SOL    HW232617   7.769   4.855   3.248
 7540SOL     OW32618   7.221   2.639   0.750
 7540SOL    HW132619   7.296   2.660   0.812
 7540SOL    HW232620   7.173   2.724   0.724
 7541SOL     OW32621   5.153   6.363   5.298
 7541SOL    HW132622   5.193   6.280   5.337
 7541SOL    HW232623   5.188   6.378   5.206
 7542SOL     OW32624   6.853   2.707   6.574
 7542SOL    HW132625   6.840   2.629   6.512
 7542SOL    HW232626   6.804   2.787   6.538
 7543SOL     OW32627   7.684   7.914   1.053
 7543SOL    HW132628   7.617   7.985   1.079
 7543SOL    HW232629   7.659   7.875   0.965
 7544SOL     OW32630   0.970   7.609   6.501
 7544SOL    HW132631   0.958   7.695   6.451
 7544SOL    HW232632   1.032   7.623   6.578
 7545SOL     OW32633   7.492   7.568   6.191
 7545SOL    HW132634   7.411   7.593   6.137
 7545SOL    HW232635   7.474   7.585   6.288
 7546SOL     OW32636   6.167   4.790   4.747
 7546SOL    HW132637   6.240   4.722   4.747
 7546SOL    HW232638   6.199   4.874   4.704
 7547SOL     OW32639   3.412   4.549  -0.000
 7547SOL    HW132640   3.356   4.632   0.012
 7547SOL    HW232641   3.362   4.469   0.034
 7548SOL     OW32642   2.726   4.847   2.523
 7548SOL    HW132643   2.669   4.801   2.592
 7548SOL    HW232644   2.782   4.781   2.474
 7549SOL     OW32645   2.387   4.114   6.262
 7549SOL    HW132646   2.331   4.053   6.205
 7549SOL    HW232647   2.329   4.177   6.313
 7550SOL     OW32648   6.073   0.126   1.531
 7550SOL    HW132649   6.068   0.113   1.432
 7550SOL    HW232650   6.166   0.152   1.557
 7551SOL     OW32651   7.732   6.905   0.597
 7551SOL    HW132652   7.786   6.970   0.650
 7551SOL    HW232653   7.710   6.943   0.507
 7552SOL     OW32654   4.352   0.692   7.291
 7552SOL    HW132655   4.404   0.727   7.370
 7552SOL    HW232656   4.374   0.595   7.276
 7553SOL     OW32657   5.247   7.610   1.582
 7553SOL    HW132658   5.257   7.665   1.499
 7553SOL    HW232659   5.151   7.600   1.606
 7554SOL     OW32660   3.526   5.380   1.193
 7554SOL    HW132661   3.516   5.323   1.275
 7554SOL    HW232662   3.610   5.433   1.199
 7555SOL     OW32663   1.401   5.651   1.434
 7555SOL    HW132664   1.315   5.618   1.393
 7555SOL    HW232665   1.395   5.748   1.453
 7556SOL     OW32666   6.656   7.133   2.305
 7556SOL    HW132667   6.614   7.053   2.261
 7556SOL    HW232668   6.621   7.144   2.398
 7557SOL     OW32669   3.075   2.970   6.689
 7557SOL    HW132670   3.068   3.055   6.740
 7557SOL    HW232671   3.132   2.905   6.740
 7558SOL     OW32672   0.700   5.040   0.297
 7558SOL    HW132673   0.648   5.079   0.373
 7558SOL    HW232674   0.671   5.082   0.211
 7559SOL     OW32675   4.636   1.350   2.390
 7559SOL    HW132676   4.731   1.327   2.368
 7559SOL    HW232677   4.625   1.360   2.489
 7560SOL     OW32678   5.265   7.136   5.101
 7560SOL    HW132679   5.286   7.121   5.004
 7560SOL    HW232680   5.350   7.133   5.154
 7561SOL     OW32681   2.599   6.867   3.123
 7561SOL    HW132682   2.524   6.840   3.063
 7561SOL    HW232683   2.619   6.964   3.111
 7562SOL     OW32684   0.379   3.707   0.851
 7562SOL    HW132685   0.433   3.633   0.812
 7562SOL    HW232686   0.349   3.682   0.943
 7563SOL     OW32687   4.306   4.998   4.990
 7563SOL    HW132688   4.367   4.940   4.935
 7563SOL    HW232689   4.298   4.961   5.082
 7564SOL     OW32690   5.212   0.254   2.620
 7564SOL    HW132691   5.213   0.277   2.523
 7564SOL    HW232692   5.244   0.333   2.673
 7565SOL     OW32693   0.497   4.758   2.851
 7565SOL    HW132694   0.564   4.703   2.800
 7565SOL    HW232695   0.515   4.750   2.949
 7566SOL     OW32696   3.103   6.944   4.948
 7566SOL    HW132697   3.020   6.992   4.975
 7566SOL    HW232698   3.133   6.975   4.858
 7567SOL     OW32699   2.354   6.892   6.235
 7567SOL    HW132700   2.371   6.960   6.307
 7567SOL    HW232701   2.439   6.871   6.188
 7568SOL     OW32702   2.560   7.759   7.609
 7568SOL    HW132703   2.583   7.797   7.520
 7568SOL    HW232704   2.517   7.670   7.599
 7569SOL     OW32705   6.400   4.755   1.554
 7569SOL    HW132706   6.473   4.816   1.587
 7569SOL    HW232707   6.388   4.767   1.456
 7570SOL     OW32708   0.980   1.558   1.507
 7570SOL    HW132709   1.079   1.572   1.515
 7570SOL    HW232710   0.949   1.590   1.418
 7571SOL     OW32711   5.590   7.154   7.988
 7571SOL    HW132712   5.658   7.226   8.001
 7571SOL    HW232713   5.590   7.124   7.892
 7572SOL     OW32714   2.608   4.929   6.497
 7572SOL    HW132715   2.532   4.988   6.470
 7572SOL    HW232716   2.580   4.865   6.568
 7573SOL     OW32717   6.767   3.285   5.205
 7573SOL    HW132718   6.720   3.270   5.292
 7573SOL    HW232719   6.764   3.202   5.150
 7574SOL     OW32720   4.026   1.204   4.122
 7574SOL    HW132721   4.069   1.294   4.118
 7574SOL    HW232722   4.014   1.175   4.216
 7575SOL     OW32723   6.984   3.991   6.149
 7575SOL    HW132724   6.934   3.959   6.230
 7575SOL    HW232725   6.946   3.948   6.067
 7576SOL     OW32726   4.566   4.842   3.551
 7576SOL    HW132727   4.644   4.806   3.499
 7576SOL    HW232728   4.561   4.795   3.639
 7577SOL     OW32729   6.615   7.524   7.848
 7577SOL    HW132730   6.704   7.569   7.845
 7577SOL    HW232731   6.621   7.439   7.900
 7578SOL     OW32732   0.725   7.122   6.337
 7578SOL    HW132733   0.647   7.078   6.379
 7578SOL    HW232734   0.710   7.133   6.238
 7579SOL     OW32735   7.215   1.200   7.065
 7579SOL    HW132736   7.182   1.153   6.983
 7579SOL    HW232737   7.191   1.148   7.146
 7580SOL     OW32738   7.537   4.729   0.725
 7580SOL    HW132739   7.604   4.670   0.681
 7580SOL    HW232740   7.560   4.740   0.822
 7581SOL     OW32741   3.781   5.756   4.306
 7581SOL    HW132742   3.852   5.710   4.360
 7581SOL    HW232743   3.691   5.734   4.343
 7582SOL     OW32744   1.773   3.917   6.635
 7582SOL    HW132745   1.831   3.996   6.656
 7582SOL    HW232746   1.775   3.898   6.537
 7583SOL     OW32747   7.194   5.952   3.735
 7583SOL    HW132748   7.249   6.032   3.710
 7583SOL    HW232749   7.139   5.922   3.657
 7584SOL     OW32750   1.240   6.558   6.909
 7584SOL    HW132751   1.186   6.526   6.987
 7584SOL    HW232752   1.213   6.651   6.885
 7585SOL     OW32753   1.827   7.830   7.057
 7585SOL    HW132754   1.767   7.763   7.101
 7585SOL    HW232755   1.883   7.786   6.987
 7586SOL     OW32756   5.901   1.665   4.875
 7586SOL    HW132757   5.977   1.679   4.940
 7586SOL    HW232758   5.861   1.575   4.888
 7587SOL     OW32759   1.333   6.000   6.265
 7587SOL    HW132760   1.431   6.014   6.274
 7587SOL    HW232761   1.286   6.089   6.264
 7588SOL     OW32762   0.952   3.595   3.117
 7588SOL    HW132763   0.934   3.684   3.159
 7588SOL    HW232764   1.018   3.544   3.172
 7589SOL     OW32765   3.796   3.876   5.698
 7589SOL    HW132766   3.808   3.777   5.699
 7589SOL    HW232767   3.867   3.919   5.642
 7590SOL     OW32768   5.759   2.757   0.903
 7590SOL    HW132769   5.702   2.780   0.981
 7590SOL    HW232770   5.852   2.791   0.917
 7591SOL     OW32771   4.180   5.770   1.027
 7591SOL    HW132772   4.225   5.856   1.051
 7591SOL    HW232773   4.086   5.789   0.996
 7592SOL     OW32774   0.086   6.451   6.094
 7592SOL    HW132775   0.104   6.496   6.182
 7592SOL    HW232776   0.052   6.517   6.028
 7593SOL     OW32777   0.315  -0.000   6.606
 7593SOL    HW132778   0.301   0.080   6.664
 7593SOL    HW232779   0.299   0.024   6.510
 7594SOL     OW32780   6.929   2.429   6.559
 7594SOL    HW132781   7.025   2.406   6.546
 7594SOL    HW232782   6.907   2.429   6.657
 7595SOL     OW32783   6.604   2.705   4.655
 7595SOL    HW132784   6.514   2.699   4.612
 7595SOL    HW232785   6.595   2.744   4.747
 7596SOL     OW32786   5.635   0.776   4.788
 7596SOL    HW132787   5.554   0.769   4.729
 7596SOL    HW232788   5.613   0.826   4.871
 7597SOL     OW32789   2.418   2.925   0.422
 7597SOL    HW132790   2.463   2.929   0.511
 7597SOL    HW232791   2.485   2.935   0.349
 7598SOL     OW32792   2.292   7.054   4.821
 7598SOL    HW132793   2.337   7.078   4.735
 7598SOL    HW232794   2.206   7.005   4.801
 7599SOL     OW32795   1.966   2.689   0.820
 7599SOL    HW132796   2.000   2.781   0.799
 7599SOL    HW232797   2.042   2.625   0.828
 7600SOL     OW32798   6.159   0.667   7.250
 7600SOL    HW132799   6.183   0.764   7.254
 7600SOL    HW232800   6.151   0.630   7.343
 7601SOL     OW32801   1.790   3.488   6.512
 7601SOL    HW132802   1.765   3.508   6.607
 7601SOL    HW232803   1.880   3.526   6.492
 7602SOL     OW32804   1.092   1.379   5.610
 7602SOL    HW132805   1.039   1.306   5.654
 7602SOL    HW232806   1.054   1.400   5.521
 7603SOL     OW32807   6.531   2.373   6.967
 7603SOL    HW132808   6.612   2.331   6.925
 7603SOL    HW232809   6.558   2.425   7.049
 7604SOL     OW32810   7.421   1.998   5.938
 7604SOL    HW132811   7.515   2.033   5.942
 7604SOL    HW232812   7.397   1.973   5.845
 7605SOL     OW32813   6.194   3.764   2.132
 7605SOL    HW132814   6.168   3.668   2.144
 7605SOL    HW232815   6.246   3.775   2.047
 7606SOL     OW32816   1.582   7.811   5.954
 7606SOL    HW132817   1.534   7.833   5.869
 7606SOL    HW232818   1.521   7.821   6.032
 7607SOL     OW32819   4.613   1.420   3.615
 7607SOL    HW132820   4.674   1.432   3.693
 7607SOL    HW232821   4.521   1.399   3.648
 7608SOL     OW32822   1.666   5.524   3.418
 7608SOL    HW132823   1.568   5.529   3.401
 7608SOL    HW232824   1.708   5.613   3.403
 7609SOL     OW32825   1.955   5.905   0.126
 7609SOL    HW132826   1.952   5.812   0.091
 7609SOL    HW232827   1.911   5.910   0.215
 7610SOL     OW32828   5.090   4.123   2.199
 7610SOL    HW132829   5.031   4.043   2.215
 7610SOL    HW232830   5.070   4.194   2.266
 7611SOL     OW32831   1.742   1.946   5.419
 7611SOL    HW132832   1.645   1.923   5.410
 7611SOL    HW232833   1.758   2.039   5.388
 7612SOL     OW32834   6.769   5.881   2.352
 7612SOL    HW132835   6.864   5.883   2.385
 7612SOL    HW232836   6.710   5.931   2.415
 7613SOL     OW32837   2.626   0.032   4.583
 7613SOL    HW132838   2.713  -0.000   4.543
 7613SOL    HW232839   2.621   0.004   4.679
 7614SOL     OW32840   6.246   3.719   5.729
 7614SOL    HW132841   6.330   3.668   5.746
 7614SOL    HW232842   6.230   3.727   5.631
 7615SOL     OW32843   3.232   3.259   7.771
 7615SOL    HW132844   3.249   3.195   7.846
 7615SOL    HW232845   3.317   3.303   7.743
 7616SOL     OW32846   3.795   6.170   2.709
 7616SOL    HW132847   3.822   6.243   2.772
 7616SOL    HW232848   3.734   6.207   2.639
 7617SOL     OW32849   6.408   2.675   7.251
 7617SOL    HW132850   6.371   2.759   7.291
 7617SOL    HW232851   6.446   2.616   7.322
 7618SOL     OW32852   2.154   6.565   4.480
 7618SOL    HW132853   2.224   6.515   4.532
 7618SOL    HW232854   2.187   6.582   4.387
 7619SOL     OW32855   6.480   3.798   6.189
 7619SOL    HW132856   6.416   3.727   6.161
 7619SOL    HW232857   6.449   3.839   6.275
 7620SOL     OW32858   2.937   5.377   6.121
 7620SOL    HW132859   2.861   5.442   6.115
 7620SOL    HW232860   2.920   5.311   6.194
 7621SOL     OW32861   4.999   2.911   2.397
 7621SOL    HW132862   4.916   2.904   2.342
 7621SOL    HW232863   4.978   2.894   2.493
 7622SOL     OW32864   5.130   1.802   1.081
 7622SOL    HW132865   5.084   1.762   1.161
 7622SOL    HW232866   5.227   1.780   1.083
 7623SOL     OW32867   3.595   6.920   6.697
 7623SOL    HW132868   3.548   7.002   6.733
 7623SOL    HW232869   3.562   6.899   6.606
 7624SOL     OW32870   7.592   1.599   1.008
 7624SOL    HW132871   7.517   1.574   1.069
 7624SOL    HW232872   7.556   1.616   0.916
 7625SOL     OW32873   4.080   2.687   7.331
 7625SOL    HW132874   4.010   2.623   7.299
 7625SOL    HW232875   4.059   2.717   7.424
 7626SOL     OW32876   7.505   4.087   6.922
 7626SOL    HW132877   7.494   3.999   6.970
 7626SOL    HW232878   7.552   4.072   6.835
 7627SOL     OW32879   4.473   2.319   6.600
 7627SOL    HW132880   4.428   2.356   6.518
 7627SOL    HW232881   4.565   2.357   6.608
 7628SOL     OW32882   7.377   6.289   5.632
 7628SOL    HW132883   7.290   6.310   5.677
 7628SOL    HW232884   7.403   6.194   5.652
 7629SOL     OW32885   5.477   4.146   2.242
 7629SOL    HW132886   5.541   4.208   2.197
 7629SOL    HW232887   5.513   4.120   2.332
 7630SOL     OW32888   4.644   1.517   0.934
 7630SOL    HW132889   4.744   1.518   0.929
 7630SOL    HW232890   4.606   1.472   0.854
 7631SOL     OW32891   4.960   4.160   6.218
 7631SOL    HW132892   5.000   4.109   6.294
 7631SOL    HW232893   5.032   4.183   6.152
 7632SOL     OW32894   1.498   7.587   7.639
 7632SOL    HW132895   1.475   7.665   7.697
 7632SOL    HW232896   1.502   7.504   7.695
 7633SOL     OW32897   6.967   1.318   0.255
 7633SOL    HW132898   7.036   1.390   0.260
 7633SOL    HW232899   6.994   1.250   0.188
 7634SOL     OW32900   2.385   7.261   4.494
 7634SOL    HW132901   2.295   7.250   4.536
 7634SOL    HW232902   2.408   7.358   4.486
 7635SOL     OW32903   7.329   5.411   3.309
 7635SOL    HW132904   7.336   5.325   3.259
 7635SOL    HW232905   7.310   5.394   3.405
 7636SOL     OW32906   3.814   4.075   7.037
 7636SOL    HW132907   3.832   4.172   7.053
 7636SOL    HW232908   3.722   4.052   7.067
 7637SOL     OW32909   2.606   3.312   2.274
 7637SOL    HW132910   2.666   3.365   2.333
 7637SOL    HW232911   2.611   3.215   2.299
 7638SOL     OW32912   1.636   3.917   7.435
 7638SOL    HW132913   1.719   3.869   7.405
 7638SOL    HW232914   1.579   3.854   7.489
 7639SOL     OW32915   3.444   0.341   0.706
 7639SOL    HW132916   3.510   0.266   0.709
 7639SOL    HW232917   3.396   0.340   0.618
 7640SOL     OW32918   5.827   0.097   4.374
 7640SOL    HW132919   5.856   0.171   4.315
 7640SOL    HW232920   5.893   0.085   4.449
 7641SOL     OW32921   4.924   4.653   5.169
 7641SOL    HW132922   4.926   4.745   5.130
 7641SOL    HW232923   4.975   4.590   5.110
 7642SOL     OW32924   7.522   4.302   4.080
 7642SOL    HW132925   7.599   4.312   4.017
 7642SOL    HW232926   7.542   4.351   4.165
 7643SOL     OW32927   3.056   3.986   5.573
 7643SOL    HW132928   3.005   3.954   5.654
 7643SOL    HW232929   2.995   3.988   5.494
 7644SOL     OW32930   1.848   2.077   0.965
 7644SOL    HW132931   1.938   2.066   1.008
 7644SOL    HW232932   1.790   1.997   0.985
 7645SOL     OW32933   3.979   1.704   5.017
 7645SOL    HW132934   3.955   1.795   5.051
 7645SOL    HW232935   3.903   1.641   5.030
 7646SOL     OW32936   6.156   5.763   0.495
 7646SOL    HW132937   6.228   5.790   0.430
 7646SOL    HW232938   6.083   5.714   0.447
 7647SOL     OW32939   0.374   7.360   2.421
 7647SOL    HW132940   0.353   7.438   2.362
 7647SOL    HW232941   0.324   7.369   2.507
 7648SOL     OW32942   5.110   2.773   2.085
 7648SOL    HW132943   5.192   2.749   2.138
 7648SOL    HW232944   5.112   2.870   2.063
 7649SOL     OW32945   4.946   3.063   2.957
 7649SOL    HW132946   4.936   2.963   2.958
 7649SOL    HW232947   4.981   3.093   2.868
 7650SOL     OW32948   5.592   6.110   1.665
 7650SOL    HW132949   5.618   6.158   1.581
 7650SOL    HW232950   5.508   6.058   1.649
 7651SOL     OW32951   6.747   0.118   4.930
 7651SOL    HW132952   6.772   0.213   4.951
 7651SOL    HW232953   6.676   0.117   4.859
 7652SOL     OW32954   7.923   1.890   6.610
 7652SOL    HW132955   8.000   1.851   6.660
 7652SOL    HW232956   7.837   1.857   6.648
 7653SOL     OW32957   3.357   1.174   5.762
 7653SOL    HW132958   3.282   1.171   5.696
 7653SOL    HW232959   3.358   1.263   5.808
 7654SOL     OW32960   7.351   5.083   2.578
 7654SOL    HW132961   7.439   5.036   2.586
 7654SOL    HW232962   7.301   5.048   2.499
 7655SOL     OW32963   6.871   2.908   1.618
 7655SOL    HW132964   6.856   2.995   1.664
 7655SOL    HW232965   6.831   2.910   1.526
 7656SOL     OW32966   1.392   3.739   5.703
 7656SOL    HW132967   1.452   3.794   5.761
 7656SOL    HW232968   1.311   3.711   5.755
 7657SOL     OW32969   6.879   4.073   0.874
 7657SOL    HW132970   6.891   4.000   0.941
 7657SOL    HW232971   6.860   4.034   0.784
 7658SOL     OW32972   5.747   0.529   0.683
 7658SOL    HW132973   5.779   0.442   0.719
 7658SOL    HW232974   5.677   0.515   0.613
 7659SOL     OW32975   6.336   4.542   6.065
 7659SOL    HW132976   6.436   4.538   6.065
 7659SOL    HW232977   6.299   4.471   6.124
 7660SOL     OW32978   2.413   4.705   7.406
 7660SOL    HW132979   2.507   4.740   7.401
 7660SOL    HW232980   2.413   4.610   7.437
 7661SOL     OW32981   3.879   3.829   0.912
 7661SOL    HW132982   3.937   3.781   0.847
 7661SOL    HW232983   3.928   3.908   0.950
 7662SOL     OW32984   6.257   1.245   0.557
 7662SOL    HW132985   6.340   1.199   0.589
 7662SOL    HW232986   6.276   1.295   0.472
 7663SOL     OW32987   4.486   3.695   2.125
 7663SOL    HW132988   4.521   3.659   2.037
 7663SOL    HW232989   4.563   3.721   2.184
 7664SOL     OW32990   6.051   5.357   1.411
 7664SOL    HW132991   6.008   5.440   1.447
 7664SOL    HW232992   6.136   5.339   1.459
 7665SOL     OW32993   2.267   4.802   1.424
 7665SOL    HW132994   2.345   4.852   1.462
 7665SOL    HW232995   2.247   4.835   1.332
 7666SOL     OW32996   3.737   5.081   3.842
 7666SOL    HW132997   3.824   5.042   3.810
 7666SOL    HW232998   3.722   5.055   3.938
 7667SOL     OW32999   0.068   3.935   6.208
 7667SOL    HW133000   0.120   3.878   6.145
 7667SOL    HW233001   0.068   3.895   6.299
 7668SOL     OW33002   3.928   4.236   2.460
 7668SOL    HW133003   3.842   4.286   2.457
 7668SOL    HW233004   3.995   4.285   2.516
 7669SOL     OW33005   1.928   3.159   6.951
 7669SOL    HW133006   1.898   3.149   6.856
 7669SOL    HW233007   1.981   3.079   6.979
 7670SOL     OW33008   0.612   1.762   4.768
 7670SOL    HW133009   0.685   1.693   4.773
 7670SOL    HW233010   0.524   1.717   4.755
 7671SOL     OW33011   1.408   6.417   4.509
 7671SOL    HW133012   1.504   6.389   4.503
 7671SOL    HW233013   1.348   6.337   4.504
 7672SOL     OW33014   5.618   5.016   1.582
 7672SOL    HW133015   5.570   4.951   1.522
 7672SOL    HW233016   5.588   5.109   1.561
 7673SOL     OW33017   3.515   3.138   3.473
 7673SOL    HW133018   3.507   3.174   3.379
 7673SOL    HW233019   3.503   3.212   3.539
 7674SOL     OW33020   3.034   3.015   7.938
 7674SOL    HW133021   3.104   2.943   7.945
 7674SOL    HW233022   3.058   3.078   7.864
 7675SOL     OW33023   4.238   2.853   3.931
 7675SOL    HW133024   4.286   2.834   4.016
 7675SOL    HW233025   4.140   2.840   3.943
 7676SOL     OW33026   3.800   0.518   7.311
 7676SOL    HW133027   3.883   0.575   7.314
 7676SOL    HW233028   3.731   0.555   7.373
 7677SOL     OW33029   3.705   2.013   7.616
 7677SOL    HW133030   3.695   2.043   7.711
 7677SOL    HW233031   3.756   2.081   7.563
 7678SOL     OW33032   7.113   0.101   7.884
 7678SOL    HW133033   7.056   0.043   7.825
 7678SOL    HW233034   7.057   0.170   7.929
 7679SOL     OW33035   2.303   1.684   7.524
 7679SOL    HW133036   2.264   1.609   7.470
 7679SOL    HW233037   2.236   1.717   7.590
 7680SOL     OW33038   5.755   3.254   0.609
 7680SOL    HW133039   5.819   3.212   0.545
 7680SOL    HW233040   5.798   3.263   0.699
 7681SOL     OW33041   2.891   6.612   3.281
 7681SOL    HW133042   2.883   6.626   3.182
 7681SOL    HW233043   2.921   6.696   3.325
 7682SOL     OW33044   5.417   2.682   6.719
 7682SOL    HW133045   5.347   2.612   6.701
 7682SOL    HW233046   5.452   2.717   6.632
 7683SOL     OW33047   3.827   3.759   2.586
 7683SOL    HW133048   3.921   3.736   2.560
 7683SOL    HW233049   3.807   3.722   2.677
 7684SOL     OW33050   6.305   1.080   3.011
 7684SOL    HW133051   6.319   1.016   3.087
 7684SOL    HW233052   6.362   1.053   2.933
 7685SOL     OW33053   4.955   2.288   6.290
 7685SOL    HW133054   5.026   2.249   6.231
 7685SOL    HW233055   4.876   2.314   6.235
 7686SOL     OW33056   5.476   4.371   6.497
 7686SOL    HW133057   5.399   4.426   6.462
 7686SOL    HW233058   5.474   4.280   6.455
 7687SOL     OW33059   1.707   3.983   6.061
 7687SOL    HW133060   1.712   3.890   6.024
 7687SOL    HW233061   1.668   3.981   6.154
 7688SOL     OW33062   1.742   7.099   0.829
 7688SOL    HW133063   1.689   7.174   0.869
 7688SOL    HW233064   1.703   7.011   0.856
 7689SOL     OW33065   7.208   0.047   5.841
 7689SOL    HW133066   7.241   0.098   5.921
 7689SOL    HW233067   7.269   0.062   5.764
 7690SOL     OW33068   2.811   0.021   6.197
 7690SOL    HW133069   2.832   0.100   6.255
 7690SOL    HW233070   2.810   0.048   6.101
 7691SOL     OW33071   7.884   0.867   0.184
 7691SOL    HW133072   7.946   0.910   0.118
 7691SOL    HW233073   7.877   0.769   0.165
 7692SOL     OW33074   1.416   2.678   0.936
 7692SOL    HW133075   1.327   2.671   0.893
 7692SOL    HW233076   1.416   2.749   1.006
 7693SOL     OW33077   5.306   4.310   5.134
 7693SOL    HW133078   5.344   4.266   5.051
 7693SOL    HW233079   5.321   4.408   5.129
 7694SOL     OW33080   2.744   1.983   2.847
 7694SOL    HW133081   2.646   1.964   2.851
 7694SOL    HW233082   2.777   1.970   2.753
 7695SOL     OW33083   0.467   0.372   7.247
 7695SOL    HW133084   0.477   0.452   7.307
 7695SOL    HW233085   0.399   0.390   7.176
 7696SOL     OW33086   4.331   0.620   4.063
 7696SOL    HW133087   4.266   0.544   4.070
 7696SOL    HW233088   4.340   0.665   4.152
 7697SOL     OW33089   4.772   0.230   5.266
 7697SOL    HW133090   4.682   0.214   5.307
 7697SOL    HW233091   4.772   0.196   5.172
 7698SOL     OW33092   3.507   0.929   0.021
 7698SOL    HW133093   3.525   0.863   0.094
 7698SOL    HW233094   3.410   0.932  -0.000
 7699SOL     OW33095   3.713   1.589   3.770
 7699SOL    HW133096   3.702   1.505   3.822
 7699SOL    HW233097   3.624   1.623   3.740
 7700SOL     OW33098   0.049   5.873   4.948
 7700SOL    HW133099   0.100   5.941   5.000
 7700SOL    HW233100   0.102   5.845   4.867
 7701SOL     OW33101   7.847   0.784   4.269
 7701SOL    HW133102   7.801   0.797   4.356
 7701SOL    HW233103   7.799   0.715   4.214
 7702SOL     OW33104   5.139   1.852   5.143
 7702SOL    HW133105   5.085   1.935   5.161
 7702SOL    HW233106   5.236   1.872   5.151
 7703SOL     OW33107   2.549   7.633   3.739
 7703SOL    HW133108   2.551   7.733   3.733
 7703SOL    HW233109   2.626   7.600   3.793
 7704SOL     OW33110   7.846   2.262   4.259
 7704SOL    HW133111   7.852   2.281   4.161
 7704SOL    HW233112   7.930   2.290   4.304
 7705SOL     OW33113   2.543   7.062   6.871
 7705SOL    HW133114   2.450   7.099   6.868
 7705SOL    HW233115   2.607   7.127   6.829
 7706SOL     OW33116   5.443   4.111   3.097
 7706SOL    HW133117   5.480   4.021   3.073
 7706SOL    HW233118   5.396   4.151   3.018
 7707SOL     OW33119   4.812   1.756   6.566
 7707SOL    HW133120   4.728   1.715   6.529
 7707SOL    HW233121   4.890   1.730   6.510
 7708SOL     OW33122   4.063   1.401   4.943
 7708SOL    HW133123   4.050   1.310   4.982
 7708SOL    HW233124   4.103   1.394   4.852
 7709SOL     OW33125   3.186   3.183   2.460
 7709SOL    HW133126   3.107   3.125   2.439
 7709SOL    HW233127   3.203   3.182   2.559
 7710SOL     OW33128   7.479   2.068   6.627
 7710SOL    HW133129   7.553   2.064   6.560
 7710SOL    HW233130   7.398   2.022   6.590
 7711SOL     OW33131   1.817   6.835   7.857
 7711SOL    HW133132   1.875   6.758   7.883
 7711SOL    HW233133   1.872   6.919   7.853
 7712SOL     OW33134   5.019   0.063   4.277
 7712SOL    HW133135   5.097   0.126   4.285
 7712SOL    HW233136   4.989   0.035   4.368
 7713SOL     OW33137   2.343   3.240   6.152
 7713SOL    HW133138   2.333   3.143   6.129
 7713SOL    HW233139   2.348   3.251   6.251
 7714SOL     OW33140   5.036   3.804   7.412
 7714SOL    HW133141   5.087   3.858   7.480
 7714SOL    HW233142   4.948   3.776   7.450
 7715SOL     OW33143   0.089   5.754   7.162
 7715SOL    HW133144   0.083   5.827   7.231
 7715SOL    HW233145  -0.000   5.741   7.119
 7716SOL     OW33146   7.777   3.950   2.578
 7716SOL    HW133147   7.865   3.993   2.558
 7716SOL    HW233148   7.781   3.852   2.558
 7717SOL     OW33149   0.075   3.739   5.528
 7717SOL    HW133150   0.025   3.709   5.446
 7717SOL    HW233151   0.161   3.781   5.502
 7718SOL     OW33152   6.470   6.142   6.181
 7718SOL    HW133153   6.409   6.213   6.146
 7718SOL    HW233154   6.474   6.146   6.281
 7719SOL     OW33155   6.925   7.012   1.589
 7719SOL    HW133156   6.919   7.111   1.574
 7719SOL    HW233157   6.876   6.986   1.671
 7720SOL     OW33158   2.014   7.185   3.640
 7720SOL    HW133159   1.984   7.090   3.649
 7720SOL    HW233160   1.937   7.247   3.647
 7721SOL     OW33161   3.338   4.145   4.448
 7721SOL    HW133162   3.416   4.083   4.452
 7721SOL    HW233163   3.254   4.093   4.428
 7722SOL     OW33164   3.824   4.800   1.941
 7722SOL    HW133165   3.876   4.865   1.996
 7722SOL    HW233166   3.879   4.720   1.921
 7723SOL     OW33167   1.839   3.254   3.543
 7723SOL    HW133168   1.924   3.202   3.552
 7723SOL    HW233169   1.812   3.291   3.632
 7724SOL     OW33170   0.280   4.984   4.976
 7724SOL    HW133171   0.372   5.018   4.955
 7724SOL    HW233172   0.273   4.965   5.074
 7725SOL     OW33173   5.222   0.206   4.678
 7725SOL    HW133174   5.254   0.281   4.737
 7725SOL    HW233175   5.129   0.226   4.647
 7726SOL     OW33176   3.218   4.260   0.211
 7726SOL    HW133177   3.236   4.348   0.167
 7726SOL    HW233178   3.175   4.275   0.300
 7727SOL     OW33179   1.903   2.402   7.600
 7727SOL    HW133180   1.830   2.455   7.557
 7727SOL    HW233181   1.913   2.427   7.696
 7728SOL     OW33182   5.282   2.549   6.501
 7728SOL    HW133183   5.260   2.622   6.436
 7728SOL    HW233184   5.340   2.480   6.456
 7729SOL     OW33185   4.156   1.117   2.138
 7729SOL    HW133186   4.200   1.064   2.211
 7729SOL    HW233187   4.068   1.077   2.114
 7730SOL     OW33188   3.994   0.357   0.079
 7730SOL    HW133189   4.026   0.303   0.001
 7730SOL    HW233190   4.002   0.305   0.163
 7731SOL     OW33191   0.848   7.766   5.239
 7731SOL    HW133192   0.793   7.801   5.164
 7731SOL    HW233193   0.827   7.815   5.323
 7732SOL     OW33194   4.694   3.523   3.628
 7732SOL    HW133195   4.754   3.562   3.698
 7732SOL    HW233196   4.665   3.594   3.564
 7733SOL     OW33197   4.729   6.782   7.340
 7733SOL    HW133198   4.672   6.851   7.297
 7733SOL    HW233199   4.821   6.784   7.302
 7734SOL     OW33200   0.774   2.183   5.881
 7734SOL    HW133201   0.707   2.251   5.913
 7734SOL    HW233202   0.762   2.167   5.783
 7735SOL     OW33203   3.949   7.654   6.273
 7735SOL    HW133204   3.994   7.700   6.349
 7735SOL    HW233205   3.984   7.688   6.186
 7736SOL     OW33206   3.252   1.675   6.965
 7736SOL    HW133207   3.344   1.638   6.958
 7736SOL    HW233208   3.228   1.690   7.061
 7737SOL     OW33209   2.096   7.383   3.099
 7737SOL    HW133210   2.046   7.327   3.165
 7737SOL    HW233211   2.031   7.431   3.040
 7738SOL     OW33212   0.277   3.158   7.483
 7738SOL    HW133213   0.249   3.248   7.519
 7738SOL    HW233214   0.249   3.150   7.388
 7739SOL     OW33215   4.444   2.692   4.076
 7739SOL    HW133216   4.536   2.725   4.056
 7739SOL    HW233217   4.446   2.634   4.158
 7740SOL     OW33218   2.727   3.538   1.580
 7740SOL    HW133219   2.738   3.638   1.585
 7740SOL    HW233220   2.817   3.494   1.582
 7741SOL     OW33221   3.684   3.556   1.740
 7741SOL    HW133222   3.778   3.542   1.707
 7741SOL    HW233223   3.664   3.653   1.745
 7742SOL     OW33224   1.862   1.269   1.377
 7742SOL    HW133225   1.901   1.348   1.424
 7742SOL    HW233226   1.913   1.252   1.293
 7743SOL     OW33227   1.872   6.992   2.167
 7743SOL    HW133228   1.824   7.076   2.140
 7743SOL    HW233229   1.838   6.915   2.114
 7744SOL     OW33230   5.082   1.840   2.325
 7744SOL    HW133231   4.992   1.852   2.367
 7744SOL    HW233232   5.084   1.885   2.236
 7745SOL     OW33233   0.935   3.243   4.175
 7745SOL    HW133234   0.849   3.203   4.143
 7745SOL    HW233235   0.998   3.256   4.098
 7746SOL     OW33236   5.575   4.269   3.567
 7746SOL    HW133237   5.542   4.265   3.472
 7746SOL    HW233238   5.498   4.272   3.630
 7747SOL     OW33239   5.097   2.258   6.611
 7747SOL    HW133240   5.077   2.356   6.604
 7747SOL    HW233241   5.146   2.228   6.529
 7748SOL     OW33242   1.712   1.465   6.020
 7748SOL    HW133243   1.703   1.373   5.980
 7748SOL    HW233244   1.677   1.466   6.113
 7749SOL     OW33245   0.747   7.605   5.798
 7749SOL    HW133246   0.684   7.528   5.782
 7749SOL    HW233247   0.794   7.594   5.886
 7750SOL     OW33248   5.202   4.522   1.639
 7750SOL    HW133249   5.165   4.609   1.672
 7750SOL    HW233250   5.239   4.533   1.547
 7751SOL     OW33251   4.478   7.730   6.313
 7751SOL    HW133252   4.500   7.718   6.410
 7751SOL    HW233253   4.443   7.822   6.297
 7752SOL     OW33254   6.869   6.777   6.025
 7752SOL    HW133255   6.949   6.772   6.085
 7752SOL    HW233256   6.876   6.707   5.954
 7753SOL     OW33257   2.195   0.737   1.597
 7753SOL    HW133258   2.182   0.823   1.648
 7753SOL    HW233259   2.179   0.659   1.657
 7754SOL     OW33260   5.492   4.684   3.610
 7754SOL    HW133261   5.499   4.653   3.704
 7754SOL    HW233262   5.562   4.753   3.591
 7755SOL     OW33263   6.055   3.754   7.372
 7755SOL    HW133264   5.983   3.823   7.374
 7755SOL    HW233265   6.075   3.728   7.278
 7756SOL     OW33266   4.408   1.738   7.244
 7756SOL    HW133267   4.429   1.740   7.342
 7756SOL    HW233268   4.472   1.677   7.198
 7757SOL     OW33269   4.874   1.535   5.033
 7757SOL    HW133270   4.905   1.440   5.031
 7757SOL    HW233271   4.937   1.591   5.087
 7758SOL     OW33272   7.113   2.996   5.545
 7758SOL    HW133273   7.164   2.968   5.463
 7758SOL    HW233274   7.124   3.094   5.560
 7759SOL     OW33275   7.008   4.001   1.330
 7759SOL    HW133276   7.093   4.040   1.367
 7759SOL    HW233277   6.991   4.038   1.239
 7760SOL     OW33278   3.991   5.109   7.914
 7760SOL    HW133279   3.920   5.038   7.914
 7760SOL    HW233280   3.988   5.160   8.000
 7761SOL     OW33281   4.726   7.773   2.024
 7761SOL    HW133282   4.631   7.780   2.054
 7761SOL    HW233283   4.762   7.863   2.001
 7762SOL     OW33284   3.401   5.641   7.206
 7762SOL    HW133285   3.420   5.739   7.210
 7762SOL    HW233286   3.333   5.616   7.275
 7763SOL     OW33287   0.435   6.214   5.585
 7763SOL    HW133288   0.462   6.308   5.563
 7763SOL    HW233289   0.335   6.208   5.590
 7764SOL     OW33290   4.898   3.755   6.486
 7764SOL    HW133291   4.957   3.834   6.469
 7764SOL    HW233292   4.949   3.684   6.534
 7765SOL     OW33293   0.962   2.322   2.050
 7765SOL    HW133294   0.935   2.341   2.144
 7765SOL    HW233295   0.882   2.326   1.990
 7766SOL     OW33296   7.108   4.082   7.275
 7766SOL    HW133297   7.010   4.071   7.286
 7766SOL    HW233298   7.149   4.117   7.359
 7767SOL     OW33299   2.864   4.019   4.332
 7767SOL    HW133300   2.806   3.945   4.298
 7767SOL    HW233301   2.831   4.049   4.422
 7768SOL     OW33302   0.530   6.318   1.707
 7768SOL    HW133303   0.471   6.394   1.681
 7768SOL    HW233304   0.475   6.240   1.735
 7769SOL     OW33305   1.849   0.149   1.538
 7769SOL    HW133306   1.885   0.133   1.630
 7769SOL    HW233307   1.763   0.099   1.526
 7770SOL     OW33308   0.197   6.631   4.466
 7770SOL    HW133309   0.289   6.636   4.506
 7770SOL    HW233310   0.194   6.559   4.397
 7771SOL     OW33311   7.134   4.364   5.034
 7771SOL    HW133312   7.073   4.443   5.043
 7771SOL    HW233313   7.205   4.367   5.104
 7772SOL     OW33314   6.758   4.084   2.414
 7772SOL    HW133315   6.805   4.077   2.326
 7772SOL    HW233316   6.692   4.009   2.424
 7773SOL     OW33317   5.991   6.317   1.546
 7773SOL    HW133318   5.892   6.312   1.559
 7773SOL    HW233319   6.015   6.281   1.456
 7774SOL     OW33320   2.094   2.172   2.041
 7774SOL    HW133321   2.135   2.138   2.126
 7774SOL    HW233322   1.994   2.165   2.047
 7775SOL     OW33323   3.372   3.120   1.660
 7775SOL    HW133324   3.463   3.104   1.700
 7775SOL    HW233325   3.382   3.151   1.566
 7776SOL     OW33326   6.791   1.353   2.142
 7776SOL    HW133327   6.708   1.400   2.174
 7776SOL    HW233328   6.766   1.286   2.072
 7777SOL     OW33329   2.330   0.701   5.443
 7777SOL    HW133330   2.276   0.745   5.515
 7777SOL    HW233331   2.279   0.699   5.357
 7778SOL     OW33332   0.381   5.525   3.684
 7778SOL    HW133333   0.479   5.516   3.664
 7778SOL    HW233334   0.328   5.528   3.600
 7779SOL     OW33335   4.620   4.711   4.102
 7779SOL    HW133336   4.606   4.727   4.200
 7779SOL    HW233337   4.605   4.797   4.052
 7780SOL     OW33338   3.732   4.790   5.737
 7780SOL    HW133339   3.761   4.859   5.671
 7780SOL    HW233340   3.778   4.805   5.824
 7781SOL     OW33341   5.087   5.567   3.312
 7781SOL    HW133342   5.043   5.594   3.397
 7781SOL    HW233343   5.040   5.608   3.234
 7782SOL     OW33344   0.121   1.925   4.637
 7782SOL    HW133345   0.031   1.925   4.595
 7782SOL    HW233346   0.119   1.974   4.724
 7783SOL     OW33347   6.546   7.101   2.746
 7783SOL    HW133348   6.519   7.019   2.695
 7783SOL    HW233349   6.638   7.129   2.720
 7784SOL     OW33350   3.696   1.110   0.501
 7784SOL    HW133351   3.682   1.206   0.476
 7784SOL    HW233352   3.608   1.067   0.521
 7785SOL     OW33353   0.621   3.615   2.397
 7785SOL    HW133354   0.627   3.531   2.451
 7785SOL    HW233355   0.669   3.602   2.310
 7786SOL     OW33356   3.959   5.204   0.217
 7786SOL    HW133357   3.881   5.177   0.160
 7786SOL    HW233358   3.961   5.151   0.301
 7787SOL     OW33359   4.357   1.065   0.758
 7787SOL    HW133360   4.386   0.993   0.695
 7787SOL    HW233361   4.408   1.058   0.844
 7788SOL     OW33362   5.930   1.369   4.758
 7788SOL    HW133363   6.012   1.394   4.810
 7788SOL    HW233364   5.929   1.417   4.671
 7789SOL     OW33365   5.945   7.755   0.093
 7789SOL    HW133366   5.982   7.669   0.057
 7789SOL    HW233367   5.916   7.742   0.188
 7790SOL     OW33368   3.404   0.511   6.664
 7790SOL    HW133369   3.305   0.525   6.668
 7790SOL    HW233370   3.434   0.461   6.746
 7791SOL     OW33371   6.241   3.499   1.700
 7791SOL    HW133372   6.257   3.584   1.651
 7791SOL    HW233373   6.189   3.435   1.643
 7792SOL     OW33374   4.994   5.393   0.740
 7792SOL    HW133375   4.909   5.339   0.745
 7792SOL    HW233376   5.073   5.332   0.742
 7793SOL     OW33377   0.767   2.281   2.508
 7793SOL    HW133378   0.729   2.360   2.459
 7793SOL    HW233379   0.824   2.313   2.583
 7794SOL     OW33380   0.984   7.646   5.384
 7794SOL    HW133381   1.032   7.666   5.469
 7794SOL    HW233382   1.005   7.553   5.353
 7795SOL     OW33383   1.858   1.354   0.617
 7795SOL    HW133384   1.891   1.348   0.712
 7795SOL    HW233385   1.838   1.262   0.583
 7796SOL     OW33386   5.554   2.122   6.305
 7796SOL    HW133387   5.589   2.103   6.397
 7796SOL    HW233388   5.542   2.221   6.293
 7797SOL     OW33389   6.745   3.744   0.597
 7797SOL    HW133390   6.778   3.810   0.530
 7797SOL    HW233391   6.666   3.781   0.645
 7798SOL     OW33392   4.458   7.746   5.301
 7798SOL    HW133393   4.486   7.655   5.330
 7798SOL    HW233394   4.497   7.768   5.212
 7799SOL     OW33395   4.109   3.205   0.114
 7799SOL    HW133396   4.076   3.153   0.036
 7799SOL    HW233397   4.056   3.182   0.196
 7800SOL     OW33398   3.426   4.218   2.008
 7800SOL    HW133399   3.353   4.285   1.992
 7800SOL    HW233400   3.458   4.181   1.920
 7801SOL     OW33401   0.364   1.622   4.439
 7801SOL    HW133402   0.338   1.705   4.489
 7801SOL    HW233403   0.323   1.622   4.348
 7802SOL     OW33404   2.514   0.284   0.539
 7802SOL    HW133405   2.491   0.379   0.561
 7802SOL    HW233406   2.563   0.279   0.452
 7803SOL     OW33407   2.345   6.215   6.002
 7803SOL    HW133408   2.378   6.252   5.915
 7803SOL    HW233409   2.325   6.118   5.991
 7804SOL     OW33410   3.593   7.579   6.781
 7804SOL    HW133411   3.590   7.479   6.776
 7804SOL    HW233412   3.509   7.619   6.744
 7805SOL     OW33413   2.810   6.703   0.169
 7805SOL    HW133414   2.862   6.675   0.249
 7805SOL    HW233415   2.727   6.648   0.161
 7806SOL     OW33416   0.140   4.563   3.085
 7806SOL    HW133417   0.190   4.641   3.047
 7806SOL    HW233418   0.098   4.510   3.011
 7807SOL     OW33419   7.539   6.553   4.741
 7807SOL    HW133420   7.614   6.561   4.808
 7807SOL    HW233421   7.453   6.580   4.783
 7808SOL     OW33422   3.259   0.995   7.366
 7808SOL    HW133423   3.304   1.024   7.451
 7808SOL    HW233424   3.164   0.971   7.384
 7809SOL     OW33425   5.383   2.211   2.990
 7809SOL    HW133426   5.307   2.268   3.023
 7809SOL    HW233427   5.410   2.146   3.060
 7810SOL     OW33428   6.103   4.599   4.942
 7810SOL    HW133429   6.167   4.527   4.916
 7810SOL    HW233430   6.044   4.624   4.865
 7811SOL     OW33431   3.338   5.892   7.075
 7811SOL    HW133432   3.247   5.851   7.082
 7811SOL    HW233433   3.350   5.961   7.147
 7812SOL     OW33434   2.540   4.060   5.496
 7812SOL    HW133435   2.612   4.062   5.565
 7812SOL    HW233436   2.464   4.003   5.527
 7813SOL     OW33437   1.550   4.056   0.658
 7813SOL    HW133438   1.615   4.129   0.635
 7813SOL    HW233439   1.589   3.998   0.729
 7814SOL     OW33440   2.637   3.966   0.963
 7814SOL    HW133441   2.731   3.956   0.997
 7814SOL    HW233442   2.638   4.003   0.870
 7815SOL     OW33443   6.830   5.707   6.632
 7815SOL    HW133444   6.770   5.674   6.558
 7815SOL    HW233445   6.911   5.649   6.639
 7816SOL     OW33446   5.682   3.525   4.792
 7816SOL    HW133447   5.594   3.496   4.755
 7816SOL    HW233448   5.738   3.564   4.718
 7817SOL     OW33449   5.027   2.700   1.178
 7817SOL    HW133450   5.122   2.728   1.193
 7817SOL    HW233451   5.011   2.612   1.222
 7818SOL     OW33452   1.683   6.385   6.532
 7818SOL    HW133453   1.702   6.426   6.621
 7818SOL    HW233454   1.584   6.385   6.515
 7819SOL     OW33455   2.593   6.737   4.304
 7819SOL    HW133456   2.572   6.775   4.214
 7819SOL    HW233457   2.536   6.657   4.321
 7820SOL     OW33458   1.120   5.454   7.923
 7820SOL    HW133459   1.118   5.543   7.969
 7820SOL    HW233460   1.027   5.424   7.901
 7821SOL     OW33461   4.515   2.904   4.325
 7821SOL    HW133462   4.590   2.967   4.309
 7821SOL    HW233463   4.550   2.816   4.357
 7822SOL     OW33464   2.647   3.414   6.033
 7822SOL    HW133465   2.613   3.429   6.126
 7822SOL    HW233466   2.736   3.369   6.036
 7823SOL     OW33467   7.605   4.932   6.319
 7823SOL    HW133468   7.612   5.032   6.314
 7823SOL    HW233469   7.696   4.892   6.324
 7824SOL     OW33470   6.115   0.817   5.518
 7824SOL    HW133471   6.020   0.803   5.546
 7824SOL    HW233472   6.128   0.783   5.425
 7825SOL     OW33473   4.918   1.565   3.274
 7825SOL    HW133474   4.996   1.504   3.258
 7825SOL    HW233475   4.856   1.524   3.341
 7826SOL     OW33476   7.887   7.612   1.992
 7826SOL    HW133477   7.962   7.567   2.042
 7826SOL    HW233478   7.917   7.636   1.900
 7827SOL     OW33479   3.933   2.411   7.957
 7827SOL    HW133480   3.847   2.439   8.000
 7827SOL    HW233481   3.927   2.422   7.858
 7828SOL     OW33482   4.060   4.725   4.820
 7828SOL    HW133483   3.980   4.761   4.869
 7828SOL    HW233484   4.123   4.684   4.885
 7829SOL     OW33485   0.180   1.879   2.567
 7829SOL    HW133486   0.174   1.837   2.658
 7829SOL    HW233487   0.100   1.936   2.551
 7830SOL     OW33488   6.399   6.280   4.979
 7830SOL    HW133489   6.358   6.255   4.892
 7830SOL    HW233490   6.402   6.201   5.040
 7831SOL     OW33491   6.275   0.881   0.130
 7831SOL    HW133492   6.242   0.970   0.098
 7831SOL    HW233493   6.215   0.808   0.097
 7832SOL     OW33494   4.719   1.073   6.058
 7832SOL    HW133495   4.632   1.024   6.064
 7832SOL    HW233496   4.768   1.044   5.976
 7833SOL     OW33497   2.778   0.413   0.342
 7833SOL    HW133498   2.876   0.426   0.327
 7833SOL    HW233499   2.749   0.324   0.307
 7834SOL     OW33500   3.181   3.228   3.286
 7834SOL    HW133501   3.269   3.195   3.321
 7834SOL    HW233502   3.107   3.189   3.340
 7835SOL     OW33503   5.667   6.744   1.423
 7835SOL    HW133504   5.689   6.806   1.347
 7835SOL    HW233505   5.732   6.758   1.497
 7836SOL     OW33506   6.761   4.531   3.672
 7836SOL    HW133507   6.726   4.625   3.677
 7836SOL    HW233508   6.745   4.484   3.758
 7837SOL     OW33509   3.116   3.111   2.099
 7837SOL    HW133510   3.144   3.099   2.194
 7837SOL    HW233511   3.058   3.192   2.090
 7838SOL     OW33512   0.891   6.545   4.052
 7838SOL    HW133513   0.882   6.632   4.004
 7838SOL    HW233514   0.849   6.552   4.143
 7839SOL     OW33515   7.347   6.470   2.930
 7839SOL    HW133516   7.395   6.546   2.886
 7839SOL    HW233517   7.380   6.458   3.024
 7840SOL     OW33518   5.655   0.408   3.703
 7840SOL    HW133519   5.690   0.421   3.610
 7840SOL    HW233520   5.729   0.423   3.769
 7841SOL     OW33521   2.445   3.952   1.481
 7841SOL    HW133522   2.431   3.853   1.493
 7841SOL    HW233523   2.497   3.989   1.558
 7842SOL     OW33524   7.200   4.469   3.065
 7842SOL    HW133525   7.156   4.438   3.149
 7842SOL    HW233526   7.188   4.568   3.054
 7843SOL     OW33527   2.689   7.954   3.918
 7843SOL    HW133528   2.703   7.876   3.980
 7843SOL    HW233529   2.603   8.000   3.941
 7844SOL     OW33530   6.308   5.926   6.324
 7844SOL    HW133531   6.289   5.899   6.418
 7844SOL    HW233532   6.407   5.939   6.312
 7845SOL     OW33533   7.151   2.085   2.955
 7845SOL    HW133534   7.181   2.158   3.017
 7845SOL    HW233535   7.053   2.071   2.964
 7846SOL     OW33536   1.789   1.469   2.677
 7846SOL    HW133537   1.743   1.444   2.592
 7846SOL    HW233538   1.732   1.446   2.755
 7847SOL     OW33539   7.936   2.148   2.032
 7847SOL    HW133540   7.992   2.204   1.970
 7847SOL    HW233541   7.900   2.204   2.106
 7848SOL     OW33542   3.301   6.531   2.829
 7848SOL    HW133543   3.298   6.529   2.729
 7848SOL    HW233544   3.386   6.488   2.861
 7849SOL     OW33545   7.550   2.495   7.173
 7849SOL    HW133546   7.623   2.532   7.230
 7849SOL    HW233547   7.462   2.506   7.218
 7850SOL     OW33548   0.067   0.762   6.931
 7850SOL    HW133549   0.024   0.817   7.004
 7850SOL    HW233550   0.158   0.797   6.911
 7851SOL     OW33551   0.118   0.841   3.514
 7851SOL    HW133552   0.126   0.937   3.542
 7851SOL    HW233553   0.207   0.795   3.524
 7852SOL     OW33554   5.702   7.403   1.610
 7852SOL    HW133555   5.731   7.307   1.617
 7852SOL    HW233556   5.775   7.462   1.645
 7853SOL     OW33557   3.917   0.910   3.668
 7853SOL    HW133558   3.829   0.946   3.637
 7853SOL    HW233559   3.926   0.921   3.767
 7854SOL     OW33560   4.368   7.476   2.388
 7854SOL    HW133561   4.314   7.559   2.380
 7854SOL    HW233562   4.462   7.499   2.415
 7855SOL     OW33563   6.487   2.710   7.048
 7855SOL    HW133564   6.564   2.769   7.074
 7855SOL    HW233565   6.460   2.729   6.954
 7856SOL     OW33566   1.129   1.741   3.622
 7856SOL    HW133567   1.143   1.711   3.716
 7856SOL    HW233568   1.215   1.769   3.581
 7857SOL     OW33569   6.687   2.435   7.610
 7857SOL    HW133570   6.768   2.394   7.651
 7857SOL    HW233571   6.712   2.494   7.534
 7858SOL     OW33572   1.081   7.992   0.788
 7858SOL    HW133573   1.092   7.934   0.707
 7858SOL    HW233574   1.153   7.973   0.854
 7859SOL     OW33575   0.554   4.662   7.124
 7859SOL    HW133576   0.549   4.603   7.043
 7859SOL    HW233577   0.605   4.615   7.197
 7860SOL     OW33578   4.193   1.156   0.543
 7860SOL    HW133579   4.163   1.068   0.579
 7860SOL    HW233580   4.156   1.170   0.451
 7861SOL     OW33581   2.190   2.478   4.313
 7861SOL    HW133582   2.154   2.560   4.356
 7861SOL    HW233583   2.185   2.486   4.213
 7862SOL     OW33584   6.792   4.274   4.492
 7862SOL    HW133585   6.703   4.240   4.524
 7862SOL    HW233586   6.803   4.254   4.395
 7863SOL     OW33587   4.500   4.120   3.130
 7863SOL    HW133588   4.501   4.030   3.087
 7863SOL    HW233589   4.562   4.182   3.082
 7864SOL     OW33590   1.323   7.665   0.933
 7864SOL    HW133591   1.321   7.688   0.836
 7864SOL    HW233592   1.384   7.587   0.949
 7865SOL     OW33593   0.817   1.464   1.040
 7865SOL    HW133594   0.722   1.466   1.011
 7865SOL    HW233595   0.854   1.557   1.042
 7866SOL     OW33596   6.982   7.720   2.002
 7866SOL    HW133597   6.888   7.698   2.028
 7866SOL    HW233598   6.991   7.716   1.902
 7867SOL     OW33599   0.089   1.448   5.212
 7867SOL    HW133600   0.090   1.372   5.277
 7867SOL    HW233601   0.174   1.448   5.160
 7868SOL     OW33602   1.926   6.135   3.458
 7868SOL    HW133603   1.913   6.207   3.389
 7868SOL    HW233604   1.956   6.051   3.414
 7869SOL     OW33605   1.738   1.574   3.211
 7869SOL    HW133606   1.640   1.562   3.223
 7869SOL    HW233607   1.787   1.534   3.289
 7870SOL     OW33608   2.401   0.061   6.777
 7870SOL    HW133609   2.467   0.022   6.841
 7870SOL    HW233610   2.414   0.020   6.686
 7871SOL     OW33611   7.807   3.578   1.758
 7871SOL    HW133612   7.903   3.581   1.786
 7871SOL    HW233613   7.755   3.519   1.820
 7872SOL     OW33614   2.635   7.400   5.302
 7872SOL    HW133615   2.550   7.369   5.343
 7872SOL    HW233616   2.635   7.379   5.204
 7873SOL     OW33617   2.494   0.336   2.612
 7873SOL    HW133618   2.438   0.417   2.629
 7873SOL    HW233619   2.571   0.335   2.677
 7874SOL     OW33620   6.270   3.903   7.349
 7874SOL    HW133621   6.198   3.911   7.280
 7874SOL    HW233622   6.359   3.924   7.308
 7875SOL     OW33623   3.227   4.760   7.759
 7875SOL    HW133624   3.236   4.795   7.853
 7875SOL    HW233625   3.296   4.691   7.742
 7876SOL     OW33626   6.488   0.853   5.202
 7876SOL    HW133627   6.441   0.933   5.164
 7876SOL    HW233628   6.486   0.856   5.302
 7877SOL     OW33629   3.562   0.441   3.943
 7877SOL    HW133630   3.467   0.452   3.973
 7877SOL    HW233631   3.623   0.434   4.023
 7878SOL     OW33632   2.997   4.690   1.746
 7878SOL    HW133633   3.020   4.787   1.730
 7878SOL    HW233634   3.080   4.636   1.754
 7879SOL     OW33635   1.695   1.677   6.652
 7879SOL    HW133636   1.607   1.725   6.651
 7879SOL    HW233637   1.769   1.740   6.630
 7880SOL     OW33638   2.229   7.116   2.098
 7880SOL    HW133639   2.181   7.059   2.164
 7880SOL    HW233640   2.281   7.058   2.035
 7881SOL     OW33641   6.212   4.255   0.759
 7881SOL    HW133642   6.142   4.302   0.812
 7881SOL    HW233643   6.180   4.242   0.665
 7882SOL     OW33644   2.411   2.323   4.680
 7882SOL    HW133645   2.314   2.304   4.694
 7882SOL    HW233646   2.466   2.269   4.744
 7883SOL     OW33647   5.537   0.956   0.532
 7883SOL    HW133648   5.595   0.917   0.604
 7883SOL    HW233649   5.594   0.994   0.459
 7884SOL     OW33650   1.461   4.915   5.332
 7884SOL    HW133651   1.401   4.874   5.263
 7884SOL    HW233652   1.544   4.860   5.342
 7885SOL     OW33653   0.769   2.469   7.906
 7885SOL    HW133654   0.862   2.487   7.874
 7885SOL    HW233655   0.748   2.525   7.986
 7886SOL     OW33656   2.939   2.363   3.545
 7886SOL    HW133657   2.875   2.387   3.472
 7886SOL    HW233658   3.032   2.359   3.509
 7887SOL     OW33659   4.765   6.854   3.093
 7887SOL    HW133660   4.706   6.783   3.056
 7887SOL    HW233661   4.735   6.880   3.185
 7888SOL     OW33662   7.524   6.098   5.141
 7888SOL    HW133663   7.432   6.089   5.102
 7888SOL    HW233664   7.534   6.188   5.183
 7889SOL     OW33665   6.802   6.892   5.517
 7889SOL    HW133666   6.850   6.859   5.436
 7889SOL    HW233667   6.850   6.970   5.556
 7890SOL     OW33668   5.822   4.756   5.949
 7890SOL    HW133669   5.792   4.675   5.999
 7890SOL    HW233670   5.917   4.745   5.920
 7891SOL     OW33671   5.871   6.824   6.451
 7891SOL    HW133672   5.773   6.826   6.428
 7891SOL    HW233673   5.923   6.783   6.376
 7892SOL     OW33674   6.852   6.817   2.299
 7892SOL    HW133675   6.810   6.739   2.253
 7892SOL    HW233676   6.812   6.830   2.390
 7893SOL     OW33677   3.274   2.312   7.351
 7893SOL    HW133678   3.190   2.317   7.405
 7893SOL    HW233679   3.295   2.402   7.312
 7894SOL     OW33680   5.191   4.786   0.431
 7894SOL    HW133681   5.212   4.878   0.464
 7894SOL    HW233682   5.219   4.776   0.336
 7895SOL     OW33683   5.991   0.904   0.221
 7895SOL    HW133684   6.084   0.928   0.246
 7895SOL    HW233685   5.988   0.876   0.125
 7896SOL     OW33686   5.935   5.281   6.461
 7896SOL    HW133687   5.885   5.225   6.395
 7896SOL    HW233688   6.031   5.286   6.436
 7897SOL     OW33689   4.376   2.963   1.873
 7897SOL    HW133690   4.379   3.052   1.828
 7897SOL    HW233691   4.443   2.901   1.832
 7898SOL     OW33692   7.653   5.487   3.870
 7898SOL    HW133693   7.697   5.416   3.924
 7898SOL    HW233694   7.713   5.515   3.795
 7899SOL     OW33695   4.745   0.277   1.109
 7899SOL    HW133696   4.743   0.325   1.021
 7899SOL    HW233697   4.694   0.192   1.102
 7900SOL     OW33698   3.538   2.097   4.893
 7900SOL    HW133699   3.586   2.009   4.889
 7900SOL    HW233700   3.445   2.084   4.926
 7901SOL     OW33701   5.085   6.516   1.581
 7901SOL    HW133702   5.131   6.598   1.548
 7901SOL    HW233703   4.990   6.515   1.550
 7902SOL     OW33704   1.378   6.326   2.272
 7902SOL    HW133705   1.428   6.413   2.261
 7902SOL    HW233706   1.442   6.254   2.299
 7903SOL     OW33707   1.472   1.728   4.126
 7903SOL    HW133708   1.480   1.692   4.033
 7903SOL    HW233709   1.388   1.782   4.135
 7904SOL     OW33710   3.765   4.209   3.030
 7904SOL    HW133711   3.733   4.115   3.016
 7904SOL    HW233712   3.720   4.248   3.110
 7905SOL     OW33713   0.759   5.850   3.407
 7905SOL    HW133714   0.801   5.938   3.431
 7905SOL    HW233715   0.802   5.813   3.325
 7906SOL     OW33716   4.095   5.307   7.268
 7906SOL    HW133717   4.040   5.375   7.218
 7906SOL    HW233718   4.080   5.316   7.366
 7907SOL     OW33719   6.266   3.382   7.182
 7907SOL    HW133720   6.317   3.434   7.112
 7907SOL    HW233721   6.311   3.294   7.198
 7908SOL     OW33722   2.499   7.373   4.924
 7908SOL    HW133723   2.460   7.459   4.890
 7908SOL    HW233724   2.566   7.392   4.996
 7909SOL     OW33725   7.186   6.951   2.439
 7909SOL    HW133726   7.117   7.000   2.385
 7909SOL    HW233727   7.181   6.979   2.535
 7910SOL     OW33728   1.574   5.576   6.461
 7910SOL    HW133729   1.580   5.487   6.416
 7910SOL    HW233730   1.510   5.571   6.537
 7911SOL     OW33731   5.610   6.274   4.726
 7911SOL    HW133732   5.638   6.260   4.821
 7911SOL    HW233733   5.551   6.354   4.719
 7912SOL     OW33734   5.458   1.362   7.327
 7912SOL    HW133735   5.421   1.371   7.235
 7912SOL    HW233736   5.385   1.341   7.392
 7913SOL     OW33737   4.708   1.049   3.847
 7913SOL    HW133738   4.620   1.093   3.829
 7913SOL    HW233739   4.752   1.024   3.760
 7914SOL     OW33740   3.114   0.924   4.271
 7914SOL    HW133741   3.209   0.899   4.291
 7914SOL    HW233742   3.106   0.954   4.176
 7915SOL     OW33743   7.430   7.018   5.953
 7915SOL    HW133744   7.362   7.041   6.023
 7915SOL    HW233745   7.398   7.049   5.864
 7916SOL     OW33746   5.036   1.191   4.510
 7916SOL    HW133747   5.066   1.158   4.421
 7916SOL    HW233748   4.953   1.143   4.539
 7917SOL     OW33749   4.436   6.847   3.208
 7917SOL    HW133750   4.405   6.942   3.215
 7917SOL    HW233751   4.511   6.840   3.143
 7918SOL     OW33752   3.176   2.381   1.738
 7918SOL    HW133753   3.255   2.324   1.760
 7918SOL    HW233754   3.206   2.467   1.696
 7919SOL     OW33755   1.563   0.072   3.023
 7919SOL    HW133756   1.494  -0.000   3.029
 7919SOL    HW233757   1.627   0.052   2.949
 7920SOL     OW33758   6.454   6.030   5.823
 7920SOL    HW133759   6.359   6.007   5.801
 7920SOL    HW233760   6.458   6.110   5.883
 7921SOL     OW33761   6.519   7.448   4.339
 7921SOL    HW133762   6.481   7.504   4.266
 7921SOL    HW233763   6.500   7.352   4.321
 7922SOL     OW33764   0.425   7.602   6.132
 7922SOL    HW133765   0.465   7.618   6.042
 7922SOL    HW233766   0.487   7.635   6.203
 7923SOL     OW33767   5.864   2.964   1.052
 7923SOL    HW133768   5.810   2.912   1.120
 7923SOL    HW233769   5.961   2.944   1.064
 7924SOL     OW33770   1.887   5.872   0.431
 7924SOL    HW133771   1.791   5.872   0.400
 7924SOL    HW233772   1.892   5.903   0.525
 7925SOL     OW33773   0.207   0.481   0.370
 7925SOL    HW133774   0.283   0.417   0.380
 7925SOL    HW233775   0.147   0.452   0.296
 7926SOL     OW33776   2.082   5.409   6.061
 7926SOL    HW133777   2.075   5.320   6.107
 7926SOL    HW233778   2.161   5.411   6.000
 7927SOL     OW33779  -0.000   2.630   6.898
 7927SOL    HW133780   0.002   2.717   6.849
 7927SOL    HW233781   0.006   2.646   6.996
 7928SOL     OW33782   2.562   4.963   2.190
 7928SOL    HW133783   2.588   5.030   2.260
 7928SOL    HW233784   2.477   4.917   2.217
 7929SOL     OW33785   1.942   3.831   0.208
 7929SOL    HW133786   1.856   3.868   0.243
 7929SOL    HW233787   2.018   3.864   0.264
 7930SOL     OW33788   5.928   0.357   3.055
 7930SOL    HW133789   5.838   0.381   3.090
 7930SOL    HW233790   5.919   0.322   2.961
 7931SOL     OW33791   5.558   2.459   4.120
 7931SOL    HW133792   5.538   2.481   4.025
 7931SOL    HW233793   5.581   2.362   4.129
 7932SOL     OW33794   2.952   7.112   5.722
 7932SOL    HW133795   2.954   7.212   5.729
 7932SOL    HW233796   2.982   7.084   5.630
 7933SOL     OW33797   7.485   3.828   6.649
 7933SOL    HW133798   7.528   3.738   6.662
 7933SOL    HW233799   7.554   3.899   6.660
 7934SOL     OW33800   7.279   6.809   5.270
 7934SOL    HW133801   7.193   6.860   5.267
 7934SOL    HW233802   7.349   6.861   5.318
 7935SOL     OW33803   5.515   2.142   3.774
 7935SOL    HW133804   5.455   2.208   3.819
 7935SOL    HW233805   5.487   2.129   3.679
 7936SOL     OW33806   7.479   7.863   5.499
 7936SOL    HW133807   7.556   7.893   5.555
 7936SOL    HW233808   7.512   7.823   5.413
 7937SOL     OW33809   4.659   6.500   2.189
 7937SOL    HW133810   4.677   6.570   2.119
 7937SOL    HW233811   4.612   6.422   2.147
 7938SOL     OW33812   0.503   0.689   1.059
 7938SOL    HW133813   0.420   0.716   1.109
 7938SOL    HW233814   0.478   0.638   0.978
 7939SOL     OW33815   7.250   2.971   3.141
 7939SOL    HW133816   7.262   3.057   3.091
 7939SOL    HW233817   7.246   2.989   3.239
 7940SOL     OW33818   6.226   4.761   5.189
 7940SOL    HW133819   6.321   4.791   5.188
 7940SOL    HW233820   6.216   4.675   5.139
 7941SOL     OW33821   3.586   0.624   1.399
 7941SOL    HW133822   3.598   0.708   1.345
 7941SOL    HW233823   3.558   0.648   1.492
 7942SOL     OW33824   1.106   5.902   4.808
 7942SOL    HW133825   1.193   5.854   4.800
 7942SOL    HW233826   1.051   5.861   4.881
 7943SOL     OW33827   0.857   4.884   0.069
 7943SOL    HW133828   0.817   4.974   0.086
 7943SOL    HW233829   0.796   4.813   0.105
 7944SOL     OW33830   5.143   1.966   2.604
 7944SOL    HW133831   5.093   2.049   2.580
 7944SOL    HW233832   5.152   1.908   2.523
 7945SOL     OW33833   2.053   1.313   3.335
 7945SOL    HW133834   2.038   1.321   3.434
 7945SOL    HW233835   1.969   1.281   3.290
 7946SOL     OW33836   4.188   5.618   3.455
 7946SOL    HW133837   4.185   5.525   3.492
 7946SOL    HW233838   4.110   5.670   3.487
 7947SOL     OW33839   4.556   6.025   6.617
 7947SOL    HW133840   4.614   5.991   6.543
 7947SOL    HW233841   4.576   5.975   6.701
 7948SOL     OW33842   4.207   1.709   4.932
 7948SOL    HW133843   4.247   1.794   4.964
 7948SOL    HW233844   4.200   1.710   4.832
 7949SOL     OW33845   1.676   7.512   5.557
 7949SOL    HW133846   1.619   7.433   5.535
 7949SOL    HW233847   1.635   7.595   5.519
 7950SOL     OW33848   6.445   2.789   2.661
 7950SOL    HW133849   6.544   2.791   2.675
 7950SOL    HW233850   6.423   2.805   2.565
 7951SOL     OW33851   0.753   1.072   6.867
 7951SOL    HW133852   0.707   1.133   6.803
 7951SOL    HW233853   0.753   1.112   6.958
 7952SOL     OW33854   3.939   7.092   6.191
 7952SOL    HW133855   3.932   7.071   6.093
 7952SOL    HW233856   3.978   7.015   6.240
 7953SOL     OW33857   3.379   1.342   1.958
 7953SOL    HW133858   3.339   1.366   1.869
 7953SOL    HW233859   3.334   1.261   1.996
 7954SOL     OW33860   1.542   1.225   4.512
 7954SOL    HW133861   1.622   1.286   4.512
 7954SOL    HW233862   1.488   1.240   4.429
 7955SOL     OW33863   1.779   7.399   0.816
 7955SOL    HW133864   1.841   7.320   0.805
 7955SOL    HW233865   1.688   7.376   0.782
 7956SOL     OW33866   3.313   1.310   2.993
 7956SOL    HW133867   3.403   1.351   3.006
 7956SOL    HW233868   3.262   1.363   2.925
 7957SOL     OW33869   3.150   2.635   2.217
 7957SOL    HW133870   3.123   2.731   2.220
 7957SOL    HW233871   3.125   2.595   2.129
 7958SOL     OW33872   1.309   4.837   6.662
 7958SOL    HW133873   1.373   4.792   6.724
 7958SOL    HW233874   1.359   4.884   6.590
 7959SOL     OW33875   2.786   1.373   5.032
 7959SOL    HW133876   2.878   1.362   4.993
 7959SOL    HW233877   2.789   1.357   5.130
 7960SOL     OW33878   4.536   5.416   0.292
 7960SOL    HW133879   4.464   5.392   0.356
 7960SOL    HW233880   4.497   5.462   0.212
 7961SOL     OW33881   4.780   7.284   7.100
 7961SOL    HW133882   4.809   7.231   7.180
 7961SOL    HW233883   4.738   7.370   7.129
 7962SOL     OW33884   4.624   3.639   7.822
 7962SOL    HW133885   4.572   3.718   7.788
 7962SOL    HW233886   4.658   3.658   7.914
 7963SOL     OW33887   6.375   4.161   0.513
 7963SOL    HW133888   6.389   4.067   0.481
 7963SOL    HW233889   6.385   4.165   0.612
 7964SOL     OW33890   1.059   2.798   3.594
 7964SOL    HW133891   0.975   2.789   3.648
 7964SOL    HW233892   1.136   2.758   3.644
 7965SOL     OW33893   5.979   3.856   6.442
 7965SOL    HW133894   5.945   3.899   6.525
 7965SOL    HW233895   5.937   3.898   6.361
 7966SOL     OW33896   3.322   2.666   6.754
 7966SOL    HW133897   3.308   2.752   6.802
 7966SOL    HW233898   3.268   2.665   6.669
 7967SOL     OW33899   5.513   5.687   5.105
 7967SOL    HW133900   5.486   5.780   5.080
 7967SOL    HW233901   5.559   5.686   5.193
 7968SOL     OW33902   7.365   4.206   0.247
 7968SOL    HW133903   7.269   4.209   0.277
 7968SOL    HW233904   7.425   4.195   0.327
 7969SOL     OW33905   2.013   1.261   2.808
 7969SOL    HW133906   1.922   1.237   2.775
 7969SOL    HW233907   2.024   1.361   2.809
 7970SOL     OW33908   6.963   2.868   3.041
 7970SOL    HW133909   6.916   2.782   3.062
 7970SOL    HW233910   6.926   2.943   3.095
 7971SOL     OW33911   1.312   6.787   7.537
 7971SOL    HW133912   1.349   6.821   7.623
 7971SOL    HW233913   1.385   6.745   7.484
 7972SOL     OW33914   1.966   0.944   2.017
 7972SOL    HW133915   1.885   0.891   2.043
 7972SOL    HW233916   1.984   0.932   1.919
 7973SOL     OW33917   2.509   0.841   1.427
 7973SOL    HW133918   2.587   0.832   1.365
 7973SOL    HW233919   2.497   0.756   1.478
 7974SOL     OW33920   5.546   0.690   2.174
 7974SOL    HW133921   5.585   0.641   2.095
 7974SOL    HW233922   5.491   0.627   2.229
 7975SOL     OW33923   7.480   2.981   4.003
 7975SOL    HW133924   7.380   2.974   4.009
 7975SOL    HW233925   7.518   2.895   3.971
 7976SOL     OW33926   5.725   1.825   2.962
 7976SOL    HW133927   5.696   1.729   2.957
 7976SOL    HW233928   5.815   1.835   2.920
 7977SOL     OW33929   2.955   1.738   0.582
 7977SOL    HW133930   3.044   1.715   0.622
 7977SOL    HW233931   2.968   1.785   0.495
 7978SOL     OW33932   2.812   1.804   0.983
 7978SOL    HW133933   2.756   1.820   1.065
 7978SOL    HW233934   2.883   1.874   0.976
 7979SOL     OW33935   0.291   7.959   5.755
 7979SOL    HW133936   0.325   7.868   5.780
 7979SOL    HW233937   0.352   8.000   5.687
 7980SOL     OW33938   1.850   1.525   0.106
 7980SOL    HW133939   1.763   1.531   0.156
 7980SOL    HW233940   1.925   1.510   0.170
 7981SOL     OW33941   7.532   0.197   0.763
 7981SOL    HW133942   7.618   0.239   0.791
 7981SOL    HW233943   7.531   0.100   0.787
 7982SOL     OW33944   0.054   1.988   0.430
 7982SOL    HW133945   0.141   1.943   0.451
 7982SOL    HW233946   0.070   2.085   0.411
 7983SOL     OW33947   3.541   7.657   0.616
 7983SOL    HW133948   3.612   7.721   0.643
 7983SOL    HW233949   3.467   7.656   0.683
 7984SOL     OW33950   6.942   2.043   1.570
 7984SOL    HW133951   6.975   2.095   1.491
 7984SOL    HW233952   6.869   2.095   1.616
 7985SOL     OW33953   1.744   1.140   7.066
 7985SOL    HW133954   1.774   1.140   7.161
 7985SOL    HW233955   1.698   1.226   7.045
 7986SOL     OW33956   4.667   1.000   7.668
 7986SOL    HW133957   4.654   1.087   7.619
 7986SOL    HW233958   4.731   1.013   7.744
 7987SOL     OW33959   4.391   4.192   6.171
 7987SOL    HW133960   4.309   4.188   6.114
 7987SOL    HW233961   4.438   4.104   6.170
 7988SOL     OW33962   3.546   4.874   7.228
 7988SOL    HW133963   3.595   4.801   7.180
 7988SOL    HW233964   3.611   4.940   7.265
 7989SOL     OW33965   1.065   2.978   0.096
 7989SOL    HW133966   1.021   3.067   0.086
 7989SOL    HW233967   1.164   2.988   0.098
 7990SOL     OW33968   7.504   0.991   6.500
 7990SOL    HW133969   7.577   0.924   6.485
 7990SOL    HW233970   7.455   0.970   6.585
 7991SOL     OW33971   6.436   1.746   7.123
 7991SOL    HW133972   6.447   1.651   7.094
 7991SOL    HW233973   6.526   1.788   7.136
 7992SOL     OW33974   6.949   1.600   2.820
 7992SOL    HW133975   6.870   1.582   2.879
 7992SOL    HW233976   7.006   1.518   2.814
 7993SOL     OW33977   6.163   4.497   2.303
 7993SOL    HW133978   6.261   4.507   2.322
 7993SOL    HW233979   6.130   4.578   2.255
 7994SOL     OW33980   2.665   5.969   3.814
 7994SOL    HW133981   2.650   6.062   3.849
 7994SOL    HW233982   2.580   5.934   3.774
 7995SOL     OW33983   0.159   0.042   1.175
 7995SOL    HW133984   0.238  -0.000   1.221
 7995SOL    HW233985   0.184   0.069   1.082
 7996SOL     OW33986   1.614   2.264   2.123
 7996SOL    HW133987   1.530   2.247   2.071
 7996SOL    HW233988   1.591   2.308   2.210
 7997SOL     OW33989   2.150   6.135   2.471
 7997SOL    HW133990   2.106   6.218   2.507
 7997SOL    HW233991   2.109   6.111   2.383
 7998SOL     OW33992   1.493   6.757   3.216
 7998SOL    HW133993   1.450   6.675   3.179
 7998SOL    HW233994   1.467   6.771   3.311
 7999SOL     OW33995   0.067   5.975   3.741
 7999SOL    HW133996   0.163   5.961   3.715
 7999SOL    HW233997   0.061   5.999   3.838
 8000SOL     OW33998   6.802   1.874   7.214
 8000SOL    HW133999   6.871   1.827   7.159
 8000SOL    HW234000   6.739   1.807   7.255
 8001SOL     OW34001   7.119   5.559   3.618
 8001SOL    HW134002   7.072   5.481   3.661
 8001SOL    HW234003   7.172   5.528   3.540
 8002SOL     OW34004   4.651   5.757   1.130
 8002SOL    HW134005   4.609   5.828   1.187
 8002SOL    HW234006   4.581   5.694   1.096
 8003SOL     OW34007   1.005   2.500   0.798
 8003SOL    HW134008   0.915   2.529   0.764
 8003SOL    HW234009   1.019   2.533   0.891
 8004SOL     OW34010   7.521   2.264   3.851
 8004SOL    HW134011   7.452   2.191   3.845
 8004SOL    HW234012   7.609   2.230   3.818
 8005SOL     OW34013   1.334   0.022   5.487
 8005SOL    HW134014   1.263   0.071   5.537
 8005SOL    HW234015   1.356   0.069   5.402
 8006SOL     OW34016   3.701   6.963   2.503
 8006SOL    HW134017   3.644   6.881   2.510
 8006SOL    HW234018   3.734   6.974   2.409
 8007SOL     OW34019   3.394   5.971   1.388
 8007SOL    HW134020   3.337   6.053   1.396
 8007SOL    HW234021   3.464   5.971   1.459
 8008SOL     OW34022   5.824   7.274   6.918
 8008SOL    HW134023   5.907   7.311   6.877
 8008SOL    HW234024   5.844   7.191   6.969
 8009SOL     OW34025   4.909   1.067   0.463
 8009SOL    HW134026   4.945   1.065   0.370
 8009SOL    HW234027   4.965   1.127   0.520
 8010SOL     OW34028   3.509   1.744   3.198
 8010SOL    HW134029   3.539   1.839   3.205
 8010SOL    HW234030   3.490   1.707   3.289
 8011SOL     OW34031   3.015   5.093   2.477
 8011SOL    HW134032   2.920   5.122   2.487
 8011SOL    HW234033   3.067   5.117   2.559
 8012SOL     OW34034   5.933   7.958   6.322
 8012SOL    HW134035   5.906   7.892   6.252
 8012SOL    HW234036   6.020   8.000   6.298
 8013SOL     OW34037   7.185   1.915   1.471
 8013SOL    HW134038   7.092   1.898   1.502
 8013SOL    HW234039   7.212   2.009   1.494
 8014SOL     OW34040   0.906   3.049   1.725
 8014SOL    HW134041   0.819   3.087   1.757
 8014SOL    HW234042   0.890   2.972   1.665
 8015SOL     OW34043   7.194   0.896   6.834
 8015SOL    HW134044   7.148   0.813   6.865
 8015SOL    HW234045   7.262   0.874   6.764
 8016SOL     OW34046   4.324   7.042   4.078
 8016SOL    HW134047   4.275   7.125   4.104
 8016SOL    HW234048   4.356   6.994   4.159
 8017SOL     OW34049   5.251   1.203   7.187
 8017SOL    HW134050   5.342   1.161   7.178
 8017SOL    HW234051   5.229   1.216   7.284
 8018SOL     OW34052   7.509   5.485   0.265
 8018SOL    HW134053   7.421   5.527   0.289
 8018SOL    HW234054   7.496   5.414   0.196
 8019SOL     OW34055   1.205   6.808   3.541
 8019SOL    HW134056   1.202   6.736   3.471
 8019SOL    HW234057   1.166   6.892   3.504
 8020SOL     OW34058   4.614   5.650   2.794
 8020SOL    HW134059   4.542   5.716   2.776
 8020SOL    HW234060   4.576   5.557   2.796
 8021SOL     OW34061   6.955   1.474   6.087
 8021SOL    HW134062   7.017   1.438   6.018
 8021SOL    HW234063   6.874   1.415   6.095
 8022SOL     OW34064   4.190   1.527   5.556
 8022SOL    HW134065   4.172   1.501   5.651
 8022SOL    HW234066   4.261   1.597   5.554
 8023SOL     OW34067   3.548   4.761   2.667
 8023SOL    HW134068   3.531   4.670   2.707
 8023SOL    HW234069   3.586   4.751   2.575
 8024SOL     OW34070   6.298   5.980   4.932
 8024SOL    HW134071   6.296   5.930   5.019
 8024SOL    HW234072   6.274   5.919   4.857
 8025SOL     OW34073   3.658   3.778   0.520
 8025SOL    HW134074   3.635   3.710   0.589
 8025SOL    HW234075   3.746   3.757   0.478
 8026SOL     OW34076   0.356   5.377   2.988
 8026SOL    HW134077   0.420   5.342   3.057
 8026SOL    HW234078   0.272   5.406   3.032
 8027SOL     OW34079   2.021   1.946   4.640
 8027SOL    HW134080   1.952   1.885   4.678
 8027SOL    HW234081   2.093   1.963   4.708
 8028SOL     OW34082   3.215   6.735   3.283
 8028SOL    HW134083   3.121   6.759   3.259
 8028SOL    HW234084   3.215   6.665   3.355
 8029SOL     OW34085   0.918   7.950   1.600
 8029SOL    HW134086   0.933   7.864   1.649
 8029SOL    HW234087   0.951   7.941   1.506
 8030SOL     OW34088   0.698   1.916   0.915
 8030SOL    HW134089   0.663   1.853   0.984
 8030SOL    HW234090   0.759   1.868   0.851
 8031SOL     OW34091   6.336   7.924   2.959
 8031SOL    HW134092   6.332   7.831   2.924
 8031SOL    HW234093   6.303   7.927   3.053
 8032SOL     OW34094   7.301   2.978   0.160
 8032SOL    HW134095   7.336   3.072   0.167
 8032SOL    HW234096   7.202   2.980   0.147
 8033SOL     OW34097   5.695   0.616   2.931
 8033SOL    HW134098   5.656   0.551   2.996
 8033SOL    HW234099   5.665   0.593   2.838
 8034SOL     OW34100   6.912   2.999   1.053
 8034SOL    HW134101   6.912   3.081   0.996
 8034SOL    HW234102   6.860   3.016   1.137
 8035SOL     OW34103   3.707   1.233   1.562
 8035SOL    HW134104   3.641   1.161   1.584
 8035SOL    HW234105   3.715   1.296   1.639
 8036SOL     OW34106   3.647   4.959   5.420
 8036SOL    HW134107   3.566   4.930   5.368
 8036SOL    HW234108   3.708   4.881   5.434
 8037SOL     OW34109   4.586   2.751   3.810
 8037SOL    HW134110   4.582   2.698   3.726
 8037SOL    HW234111   4.655   2.713   3.871
 8038SOL     OW34112   4.301   3.174   5.580
 8038SOL    HW134113   4.237   3.172   5.657
 8038SOL    HW234114   4.361   3.253   5.587
 8039SOL     OW34115   4.614   1.048   0.108
 8039SOL    HW134116   4.648   1.130   0.064
 8039SOL    HW234117   4.673   1.022   0.184
 8040SOL     OW34118   6.524   6.045   2.463
 8040SOL    HW134119   6.545   6.141   2.485
 8040SOL    HW234120   6.475   6.040   2.376
 8041SOL     OW34121   1.427   6.566   3.799
 8041SOL    HW134122   1.338   6.585   3.758
 8041SOL    HW234123   1.423   6.580   3.898
 8042SOL     OW34124   6.200   2.472   1.311
 8042SOL    HW134125   6.122   2.449   1.369
 8042SOL    HW234126   6.242   2.557   1.342
 8043SOL     OW34127   4.145   0.172   5.878
 8043SOL    HW134128   4.157   0.083   5.834
 8043SOL    HW234129   4.064   0.218   5.841
 8044SOL     OW34130   4.881   3.722   2.763
 8044SOL    HW134131   4.929   3.791   2.708
 8044SOL    HW234132   4.863   3.757   2.854
 8045SOL     OW34133   0.158   3.424   1.513
 8045SOL    HW134134   0.088   3.353   1.506
 8045SOL    HW234135   0.207   3.414   1.599
 8046SOL     OW34136   7.389   7.043   2.279
 8046SOL    HW134137   7.430   6.955   2.304
 8046SOL    HW234138   7.408   7.063   2.183
 8047SOL     OW34139   0.188   5.473   6.210
 8047SOL    HW134140   0.127   5.461   6.289
 8047SOL    HW234141   0.159   5.551   6.156
 8048SOL     OW34142   7.335   0.448   3.781
 8048SOL    HW134143   7.327   0.386   3.703
 8048SOL    HW234144   7.289   0.409   3.860
 8049SOL     OW34145   7.719   7.263   6.480
 8049SOL    HW134146   7.621   7.252   6.497
 8049SOL    HW234147   7.735   7.280   6.382
 8050SOL     OW34148   2.850   3.647   7.300
 8050SOL    HW134149   2.812   3.611   7.214
 8050SOL    HW234150   2.823   3.743   7.311
 8051SOL     OW34151   6.513   2.073   7.259
 8051SOL    HW134152   6.425   2.072   7.212
 8051SOL    HW234153   6.587   2.053   7.195
 8052SOL     OW34154   5.808   1.931   1.551
 8052SOL    HW134155   5.745   1.916   1.475
 8052SOL    HW234156   5.778   2.010   1.605
 8053SOL     OW34157   6.917   3.298   5.020
 8053SOL    HW134158   6.877   3.227   4.963
 8053SOL    HW234159   6.904   3.388   4.977
 8054SOL     OW34160   1.900   2.839   3.905
 8054SOL    HW134161   1.927   2.908   3.838
 8054SOL    HW234162   1.860   2.759   3.859
 8055SOL     OW34163   3.835   0.525   3.065
 8055SOL    HW134164   3.852   0.622   3.083
 8055SOL    HW234165   3.881   0.469   3.134
 8056SOL     OW34166   4.119   0.655   5.929
 8056SOL    HW134167   4.128   0.578   5.865
 8056SOL    HW234168   4.141   0.624   6.021
 8057SOL     OW34169   6.329   7.793   7.416
 8057SOL    HW134170   6.273   7.719   7.380
 8057SOL    HW234171   6.299   7.818   7.508
 8058SOL     OW34172   4.559   4.086   7.035
 8058SOL    HW134173   4.562   4.032   6.950
 8058SOL    HW234174   4.528   4.179   7.015
 8059SOL     OW34175   5.488   5.123   7.927
 8059SOL    HW134176   5.586   5.131   7.948
 8059SOL    HW234177   5.444   5.213   7.935
 8060SOL     OW34178   1.890   1.042   3.497
 8060SOL    HW134179   1.808   1.059   3.442
 8060SOL    HW234180   1.876   1.075   3.590
 8061SOL     OW34181   7.260   4.515   0.449
 8061SOL    HW134182   7.309   4.595   0.413
 8061SOL    HW234183   7.293   4.494   0.542
 8062SOL     OW34184   6.054   4.735   7.747
 8062SOL    HW134185   6.049   4.835   7.749
 8062SOL    HW234186   6.148   4.705   7.760
 8063SOL     OW34187  -0.000   3.154   0.070
 8063SOL    HW134188   0.083   3.166   0.016
 8063SOL    HW234189   0.020   3.169   0.167
 8064SOL     OW34190   4.831   5.101   0.964
 8064SOL    HW134191   4.859   5.153   0.883
 8064SOL    HW234192   4.771   5.158   1.021
 8065SOL     OW34193   1.166   0.828   1.404
 8065SOL    HW134194   1.265   0.845   1.413
 8065SOL    HW234195   1.122   0.840   1.493
 8066SOL     OW34196   0.798   7.908   0.934
 8066SOL    HW134197   0.824   8.000   0.963
 8066SOL    HW234198   0.763   7.910   0.840
 8067SOL     OW34199   3.953   6.810   6.788
 8067SOL    HW134200   3.858   6.802   6.817
 8067SOL    HW234201   3.997   6.886   6.835
 8068SOL     OW34202   6.921   7.913   3.433
 8068SOL    HW134203   6.979   7.856   3.492
 8068SOL    HW234204   6.970   7.935   3.348
 8069SOL     OW34205   4.669   3.871   1.381
 8069SOL    HW134206   4.737   3.934   1.343
 8069SOL    HW234207   4.697   3.842   1.472
 8070SOL     OW34208   0.921   0.430   2.260
 8070SOL    HW134209   0.830   0.418   2.301
 8070SOL    HW234210   0.935   0.363   2.187
 8071SOL     OW34211   6.550   7.016   6.348
 8071SOL    HW134212   6.645   6.987   6.341
 8071SOL    HW234213   6.509   6.977   6.431
 8072SOL     OW34214   6.158   4.599   7.988
 8072SOL    HW134215   6.138   4.696   8.000
 8072SOL    HW234216   6.255   4.587   7.965
 8073SOL     OW34217   5.033   6.656   6.538
 8073SOL    HW134218   5.082   6.569   6.529
 8073SOL    HW234219   5.010   6.691   6.448
 8074SOL     OW34220   7.720   7.847   7.898
 8074SOL    HW134221   7.707   7.825   7.801
 8074SOL    HW234222   7.639   7.896   7.932
 8075SOL     OW34223   1.194   3.234   7.626
 8075SOL    HW134224   1.260   3.168   7.590
 8075SOL    HW234225   1.225   3.328   7.607
 8076SOL     OW34226   2.905   3.453   3.896
 8076SOL    HW134227   2.995   3.486   3.924
 8076SOL    HW234228   2.887   3.477   3.800
 8077SOL     OW34229   3.375   0.118   7.899
 8077SOL    HW134230   3.434   0.198   7.892
 8077SOL    HW234231   3.369   0.072   7.811
 8078SOL     OW34232   2.543   6.109   1.357
 8078SOL    HW134233   2.528   6.198   1.399
 8078SOL    HW234234   2.463   6.050   1.371
 8079SOL     OW34235   6.829   5.285   3.231
 8079SOL    HW134236   6.924   5.273   3.202
 8079SOL    HW234237   6.774   5.319   3.155
 8080SOL     OW34238   2.859   2.249   2.806
 8080SOL    HW134239   2.810   2.304   2.874
 8080SOL    HW234240   2.900   2.309   2.737
 8081SOL     OW34241   2.350   0.091   4.350
 8081SOL    HW134242   2.325   0.188   4.355
 8081SOL    HW234243   2.301   0.047   4.275
 8082SOL     OW34244   0.677   4.081   5.843
 8082SOL    HW134245   0.724   4.165   5.868
 8082SOL    HW234246   0.613   4.098   5.768
 8083SOL     OW34247   2.021   6.969   6.667
 8083SOL    HW134248   2.002   6.871   6.655
 8083SOL    HW234249   1.992   7.019   6.585
 8084SOL     OW34250   3.838   5.643   4.640
 8084SOL    HW134251   3.874   5.567   4.695
 8084SOL    HW234252   3.809   5.609   4.551
 8085SOL     OW34253   0.435   4.948   5.644
 8085SOL    HW134254   0.486   5.019   5.596
 8085SOL    HW234255   0.338   4.952   5.619
 8086SOL     OW34256   4.735   1.528   2.028
 8086SOL    HW134257   4.770   1.477   1.949
 8086SOL    HW234258   4.762   1.482   2.113
 8087SOL     OW34259   4.655   3.252   1.070
 8087SOL    HW134260   4.729   3.245   1.002
 8087SOL    HW234261   4.639   3.349   1.092
 8088SOL     OW34262   4.357   3.866   6.725
 8088SOL    HW134263   4.330   3.954   6.763
 8088SOL    HW234264   4.317   3.854   6.634
 8089SOL     OW34265   2.327   0.702   7.014
 8089SOL    HW134266   2.314   0.772   6.944
 8089SOL    HW234267   2.421   0.706   7.048
 8090SOL     OW34268   3.436   1.644   1.252
 8090SOL    HW134269   3.504   1.706   1.290
 8090SOL    HW234270   3.352   1.694   1.232
 8091SOL     OW34271   6.860   6.394   1.742
 8091SOL    HW134272   6.838   6.396   1.644
 8091SOL    HW234273   6.823   6.312   1.784
 8092SOL     OW34274   0.931   6.400   5.936
 8092SOL    HW134275   0.954   6.471   6.003
 8092SOL    HW234276   0.838   6.415   5.902
 8093SOL     OW34277   2.518   2.309   3.027
 8093SOL    HW134278   2.568   2.278   3.108
 8093SOL    HW234279   2.582   2.352   2.962
 8094SOL     OW34280   6.112   2.764   6.295
 8094SOL    HW134281   6.139   2.829   6.366
 8094SOL    HW234282   6.026   2.720   6.321
 8095SOL     OW34283   3.043   1.828   6.439
 8095SOL    HW134284   3.109   1.824   6.514
 8095SOL    HW234285   2.952   1.803   6.472
 8096SOL     OW34286   3.909   1.678   5.274
 8096SOL    HW134287   3.833   1.622   5.238
 8096SOL    HW234288   3.882   1.720   5.360
 8097SOL     OW34289   6.246   5.178   0.897
 8097SOL    HW134290   6.179   5.202   0.967
 8097SOL    HW234291   6.278   5.260   0.851
 8098SOL     OW34292   3.185   5.626   4.325
 8098SOL    HW134293   3.266   5.677   4.297
 8098SOL    HW234294   3.109   5.647   4.264
 8099SOL     OW34295   7.418   1.731   3.325
 8099SOL    HW134296   7.457   1.648   3.285
 8099SOL    HW234297   7.419   1.724   3.425
 8100SOL     OW34298   7.994   4.549   2.657
 8100SOL    HW134299   7.975   4.643   2.629
 8100SOL    HW234300   8.000   4.544   2.757
 8101SOL     OW34301   4.683   2.148   3.944
 8101SOL    HW134302   4.707   2.082   3.872
 8101SOL    HW234303   4.746   2.137   4.022
 8102SOL     OW34304   2.449   1.719   6.065
 8102SOL    HW134305   2.506   1.638   6.076
 8102SOL    HW234306   2.408   1.745   6.153
 8103SOL     OW34307   3.595   1.168   3.171
 8103SOL    HW134308   3.644   1.151   3.257
 8103SOL    HW234309   3.557   1.082   3.137
 8104SOL     OW34310   2.040   6.920   0.397
 8104SOL    HW134311   1.990   6.950   0.315
 8104SOL    HW234312   1.993   6.843   0.439
 8105SOL     OW34313   5.228   7.034   3.515
 8105SOL    HW134314   5.155   7.083   3.468
 8105SOL    HW234315   5.196   6.944   3.544
 8106SOL     OW34316   0.429   6.264   6.539
 8106SOL    HW134317   0.491   6.188   6.517
 8106SOL    HW234318   0.382   6.245   6.626
 8107SOL     OW34319   7.883   0.971   7.878
 8107SOL    HW134320   7.786   0.948   7.870
 8107SOL    HW234321   7.920   0.934   7.963
 8108SOL     OW34322   6.819   1.365   2.832
 8108SOL    HW134323   6.888   1.301   2.798
 8108SOL    HW234324   6.791   1.339   2.924
 8109SOL     OW34325   4.398   7.678   1.372
 8109SOL    HW134326   4.304   7.643   1.376
 8109SOL    HW234327   4.445   7.639   1.293
 8110SOL     OW34328   7.071   0.494   3.931
 8110SOL    HW134329   7.005   0.475   4.003
 8110SOL    HW234330   7.150   0.542   3.968
 8111SOL     OW34331   1.568   0.329   1.648
 8111SOL    HW134332   1.668   0.331   1.656
 8111SOL    HW234333   1.535   0.235   1.659
 8112SOL     OW34334   1.958   7.757   2.277
 8112SOL    HW134335   1.933   7.845   2.236
 8112SOL    HW234336   1.967   7.767   2.376
 8113SOL     OW34337   1.404   0.945   2.847
 8113SOL    HW134338   1.480   0.891   2.810
 8113SOL    HW234339   1.319   0.916   2.804
 8114SOL     OW34340   4.352   3.974   5.446
 8114SOL    HW134341   4.266   4.021   5.429
 8114SOL    HW234342   4.400   3.957   5.359
 8115SOL     OW34343   1.735   1.324   4.111
 8115SOL    HW134344   1.770   1.415   4.086
 8115SOL    HW234345   1.767   1.299   4.202
 8116SOL     OW34346   1.819   2.532   4.609
 8116SOL    HW134347   1.768   2.610   4.646
 8116SOL    HW234348   1.917   2.550   4.611
 8117SOL     OW34349   1.166   6.919   1.610
 8117SOL    HW134350   1.259   6.906   1.575
 8117SOL    HW234351   1.160   6.886   1.704
 8118SOL     OW34352   0.232   0.919   1.523
 8118SOL    HW134353   0.168   0.855   1.566
 8118SOL    HW234354   0.265   0.985   1.590
 8119SOL     OW34355   1.634   2.870   2.739
 8119SOL    HW134356   1.631   2.793   2.802
 8119SOL    HW234357   1.551   2.924   2.746
 8120SOL     OW34358   3.474   0.863   7.446
 8120SOL    HW134359   3.396   0.830   7.499
 8120SOL    HW234360   3.448   0.877   7.351
 8121SOL     OW34361   0.623   0.141   6.327
 8121SOL    HW134362   0.644   0.114   6.421
 8121SOL    HW234363   0.708   0.150   6.275
 8122SOL     OW34364   1.995  -0.000   2.781
 8122SOL    HW134365   1.974   0.000   2.879
 8122SOL    HW234366   2.093   0.015   2.768
 8123SOL     OW34367   3.419   1.265   1.031
 8123SOL    HW134368   3.322   1.251   1.052
 8123SOL    HW234369   3.464   1.177   1.016
 8124SOL     OW34370   5.372   1.085   2.028
 8124SOL    HW134371   5.385   0.997   1.982
 8124SOL    HW234372   5.364   1.071   2.126
 8125SOL     OW34373   1.924   1.011   2.292
 8125SOL    HW134374   1.914   1.106   2.261
 8125SOL    HW234375   1.941   1.008   2.390
 8126SOL     OW34376   2.779   7.716   4.566
 8126SOL    HW134377   2.764   7.657   4.646
 8126SOL    HW234378   2.861   7.771   4.579
 8127SOL     OW34379   6.445   6.162   3.983
 8127SOL    HW134380   6.423   6.253   3.948
 8127SOL    HW234381   6.476   6.168   4.077
 8128SOL     OW34382   0.806   7.941   1.193
 8128SOL    HW134383   0.732   7.894   1.144
 8128SOL    HW234384   0.786   7.943   1.291
 8129SOL     OW34385   2.687   2.701   7.891
 8129SOL    HW134386   2.668   2.785   7.942
 8129SOL    HW234387   2.674   2.716   7.793
 8130SOL     OW34388   0.268   2.808   3.029
 8130SOL    HW134389   0.349   2.755   3.004
 8130SOL    HW234390   0.234   2.858   2.949
 8131SOL     OW34391   7.262   7.416   4.247
 8131SOL    HW134392   7.194   7.433   4.175
 8131SOL    HW234393   7.241   7.331   4.294
 8132SOL     OW34394   5.926   4.203   5.999
 8132SOL    HW134395   5.920   4.107   6.026
 8132SOL    HW234396   5.843   4.252   6.026
 8133SOL     OW34397   4.475   6.192   3.650
 8133SOL    HW134398   4.465   6.209   3.552
 8133SOL    HW234399   4.464   6.277   3.700
 8134SOL     OW34400   5.824   4.343   3.658
 8134SOL    HW134401   5.832   4.433   3.615
 8134SOL    HW234402   5.803   4.273   3.590
 8135SOL     OW34403   1.033   6.890   6.347
 8135SOL    HW134404   0.994   6.924   6.261
 8135SOL    HW234405   0.968   6.829   6.392
 8136SOL     OW34406   7.299   4.555   6.708
 8136SOL    HW134407   7.239   4.530   6.784
 8136SOL    HW234408   7.363   4.481   6.689
 8137SOL     OW34409   1.441   5.820   2.681
 8137SOL    HW134410   1.392   5.750   2.734
 8137SOL    HW234411   1.499   5.777   2.613
 8138SOL     OW34412   5.450   0.889   7.627
 8138SOL    HW134413   5.442   0.875   7.528
 8138SOL    HW234414   5.459   0.987   7.647
 8139SOL     OW34415   7.570   3.031   3.720
 8139SOL    HW134416   7.658   3.077   3.706
 8139SOL    HW234417   7.585   2.933   3.735
 8140SOL     OW34418   6.595   7.800   5.472
 8140SOL    HW134419   6.620   7.885   5.518
 8140SOL    HW234420   6.574   7.819   5.376
 8141SOL     OW34421   1.125   1.881   4.991
 8141SOL    HW134422   1.198   1.851   5.052
 8141SOL    HW234423   1.149   1.860   4.896
 8142SOL     OW34424   3.391   2.073   1.498
 8142SOL    HW134425   3.433   2.158   1.464
 8142SOL    HW234426   3.426   2.053   1.590
 8143SOL     OW34427   7.868   2.951   6.994
 8143SOL    HW134428   7.804   2.875   7.006
 8143SOL    HW234429   7.932   2.931   6.920
 8144SOL     OW34430   1.198   3.769   3.174
 8144SOL    HW134431   1.126   3.799   3.237
 8144SOL    HW234432   1.162   3.699   3.112
 8145SOL     OW34433   2.365   3.765   3.679
 8145SOL    HW134434   2.451   3.724   3.649
 8145SOL    HW234435   2.382   3.833   3.750
 8146SOL     OW34436   0.083   3.491   0.836
 8146SOL    HW134437   0.158   3.554   0.859
 8146SOL    HW234438   0.070   3.489   0.737
 8147SOL     OW34439   7.898   0.257   0.486
 8147SOL    HW134440   7.908   0.352   0.456
 8147SOL    HW234441   7.866   0.200   0.411
 8148SOL     OW34442   5.790   3.725   1.911
 8148SOL    HW134443   5.878   3.756   1.946
 8148SOL    HW234444   5.775   3.759   1.819
 8149SOL     OW34445   7.856   3.708   7.441
 8149SOL    HW134446   7.950   3.727   7.470
 8149SOL    HW234447   7.819   3.631   7.492
 8150SOL     OW34448   1.654   5.908   6.916
 8150SOL    HW134449   1.736   5.950   6.878
 8150SOL    HW234450   1.674   5.870   7.007
 8151SOL     OW34451   6.197   1.662   0.944
 8151SOL    HW134452   6.255   1.706   1.013
 8151SOL    HW234453   6.207   1.563   0.951
 8152SOL     OW34454   0.513   2.918   4.142
 8152SOL    HW134455   0.529   2.991   4.208
 8152SOL    HW234456   0.458   2.845   4.183
 8153SOL     OW34457   6.559   4.086   4.464
 8153SOL    HW134458   6.505   4.168   4.444
 8153SOL    HW234459   6.614   4.061   4.385
 8154SOL     OW34460   2.001   6.512   3.208
 8154SOL    HW134461   1.961   6.604   3.205
 8154SOL    HW234462   2.100   6.518   3.194
 8155SOL     OW34463   2.274   2.864   3.991
 8155SOL    HW134464   2.193   2.868   3.934
 8155SOL    HW234465   2.253   2.896   4.084
 8156SOL     OW34466   3.566   6.160   2.385
 8156SOL    HW134467   3.510   6.232   2.343
 8156SOL    HW234468   3.559   6.076   2.331
 8157SOL     OW34469   5.897   0.262   5.766
 8157SOL    HW134470   5.819   0.202   5.785
 8157SOL    HW234471   5.932   0.244   5.675
 8158SOL     OW34472   7.880   5.220   1.681
 8158SOL    HW134473   7.921   5.291   1.739
 8158SOL    HW234474   7.887   5.246   1.584
 8159SOL     OW34475   6.121   5.589   3.861
 8159SOL    HW134476   6.175   5.665   3.897
 8159SOL    HW234477   6.041   5.624   3.812
 8160SOL     OW34478   0.979   3.555   6.234
 8160SOL    HW134479   1.022   3.469   6.208
 8160SOL    HW234480   0.938   3.547   6.325
 8161SOL     OW34481   3.851   5.867   0.208
 8161SOL    HW134482   3.919   5.873   0.282
 8161SOL    HW234483   3.896   5.853   0.120
 8162SOL     OW34484   0.388   5.058   7.344
 8162SOL    HW134485   0.441   5.118   7.403
 8162SOL    HW234486   0.305   5.104   7.313
 8163SOL     OW34487   6.464   5.373   0.073
 8163SOL    HW134488   6.527   5.296   0.081
 8163SOL    HW234489   6.398   5.355  -0.000
 8164SOL     OW34490   2.373   1.515   1.548
 8164SOL    HW134491   2.395   1.434   1.602
 8164SOL    HW234492   2.411   1.505   1.456
 8165SOL     OW34493   0.415   5.822   0.697
 8165SOL    HW134494   0.464   5.907   0.716
 8165SOL    HW234495   0.419   5.762   0.777
 8166SOL     OW34496   3.268   2.060   5.916
 8166SOL    HW134497   3.243   2.134   5.853
 8166SOL    HW234498   3.279   2.096   6.008
 8167SOL     OW34499   5.927   5.029   5.499
 8167SOL    HW134500   5.850   4.966   5.504
 8167SOL    HW234501   5.967   5.042   5.590
 8168SOL     OW34502   4.311   4.082   7.919
 8168SOL    HW134503   4.390   4.141   7.935
 8168SOL    HW234504   4.304   4.060   7.822
 8169SOL     OW34505   2.162   4.308   5.319
 8169SOL    HW134506   2.194   4.283   5.227
 8169SOL    HW234507   2.237   4.302   5.384
 8170SOL     OW34508   0.610   1.039   2.992
 8170SOL    HW134509   0.684   1.014   3.054
 8170SOL    HW234510   0.522   1.031   3.039
 8171SOL     OW34511   4.924   3.578   1.302
 8171SOL    HW134512   4.930   3.545   1.208
 8171SOL    HW234513   5.015   3.608   1.334
 8172SOL     OW34514   4.038   6.178   1.575
 8172SOL    HW134515   4.063   6.267   1.537
 8172SOL    HW234516   4.058   6.176   1.673
 8173SOL     OW34517   1.875   3.439   4.561
 8173SOL    HW134518   1.859   3.449   4.659
 8173SOL    HW234519   1.972   3.444   4.541
 8174SOL     OW34520   3.911   4.053   5.093
 8174SOL    HW134521   3.997   4.032   5.140
 8174SOL    HW234522   3.893   3.984   5.023
 8175SOL     OW34523   7.532   6.189   0.438
 8175SOL    HW134524   7.538   6.091   0.458
 8175SOL    HW234525   7.438   6.221   0.451
 8176SOL     OW34526   2.279   0.676   2.348
 8176SOL    HW134527   2.222   0.743   2.300
 8176SOL    HW234528   2.319   0.717   2.430
 8177SOL     OW34529   5.435   5.753   6.284
 8177SOL    HW134530   5.396   5.664   6.310
 8177SOL    HW234531   5.533   5.754   6.304
 8178SOL     OW34532   7.458   6.567   1.474
 8178SOL    HW134533   7.510   6.643   1.434
 8178SOL    HW234534   7.486   6.554   1.569
 8179SOL     OW34535   2.770   5.577   6.384
 8179SOL    HW134536   2.856   5.629   6.378
 8179SOL    HW234537   2.769   5.505   6.314
 8180SOL     OW34538   4.076   3.162   5.806
 8180SOL    HW134539   4.070   3.066   5.779
 8180SOL    HW234540   4.147   3.174   5.876
 8181SOL     OW34541   6.135   5.019   3.250
 8181SOL    HW134542   6.208   5.059   3.306
 8181SOL    HW234543   6.081   4.955   3.305
 8182SOL     OW34544   2.769   6.867   0.370
 8182SOL    HW134545   2.802   6.938   0.307
 8182SOL    HW234546   2.708   6.907   0.438
 8183SOL     OW34547   4.213   7.612   2.803
 8183SOL    HW134548   4.187   7.571   2.891
 8183SOL    HW234549   4.233   7.541   2.736
 8184SOL     OW34550   1.007   3.999   5.400
 8184SOL    HW134551   1.092   4.034   5.439
 8184SOL    HW234552   0.982   3.912   5.444
 8185SOL     OW34553   5.736   4.961   7.901
 8185SOL    HW134554   5.721   4.952   8.000
 8185SOL    HW234555   5.830   4.934   7.878
 8186SOL     OW34556   2.903   4.688   4.508
 8186SOL    HW134557   2.918   4.591   4.489
 8186SOL    HW234558   2.898   4.703   4.607
 8187SOL     OW34559   6.593   0.387   3.504
 8187SOL    HW134560   6.597   0.455   3.431
 8187SOL    HW234561   6.510   0.333   3.495
 8188SOL     OW34562   5.354   7.948   7.484
 8188SOL    HW134563   5.337   8.000   7.568
 8188SOL    HW234564   5.415   8.000   7.424
 8189SOL     OW34565   2.307   0.701   3.487
 8189SOL    HW134566   2.331   0.604   3.494
 8189SOL    HW234567   2.329   0.735   3.396
 8190SOL     OW34568   5.513   0.083   4.965
 8190SOL    HW134569   5.574   0.086   4.886
 8190SOL    HW234570   5.524   0.166   5.020
 8191SOL     OW34571   7.041   6.181   4.237
 8191SOL    HW134572   7.085   6.266   4.205
 8191SOL    HW234573   7.058   6.108   4.171
 8192SOL     OW34574   6.500   1.679   5.498
 8192SOL    HW134575   6.585   1.626   5.498
 8192SOL    HW234576   6.450   1.663   5.583
 8193SOL     OW34577   7.326   6.037   2.514
 8193SOL    HW134578   7.349   5.945   2.482
 8193SOL    HW234579   7.387   6.063   2.589
 8194SOL     OW34580   4.288   0.812   3.736
 8194SOL    HW134581   4.317   0.733   3.791
 8194SOL    HW234582   4.310   0.797   3.640
 8195SOL     OW34583   7.887   4.700   4.867
 8195SOL    HW134584   7.965   4.668   4.922
 8195SOL    HW234585   7.820   4.627   4.858
 8196SOL     OW34586   6.938   3.244   2.313
 8196SOL    HW134587   7.020   3.270   2.263
 8196SOL    HW234588   6.960   3.230   2.410
 8197SOL     OW34589   0.163   7.042   4.609
 8197SOL    HW134590   0.102   6.963   4.606
 8197SOL    HW234591   0.236   7.027   4.674
 8198SOL     OW34592   2.049   6.289   0.996
 8198SOL    HW134593   1.951   6.291   1.016
 8198SOL    HW234594   2.091   6.376   1.021
 8199SOL     OW34595   4.795   4.698   3.961
 8199SOL    HW134596   4.888   4.684   3.993
 8199SOL    HW234597   4.794   4.716   3.862
 8200SOL     OW34598   4.758   4.662   3.147
 8200SOL    HW134599   4.781   4.715   3.066
 8200SOL    HW234600   4.674   4.697   3.188
 8201SOL     OW34601   1.254   7.300   1.586
 8201SOL    HW134602   1.245   7.209   1.546
 8201SOL    HW234603   1.189   7.311   1.662
 8202SOL     OW34604   1.873   0.091   4.506
 8202SOL    HW134605   1.816   0.030   4.452
 8202SOL    HW234606   1.862   0.185   4.475
 8203SOL     OW34607   0.979   3.216   5.313
 8203SOL    HW134608   0.963   3.294   5.253
 8203SOL    HW234609   1.015   3.247   5.401
 8204SOL     OW34610   4.226   4.015   4.728
 8204SOL    HW134611   4.257   3.934   4.778
 8204SOL    HW234612   4.133   4.038   4.754
 8205SOL     OW34613   1.889   0.655   1.528
 8205SOL    HW134614   1.858   0.575   1.579
 8205SOL    HW234615   1.978   0.685   1.563
 8206SOL     OW34616   4.498   0.260   1.307
 8206SOL    HW134617   4.406   0.285   1.275
 8206SOL    HW234618   4.501   0.162   1.326
 8207SOL     OW34619   5.104   5.121   5.816
 8207SOL    HW134620   5.017   5.156   5.782
 8207SOL    HW234621   5.124   5.159   5.906
 8208SOL     OW34622   1.362   6.325   7.094
 8208SOL    HW134623   1.366   6.403   7.032
 8208SOL    HW234624   1.414   6.345   7.177
 8209SOL     OW34625   6.212   5.972   0.598
 8209SOL    HW134626   6.272   6.013   0.667
 8209SOL    HW234627   6.137   6.034   0.577
 8210SOL     OW34628   2.903   5.793   0.457
 8210SOL    HW134629   2.821   5.781   0.514
 8210SOL    HW234630   2.978   5.830   0.512
 8211SOL     OW34631   4.733   3.003   1.420
 8211SOL    HW134632   4.638   3.030   1.435
 8211SOL    HW234633   4.793   3.082   1.426
 8212SOL     OW34634   4.484   0.828   3.907
 8212SOL    HW134635   4.502   0.926   3.911
 8212SOL    HW234636   4.414   0.803   3.975
 8213SOL     OW34637   2.016   5.350   1.481
 8213SOL    HW134638   1.952   5.424   1.498
 8213SOL    HW234639   2.096   5.359   1.540
 8214SOL     OW34640   0.284   2.933   5.781
 8214SOL    HW134641   0.368   2.977   5.748
 8214SOL    HW234642   0.297   2.901   5.875
 8215SOL     OW34643   0.440   0.821   6.616
 8215SOL    HW134644   0.414   0.865   6.530
 8215SOL    HW234645   0.434   0.886   6.691
 8216SOL     OW34646   4.123   5.909   7.608
 8216SOL    HW134647   4.170   5.935   7.523
 8216SOL    HW234648   4.159   5.962   7.684
 8217SOL     OW34649   3.738   5.732   3.149
 8217SOL    HW134650   3.720   5.689   3.061
 8217SOL    HW234651   3.804   5.677   3.200
 8218SOL     OW34652   2.460   2.309   0.466
 8218SOL    HW134653   2.438   2.406   0.463
 8218SOL    HW234654   2.443   2.272   0.557
 8219SOL     OW34655   7.324   1.377   4.879
 8219SOL    HW134656   7.384   1.457   4.885
 8219SOL    HW234657   7.242   1.400   4.827
 8220SOL     OW34658   4.795   5.882   4.301
 8220SOL    HW134659   4.790   5.844   4.394
 8220SOL    HW234660   4.789   5.808   4.234
 8221SOL     OW34661   3.805   1.625   6.542
 8221SOL    HW134662   3.842   1.626   6.635
 8221SOL    HW234663   3.714   1.666   6.542
 8222SOL     OW34664   5.350   6.679   0.583
 8222SOL    HW134665   5.400   6.640   0.506
 8222SOL    HW234666   5.399   6.758   0.620
 8223SOL     OW34667   3.403   3.721   0.564
 8223SOL    HW134668   3.306   3.739   0.550
 8223SOL    HW234669   3.429   3.742   0.658
 8224SOL     OW34670   2.270   0.596   4.023
 8224SOL    HW134671   2.281   0.505   3.981
 8224SOL    HW234672   2.248   0.587   4.120
 8225SOL     OW34673   2.467   2.160   1.681
 8225SOL    HW134674   2.417   2.181   1.765
 8225SOL    HW234675   2.403   2.152   1.604
 8226SOL     OW34676   4.459   2.881   7.748
 8226SOL    HW134677   4.432   2.871   7.845
 8226SOL    HW234678   4.395   2.831   7.690
 8227SOL     OW34679   2.110   4.925   3.020
 8227SOL    HW134680   2.033   4.967   2.973
 8227SOL    HW234681   2.144   4.987   3.091
 8228SOL     OW34682   1.144   1.993   1.823
 8228SOL    HW134683   1.162   1.936   1.742
 8228SOL    HW234684   1.212   2.067   1.827
 8229SOL     OW34685   7.882   6.090   3.180
 8229SOL    HW134686   7.843   5.998   3.186
 8229SOL    HW234687   7.937   6.098   3.096
 8230SOL     OW34688   2.185   4.551   5.145
 8230SOL    HW134689   2.126   4.471   5.134
 8230SOL    HW234690   2.235   4.546   5.231
 8231SOL     OW34691   4.022   3.031   2.710
 8231SOL    HW134692   3.979   3.111   2.754
 8231SOL    HW234693   3.951   2.967   2.681
 8232SOL     OW34694   1.841   6.290   0.733
 8232SOL    HW134695   1.819   6.362   0.667
 8232SOL    HW234696   1.926   6.244   0.706
 8233SOL     OW34697   5.423   4.202   0.082
 8233SOL    HW134698   5.474   4.142   0.020
 8233SOL    HW234699   5.325   4.196   0.061
 8234SOL     OW34700   3.481   7.070   3.926
 8234SOL    HW134701   3.544   7.088   4.002
 8234SOL    HW234702   3.531   7.030   3.849
 8235SOL     OW34703   7.630   2.132   4.136
 8235SOL    HW134704   7.648   2.223   4.099
 8235SOL    HW234705   7.689   2.114   4.215
 8236SOL     OW34706   5.130   4.579   4.493
 8236SOL    HW134707   5.031   4.567   4.495
 8236SOL    HW234708   5.162   4.587   4.399
 8237SOL     OW34709   6.071   4.865   1.602
 8237SOL    HW134710   6.041   4.781   1.556
 8237SOL    HW234711   6.052   4.944   1.544
 8238SOL     OW34712   6.170   6.870   2.697
 8238SOL    HW134713   6.234   6.859   2.773
 8238SOL    HW234714   6.078   6.885   2.732
 8239SOL     OW34715   1.738   5.249   0.061
 8239SOL    HW134716   1.640   5.242   0.082
 8239SOL    HW234717   1.754   5.327  -0.000
 8240SOL     OW34718   4.672   3.325   6.470
 8240SOL    HW134719   4.599   3.266   6.434
 8240SOL    HW234720   4.650   3.355   6.562
 8241SOL     OW34721   4.269   6.075   1.613
 8241SOL    HW134722   4.252   6.128   1.530
 8241SOL    HW234723   4.273   6.136   1.692
 8242SOL     OW34724   7.305   3.563   2.679
 8242SOL    HW134725   7.318   3.550   2.581
 8242SOL    HW234726   7.350   3.647   2.709
 8243SOL     OW34727   0.555   7.715   6.884
 8243SOL    HW134728   0.516   7.689   6.973
 8243SOL    HW234729   0.641   7.667   6.869
 8244SOL     OW34730   3.062   5.563   4.892
 8244SOL    HW134731   2.987   5.514   4.935
 8244SOL    HW234732   3.075   5.530   4.798
 8245SOL     OW34733   0.664   4.442   2.648
 8245SOL    HW134734   0.683   4.540   2.658
 8245SOL    HW234735   0.574   4.428   2.609
 8246SOL     OW34736   6.234   4.598   1.814
 8246SOL    HW134737   6.213   4.637   1.725
 8246SOL    HW234738   6.166   4.528   1.837
 8247SOL     OW34739   6.093   1.505   5.068
 8247SOL    HW134740   6.072   1.554   5.153
 8247SOL    HW234741   6.192   1.492   5.060
 8248SOL     OW34742   6.500   6.976   5.868
 8248SOL    HW134743   6.585   6.937   5.833
 8248SOL    HW234744   6.483   6.942   5.961
 8249SOL     OW34745   4.342   7.619   4.992
 8249SOL    HW134746   4.259   7.598   5.045
 8249SOL    HW234747   4.378   7.535   4.952
 8250SOL     OW34748   0.050   6.841   1.008
 8250SOL    HW134749   0.146   6.852   1.035
 8250SOL    HW234750  -0.000   6.793   1.080
 8251SOL     OW34751   7.396   5.509   6.885
 8251SOL    HW134752   7.325   5.482   6.819
 8251SOL    HW234753   7.454   5.580   6.845
 8252SOL     OW34754   6.286   5.110   0.186
 8252SOL    HW134755   6.369   5.157   0.155
 8252SOL    HW234756   6.302   5.072   0.277
 8253SOL     OW34757   0.741   2.477   2.210
 8253SOL    HW134758   0.823   2.503   2.261
 8253SOL    HW234759   0.762   2.473   2.112
 8254SOL     OW34760   6.744   7.677   1.840
 8254SOL    HW134761   6.670   7.610   1.841
 8254SOL    HW234762   6.814   7.648   1.775
 8255SOL     OW34763   6.215   6.092   1.193
 8255SOL    HW134764   6.171   6.177   1.221
 8255SOL    HW234765   6.276   6.059   1.265
 8256SOL     OW34766   4.034   0.487   0.319
 8256SOL    HW134767   4.083   0.558   0.371
 8256SOL    HW234768   4.015   0.519   0.226
 8257SOL     OW34769   0.411   0.455   6.080
 8257SOL    HW134770   0.337   0.486   6.020
 8257SOL    HW234771   0.447   0.368   6.047
 8258SOL     OW34772   2.239   3.851   0.811
 8258SOL    HW134773   2.328   3.807   0.799
 8258SOL    HW234774   2.236   3.936   0.758
 8259SOL     OW34775   7.573   6.121   6.066
 8259SOL    HW134776   7.651   6.058   6.058
 8259SOL    HW234777   7.560   6.170   5.980
 8260SOL     OW34778   2.957   6.613   2.423
 8260SOL    HW134779   2.996   6.637   2.334
 8260SOL    HW234780   2.897   6.687   2.455
 8261SOL     OW34781   0.264   2.595   1.605
 8261SOL    HW134782   0.229   2.688   1.617
 8261SOL    HW234783   0.272   2.550   1.694
 8262SOL     OW34784   5.551   6.676   2.747
 8262SOL    HW134785   5.521   6.581   2.743
 8262SOL    HW234786   5.482   6.733   2.790
 8263SOL     OW34787   0.356   3.231   4.716
 8263SOL    HW134788   0.275   3.283   4.743
 8263SOL    HW234789   0.329   3.155   4.657
 8264SOL     OW34790   6.662   4.433   3.449
 8264SOL    HW134791   6.618   4.352   3.412
 8264SOL    HW234792   6.607   4.472   3.523
 8265SOL     OW34793   3.157   2.728   3.256
 8265SOL    HW134794   3.066   2.730   3.213
 8265SOL    HW234795   3.148   2.744   3.354
 8266SOL     OW34796   2.036   6.092   7.619
 8266SOL    HW134797   2.054   6.063   7.713
 8266SOL    HW234798   1.972   6.029   7.575
 8267SOL     OW34799   7.666   5.000   4.541
 8267SOL    HW134800   7.756   4.987   4.498
 8267SOL    HW234801   7.631   4.912   4.573
 8268SOL     OW34802   6.698   3.311   2.857
 8268SOL    HW134803   6.751   3.391   2.883
 8268SOL    HW234804   6.739   3.229   2.896
 8269SOL     OW34805   6.829   7.215   7.506
 8269SOL    HW134806   6.883   7.135   7.530
 8269SOL    HW234807   6.769   7.241   7.582
 8270SOL     OW34808   0.163   5.144   2.170
 8270SOL    HW134809   0.215   5.119   2.251
 8270SOL    HW234810   0.199   5.096   2.090
 8271SOL     OW34811   6.629   3.730   1.628
 8271SOL    HW134812   6.656   3.781   1.710
 8271SOL    HW234813   6.530   3.722   1.623
 8272SOL     OW34814   1.861   6.697   6.010
 8272SOL    HW134815   1.780   6.671   6.064
 8272SOL    HW234816   1.845   6.677   5.913
 8273SOL     OW34817   2.286   4.132   4.508
 8273SOL    HW134818   2.209   4.160   4.565
 8273SOL    HW234819   2.263   4.142   4.411
 8274SOL     OW34820   4.442   3.919   4.659
 8274SOL    HW134821   4.476   3.876   4.575
 8274SOL    HW234822   4.510   3.984   4.693
 8275SOL     OW34823   6.070   6.103   4.882
 8275SOL    HW134824   6.022   6.016   4.895
 8275SOL    HW234825   6.036   6.148   4.800
 8276SOL     OW34826   6.834   2.674   6.032
 8276SOL    HW134827   6.918   2.680   5.978
 8276SOL    HW234828   6.782   2.592   6.006
 8277SOL     OW34829   1.240   3.818   5.274
 8277SOL    HW134830   1.167   3.879   5.243
 8277SOL    HW234831   1.269   3.844   5.367
 8278SOL     OW34832   1.349   0.613   2.089
 8278SOL    HW134833   1.398   0.538   2.134
 8278SOL    HW234834   1.375   0.618   1.993
 8279SOL     OW34835   1.646   3.434   0.623
 8279SOL    HW134836   1.668   3.381   0.541
 8279SOL    HW234837   1.569   3.496   0.604
 8280SOL     OW34838   0.206   3.031   4.181
 8280SOL    HW134839   0.152   2.954   4.216
 8280SOL    HW234840   0.232   3.014   4.086
 8281SOL     OW34841   7.060   4.603   0.473
 8281SOL    HW134842   7.013   4.526   0.516
 8281SOL    HW234843   7.067   4.588   0.374
 8282SOL     OW34844   2.142   0.635   7.761
 8282SOL    HW134845   2.179   0.655   7.852
 8282SOL    HW234846   2.085   0.711   7.730
 8283SOL     OW34847   1.376   2.755   3.459
 8283SOL    HW134848   1.364   2.671   3.513
 8283SOL    HW234849   1.436   2.738   3.381
 8284SOL     OW34850   4.904   3.584   4.452
 8284SOL    HW134851   4.838   3.609   4.523
 8284SOL    HW234852   4.872   3.615   4.363
 8285SOL     OW34853   3.272   7.770   2.183
 8285SOL    HW134854   3.334   7.698   2.151
 8285SOL    HW234855   3.316   7.859   2.175
 8286SOL     OW34856   4.227   5.069   2.632
 8286SOL    HW134857   4.323   5.043   2.620
 8286SOL    HW234858   4.199   5.132   2.560
 8287SOL     OW34859   2.602   4.389   4.710
 8287SOL    HW134860   2.696   4.396   4.677
 8287SOL    HW234861   2.602   4.372   4.808
 8288SOL     OW34862   0.458   3.951   1.125
 8288SOL    HW134863   0.426   3.999   1.043
 8288SOL    HW234864   0.551   3.916   1.109
 8289SOL     OW34865   3.680   5.087   0.548
 8289SOL    HW134866   3.759   5.099   0.488
 8289SOL    HW234867   3.600   5.059   0.495
 8290SOL     OW34868   6.425   4.842   7.646
 8290SOL    HW134869   6.508   4.890   7.676
 8290SOL    HW234870   6.442   4.797   7.558
 8291SOL     OW34871   7.344   1.639   0.777
 8291SOL    HW134872   7.381   1.548   0.797
 8291SOL    HW234873   7.287   1.671   0.853
 8292SOL     OW34874   4.204   0.140   7.460
 8292SOL    HW134875   4.257   0.199   7.399
 8292SOL    HW234876   4.139   0.195   7.513
 8293SOL     OW34877   0.539   3.250   4.161
 8293SOL    HW134878   0.637   3.249   4.180
 8293SOL    HW234879   0.488   3.285   4.240
 8294SOL     OW34880   0.041   5.294   0.096
 8294SOL    HW134881   0.041   5.383   0.142
 8294SOL    HW234882   0.015   5.305   0.001
 8295SOL     OW34883   2.442   6.550   2.257
 8295SOL    HW134884   2.486   6.524   2.343
 8295SOL    HW234885   2.414   6.468   2.206
 8296SOL     OW34886   6.401   4.801   2.487
 8296SOL    HW134887   6.411   4.720   2.430
 8296SOL    HW234888   6.344   4.781   2.566
 8297SOL     OW34889   6.098   5.195   1.729
 8297SOL    HW134890   6.083   5.138   1.648
 8297SOL    HW234891   6.011   5.229   1.764
 8298SOL     OW34892   6.571   3.113   6.463
 8298SOL    HW134893   6.631   3.187   6.432
 8298SOL    HW234894   6.611   3.025   6.441
 8299SOL     OW34895   3.435   7.952   6.675
 8299SOL    HW134896   3.365   7.915   6.614
 8299SOL    HW234897   3.497   7.880   6.705
 8300SOL     OW34898   1.753   4.153   0.857
 8300SOL    HW134899   1.784   4.067   0.817
 8300SOL    HW234900   1.707   4.135   0.944
 8301SOL     OW34901   1.252   3.828   7.156
 8301SOL    HW134902   1.210   3.814   7.246
 8301SOL    HW234903   1.196   3.891   7.102
 8302SOL     OW34904   0.431   4.671   3.683
 8302SOL    HW134905   0.486   4.689   3.765
 8302SOL    HW234906   0.348   4.620   3.708
 8303SOL     OW34907   3.990   6.601   0.846
 8303SOL    HW134908   3.989   6.589   0.747
 8303SOL    HW234909   3.999   6.699   0.868
 8304SOL     OW34910   5.102   5.295   7.920
 8304SOL    HW134911   5.041   5.374   7.918
 8304SOL    HW234912   5.065   5.222   7.862
 8305SOL     OW34913   1.111   2.546   4.699
 8305SOL    HW134914   1.206   2.559   4.670
 8305SOL    HW234915   1.104   2.551   4.798
 8306SOL     OW34916   4.741   1.811   5.168
 8306SOL    HW134917   4.658   1.798   5.114
 8306SOL    HW234918   4.719   1.849   5.258
 8307SOL     OW34919   0.188   2.680   2.605
 8307SOL    HW134920   0.124   2.756   2.595
 8307SOL    HW234921   0.193   2.627   2.521
 8308SOL     OW34922   4.431   1.564   2.369
 8308SOL    HW134923   4.385   1.494   2.424
 8308SOL    HW234924   4.522   1.531   2.341
 8309SOL     OW34925   7.976   7.746   0.320
 8309SOL    HW134926   7.978   7.844   0.300
 8309SOL    HW234927   8.002   7.731   0.416
 8310SOL     OW34928   4.745   3.438   4.957
 8310SOL    HW134929   4.830   3.412   4.912
 8310SOL    HW234930   4.753   3.426   5.056
 8311SOL     OW34931   4.580   5.376   2.591
 8311SOL    HW134932   4.641   5.353   2.666
 8311SOL    HW234933   4.567   5.476   2.586
 8312SOL     OW34934   0.083   4.975   6.597
 8312SOL    HW134935   0.097   4.881   6.631
 8312SOL    HW234936   0.129   4.986   6.509
 8313SOL     OW34937   4.997   3.628   5.150
 8313SOL    HW134938   5.030   3.535   5.164
 8313SOL    HW234939   4.973   3.642   5.054
 8314SOL     OW34940   4.612   1.885   7.927
 8314SOL    HW134941   4.702   1.906   7.965
 8314SOL    HW234942   4.589   1.789   7.946
 8315SOL     OW34943   2.928   6.811   2.023
 8315SOL    HW134944   2.946   6.725   2.071
 8315SOL    HW234945   3.014   6.859   2.005
 8316SOL     OW34946   2.976   3.335   7.235
 8316SOL    HW134947   2.985   3.238   7.258
 8316SOL    HW234948   2.960   3.388   7.318
 8317SOL     OW34949   1.635   5.582   5.615
 8317SOL    HW134950   1.682   5.501   5.579
 8317SOL    HW234951   1.578   5.557   5.693
 8318SOL     OW34952   4.231   6.148   3.566
 8318SOL    HW134953   4.284   6.096   3.499
 8318SOL    HW234954   4.188   6.087   3.632
 8319SOL     OW34955   8.000   5.275   3.997
 8319SOL    HW134956   7.911   5.262   4.040
 8319SOL    HW234957   7.999   5.235   3.905
 8320SOL     OW34958   4.240   3.170   3.764
 8320SOL    HW134959   4.191   3.146   3.679
 8320SOL    HW234960   4.299   3.248   3.747
 8321SOL     OW34961   2.330   3.674   2.454
 8321SOL    HW134962   2.348   3.624   2.368
 8321SOL    HW234963   2.232   3.676   2.472
 8322SOL     OW34964   0.369   1.460   7.331
 8322SOL    HW134965   0.380   1.367   7.367
 8322SOL    HW234966   0.407   1.465   7.239
 8323SOL     OW34967   4.155   7.023   4.804
 8323SOL    HW134968   4.221   6.954   4.774
 8323SOL    HW234969   4.123   7.076   4.725
 8324SOL     OW34970   3.446   7.078   2.656
 8324SOL    HW134971   3.369   7.015   2.669
 8324SOL    HW234972   3.514   7.037   2.596
 8325SOL     OW34973   6.152   1.346   3.113
 8325SOL    HW134974   6.174   1.346   3.015
 8325SOL    HW234975   6.141   1.440   3.145
 8326SOL     OW34976   3.101   7.780   0.232
 8326SOL    HW134977   3.161   7.719   0.180
 8326SOL    HW234978   3.095   7.749   0.327
 8327SOL     OW34979   4.395   7.960   0.270
 8327SOL    HW134980   4.310   7.997   0.230
 8327SOL    HW234981   4.410   8.000   0.361
 8328SOL     OW34982   3.245   1.673   6.429
 8328SOL    HW134983   3.333   1.645   6.390
 8328SOL    HW234984   3.234   1.632   6.520
 8329SOL     OW34985   7.486   5.973   6.460
 8329SOL    HW134986   7.425   6.003   6.386
 8329SOL    HW234987   7.573   6.022   6.455
 8330SOL     OW34988   3.322   4.376   1.332
 8330SOL    HW134989   3.266   4.458   1.347
 8330SOL    HW234990   3.395   4.396   1.267
 8331SOL     OW34991   6.063   4.785   7.089
 8331SOL    HW134992   6.008   4.839   7.025
 8331SOL    HW234993   6.047   4.815   7.182
 8332SOL     OW34994   7.729   2.095   4.861
 8332SOL    HW134995   7.820   2.054   4.867
 8332SOL    HW234996   7.722   2.173   4.923
 8333SOL     OW34997   6.153   0.872   2.799
 8333SOL    HW134998   6.213   0.951   2.806
 8333SOL    HW234999   6.157   0.818   2.883
 8334SOL     OW35000   4.503   7.230   0.621
 8334SOL    HW135001   4.437   7.300   0.647
 8334SOL    HW235002   4.462   7.168   0.553
 8335SOL     OW35003   2.428   3.063   7.711
 8335SOL    HW135004   2.463   3.074   7.804
 8335SOL    HW235005   2.466   2.980   7.670
 8336SOL     OW35006   4.416   5.882   5.151
 8336SOL    HW135007   4.368   5.883   5.063
 8336SOL    HW235008   4.475   5.801   5.156
 8337SOL     OW35009   2.862   2.980   1.191
 8337SOL    HW135010   2.774   2.972   1.144
 8337SOL    HW235011   2.913   3.058   1.155
 8338SOL     OW35012   3.705   1.783   5.081
 8338SOL    HW135013   3.677   1.854   5.016
 8338SOL    HW235014   3.675   1.694   5.048
 8339SOL     OW35015   6.549   1.296   5.281
 8339SOL    HW135016   6.646   1.305   5.256
 8339SOL    HW235017   6.503   1.234   5.217
 8340SOL     OW35018   6.317   2.602   3.463
 8340SOL    HW135019   6.405   2.617   3.417
 8340SOL    HW235020   6.332   2.576   3.558
 8341SOL     OW35021   3.073   0.542   3.217
 8341SOL    HW135022   3.061   0.616   3.283
 8341SOL    HW235023   3.022   0.461   3.247
 8342SOL     OW35024   2.937   4.269   2.885
 8342SOL    HW135025   2.913   4.279   2.788
 8342SOL    HW235026   2.948   4.172   2.907
 8343SOL     OW35027   0.911   4.417   4.431
 8343SOL    HW135028   0.927   4.320   4.413
 8343SOL    HW235029   0.996   4.469   4.417
 8344SOL     OW35030   1.298   0.981   6.272
 8344SOL    HW135031   1.204   1.003   6.243
 8344SOL    HW235032   1.304   0.987   6.372
 8345SOL     OW35033   1.445   5.450   5.209
 8345SOL    HW135034   1.373   5.468   5.276
 8345SOL    HW235035   1.487   5.361   5.228
 8346SOL     OW35036   5.968   6.416   4.312
 8346SOL    HW135037   6.048   6.358   4.300
 8346SOL    HW235038   5.908   6.379   4.383
 8347SOL     OW35039   3.173   4.894   3.788
 8347SOL    HW135040   3.186   4.984   3.746
 8347SOL    HW235041   3.212   4.893   3.879
 8348SOL     OW35042   4.169   6.131   3.128
 8348SOL    HW135043   4.217   6.207   3.172
 8348SOL    HW235044   4.185   6.133   3.029
 8349SOL     OW35045   7.538   4.487   1.743
 8349SOL    HW135046   7.454   4.487   1.688
 8349SOL    HW235047   7.515   4.484   1.841
 8350SOL     OW35048   1.640   6.276   4.367
 8350SOL    HW135049   1.694   6.354   4.398
 8350SOL    HW235050   1.569   6.306   4.304
 8351SOL     OW35051   6.731   4.620   7.647
 8351SOL    HW135052   6.767   4.697   7.698
 8351SOL    HW235053   6.665   4.651   7.578
 8352SOL     OW35054   7.115   0.343   3.552
 8352SOL    HW135055   7.138   0.403   3.474
 8352SOL    HW235056   7.105   0.249   3.521
 8353SOL     OW35057   7.872   0.337   1.266
 8353SOL    HW135058   7.774   0.335   1.249
 8353SOL    HW235059   7.911   0.423   1.233
 8354SOL     OW35060   2.910   7.694   2.866
 8354SOL    HW135061   2.814   7.694   2.893
 8354SOL    HW235062   2.947   7.787   2.871
 8355SOL     OW35063   7.946   3.774   5.425
 8355SOL    HW135064   7.903   3.706   5.484
 8355SOL    HW235065   7.886   3.855   5.418
 8356SOL     OW35066   5.612   2.515   2.448
 8356SOL    HW135067   5.586   2.418   2.458
 8356SOL    HW235068   5.707   2.522   2.418
 8357SOL     OW35069   6.722   6.633   0.623
 8357SOL    HW135070   6.638   6.602   0.579
 8357SOL    HW235071   6.801   6.581   0.588
 8358SOL     OW35072   5.164   5.897   4.400
 8358SOL    HW135073   5.117   5.858   4.480
 8358SOL    HW235074   5.234   5.962   4.431
 8359SOL     OW35075   2.200   2.845   1.823
 8359SOL    HW135076   2.240   2.879   1.738
 8359SOL    HW235077   2.269   2.845   1.896
 8360SOL     OW35078   6.602   3.060   1.153
 8360SOL    HW135079   6.670   3.120   1.196
 8360SOL    HW235080   6.572   3.099   1.066
 8361SOL     OW35081   6.511   3.942   2.655
 8361SOL    HW135082   6.594   3.986   2.619
 8361SOL    HW235083   6.535   3.880   2.730
 8362SOL     OW35084   5.191   5.153   1.493
 8362SOL    HW135085   5.197   5.248   1.462
 8362SOL    HW235086   5.229   5.145   1.585
 8363SOL     OW35087   1.809   4.902   1.243
 8363SOL    HW135088   1.807   4.902   1.143
 8363SOL    HW235089   1.716   4.913   1.278
 8364SOL     OW35090   5.068   7.256   4.843
 8364SOL    HW135091   5.085   7.237   4.939
 8364SOL    HW235092   4.985   7.209   4.813
 8365SOL     OW35093   0.610   2.670   7.803
 8365SOL    HW135094   0.582   2.674   7.707
 8365SOL    HW235095   0.709   2.658   7.810
 8366SOL     OW35096   0.647   6.777   3.830
 8366SOL    HW135097   0.605   6.695   3.790
 8366SOL    HW235098   0.608   6.795   3.920
 8367SOL     OW35099   6.474   6.317   7.590
 8367SOL    HW135100   6.555   6.266   7.620
 8367SOL    HW235101   6.499   6.383   7.519
 8368SOL     OW35102   7.614   3.373   2.929
 8368SOL    HW135103   7.695   3.428   2.951
 8368SOL    HW235104   7.628   3.278   2.957
 8369SOL     OW35105   6.538   6.764   1.543
 8369SOL    HW135106   6.586   6.842   1.584
 8369SOL    HW235107   6.494   6.792   1.458
 8370SOL     OW35108   1.332   6.071   1.497
 8370SOL    HW135109   1.324   6.159   1.544
 8370SOL    HW235110   1.268   6.005   1.536
 8371SOL     OW35111   4.278   1.306   6.707
 8371SOL    HW135112   4.326   1.370   6.647
 8371SOL    HW235113   4.304   1.212   6.684
 8372SOL     OW35114   3.131   6.702   1.393
 8372SOL    HW135115   3.144   6.738   1.300
 8372SOL    HW235116   3.202   6.738   1.453
 8373SOL     OW35117   4.018   1.899   1.635
 8373SOL    HW135118   4.002   1.811   1.680
 8373SOL    HW235119   4.063   1.885   1.548
 8374SOL     OW35120   1.095   6.238   6.931
 8374SOL    HW135121   1.140   6.294   6.862
 8374SOL    HW235122   1.161   6.206   6.998
 8375SOL     OW35123   4.742   2.220   5.522
 8375SOL    HW135124   4.725   2.319   5.524
 8375SOL    HW235125   4.826   2.201   5.473
 8376SOL     OW35126   1.082   7.311   1.380
 8376SOL    HW135127   1.049   7.286   1.471
 8376SOL    HW235128   1.024   7.268   1.310
 8377SOL     OW35129   4.633   5.771   7.990
 8377SOL    HW135130   4.635   5.870   8.000
 8377SOL    HW235131   4.562   5.745   7.923
 8378SOL     OW35132   4.395   4.948   6.913
 8378SOL    HW135133   4.327   4.877   6.936
 8378SOL    HW235134   4.443   4.923   6.829
 8379SOL     OW35135   2.796   0.697   3.692
 8379SOL    HW135136   2.777   0.767   3.623
 8379SOL    HW235137   2.728   0.624   3.687
 8380SOL     OW35138   3.899   5.064   3.305
 8380SOL    HW135139   3.977   5.030   3.358
 8380SOL    HW235140   3.846   4.987   3.269
 8381SOL     OW35141   3.970   2.259   4.760
 8381SOL    HW135142   3.973   2.340   4.819
 8381SOL    HW235143   4.063   2.234   4.732
 8382SOL     OW35144   4.494   0.745   3.005
 8382SOL    HW135145   4.447   0.665   3.046
 8382SOL    HW235146   4.536   0.719   2.919
 8383SOL     OW35147   3.712   5.974   2.155
 8383SOL    HW135148   3.744   5.972   2.060
 8383SOL    HW235149   3.615   5.951   2.158
 8384SOL     OW35150   3.303   2.559   3.424
 8384SOL    HW135151   3.378   2.502   3.389
 8384SOL    HW235152   3.277   2.530   3.515
 8385SOL     OW35153   7.248   2.058   1.260
 8385SOL    HW135154   7.192   1.976   1.246
 8385SOL    HW235155   7.192   2.140   1.247
 8386SOL     OW35156   1.692   0.884   2.752
 8386SOL    HW135157   1.765   0.935   2.707
 8386SOL    HW235158   1.717   0.866   2.847
 8387SOL     OW35159   0.755   2.222   7.732
 8387SOL    HW135160   0.804   2.230   7.819
 8387SOL    HW235161   0.739   2.126   7.710
 8388SOL     OW35162   4.320   0.085   7.030
 8388SOL    HW135163   4.231   0.112   6.992
 8388SOL    HW235164   4.332   0.123   7.122
 8389SOL     OW35165   4.390   7.568   4.499
 8389SOL    HW135166   4.386   7.520   4.587
 8389SOL    HW235167   4.298   7.584   4.465
 8390SOL     OW35168   2.821   6.428   7.508
 8390SOL    HW135169   2.875   6.372   7.571
 8390SOL    HW235170   2.873   6.509   7.481
 8391SOL     OW35171   1.914   5.179   6.827
 8391SOL    HW135172   2.011   5.161   6.842
 8391SOL    HW235173   1.889   5.267   6.867
 8392SOL     OW35174   2.079   1.571   5.889
 8392SOL    HW135175   2.125   1.615   5.811
 8392SOL    HW235176   1.994   1.528   5.858
 8393SOL     OW35177   1.199   3.573   7.255
 8393SOL    HW135178   1.152   3.553   7.341
 8393SOL    HW235179   1.133   3.573   7.180
 8394SOL     OW35180   2.931   5.958   0.716
 8394SOL    HW135181   3.026   5.988   0.720
 8394SOL    HW235182   2.888   5.993   0.632
 8395SOL     OW35183   1.478   5.213   0.977
 8395SOL    HW135184   1.442   5.171   1.061
 8395SOL    HW235185   1.403   5.245   0.920
 8396SOL     OW35186   0.516   7.886   7.221
 8396SOL    HW135187   0.457   7.965   7.237
 8396SOL    HW235188   0.533   7.874   7.123
 8397SOL     OW35189   1.599   3.010   3.643
 8397SOL    HW135190   1.538   2.932   3.629
 8397SOL    HW235191   1.597   3.069   3.562
 8398SOL     OW35192   3.541   1.340   7.731
 8398SOL    HW135193   3.512   1.255   7.776
 8398SOL    HW235194   3.463   1.383   7.685
 8399SOL     OW35195   7.708   0.193   6.694
 8399SOL    HW135196   7.634   0.161   6.752
 8399SOL    HW235197   7.759   0.115   6.657
 8400SOL     OW35198   5.375   1.657   6.894
 8400SOL    HW135199   5.461   1.633   6.940
 8400SOL    HW235200   5.395   1.700   6.806
 8401SOL     OW35201   6.094   2.820   5.477
 8401SOL    HW135202   6.098   2.846   5.380
 8401SOL    HW235203   6.003   2.843   5.514
 8402SOL     OW35204   0.663   3.183   3.158
 8402SOL    HW135205   0.699   3.276   3.151
 8402SOL    HW235206   0.714   3.132   3.226
 8403SOL     OW35207   7.282   6.299   1.770
 8403SOL    HW135208   7.249   6.384   1.811
 8403SOL    HW235209   7.376   6.280   1.801
 8404SOL     OW35210   6.282   0.957   3.858
 8404SOL    HW135211   6.346   0.886   3.888
 8404SOL    HW235212   6.299   0.980   3.763
 8405SOL     OW35213   0.543   2.329   1.637
 8405SOL    HW135214   0.524   2.239   1.596
 8405SOL    HW235215   0.467   2.356   1.696
 8406SOL     OW35216   5.564   0.693   5.267
 8406SOL    HW135217   5.480   0.733   5.303
 8406SOL    HW235218   5.545   0.646   5.181
 8407SOL     OW35219   3.217   0.085   5.811
 8407SOL    HW135220   3.162   0.052   5.887
 8407SOL    HW235221   3.284   0.015   5.784
 8408SOL     OW35222   4.980   0.781   4.396
 8408SOL    HW135223   5.025   0.870   4.409
 8408SOL    HW235224   4.946   0.747   4.483
 8409SOL     OW35225   1.702   7.309   1.088
 8409SOL    HW135226   1.666   7.389   1.040
 8409SOL    HW235227   1.735   7.335   1.179
 8410SOL     OW35228   4.776   7.901   0.150
 8410SOL    HW135229   4.687   7.858   0.166
 8410SOL    HW235230   4.770   7.999   0.168
 8411SOL     OW35231   7.194   4.835   1.147
 8411SOL    HW135232   7.251   4.870   1.222
 8411SOL    HW235233   7.248   4.776   1.088
 8412SOL     OW35234   7.741   5.018   4.140
 8412SOL    HW135235   7.668   5.036   4.206
 8412SOL    HW235236   7.764   4.921   4.138
 8413SOL     OW35237   3.663   1.566   4.378
 8413SOL    HW135238   3.707   1.622   4.308
 8413SOL    HW235239   3.729   1.540   4.448
 8414SOL     OW35240   7.893   1.141   0.204
 8414SOL    HW135241   7.812   1.114   0.153
 8414SOL    HW235242   7.895   1.095   0.292
 8415SOL     OW35243   3.822   3.361   7.924
 8415SOL    HW135244   3.904   3.316   7.962
 8415SOL    HW235245   3.830   3.368   7.825
 8416SOL     OW35246   4.583   2.071   0.524
 8416SOL    HW135247   4.627   1.995   0.573
 8416SOL    HW235248   4.579   2.051   0.426
 8417SOL     OW35249   1.466   5.957   8.001
 8417SOL    HW135250   1.390   5.993   7.946
 8417SOL    HW235251   1.550   6.006   7.977
 8418SOL     OW35252   6.158   3.098   0.976
 8418SOL    HW135253   6.196   3.016   0.933
 8418SOL    HW235254   6.134   3.079   1.071
 8419SOL     OW35255   5.349   2.013   3.236
 8419SOL    HW135256   5.353   1.913   3.234
 8419SOL    HW235257   5.439   2.051   3.256
 8420SOL     OW35258   1.353   0.345   1.367
 8420SOL    HW135259   1.435   0.388   1.404
 8420SOL    HW235260   1.334   0.382   1.276
 8421SOL     OW35261   0.348   4.542   5.033
 8421SOL    HW135262   0.291   4.606   5.085
 8421SOL    HW235263   0.368   4.580   4.942
 8422SOL     OW35264   7.431   6.683   3.619
 8422SOL    HW135265   7.523   6.700   3.655
 8422SOL    HW235266   7.377   6.767   3.620
 8423SOL     OW35267   5.676   6.553   0.711
 8423SOL    HW135268   5.632   6.565   0.800
 8423SOL    HW235269   5.738   6.629   0.692
 8424SOL     OW35270   4.305   0.530   1.301
 8424SOL    HW135271   4.290   0.608   1.361
 8424SOL    HW235272   4.269   0.550   1.209
 8425SOL     OW35273   7.850   5.169   2.426
 8425SOL    HW135274   7.934   5.197   2.472
 8425SOL    HW235275   7.845   5.209   2.335
 8426SOL     OW35276   0.849   5.351   4.773
 8426SOL    HW135277   0.897   5.433   4.802
 8426SOL    HW235278   0.838   5.288   4.851
 8427SOL     OW35279   3.337   5.073   1.392
 8427SOL    HW135280   3.276   5.019   1.333
 8427SOL    HW235281   3.416   5.018   1.419
 8428SOL     OW35282   2.663   2.567   1.239
 8428SOL    HW135283   2.621   2.477   1.239
 8428SOL    HW235284   2.626   2.622   1.314
 8429SOL     OW35285   4.706   5.310   6.993
 8429SOL    HW135286   4.632   5.333   7.056
 8429SOL    HW235287   4.672   5.306   6.899
 8430SOL     OW35288   7.892   2.761   7.755
 8430SOL    HW135289   7.815   2.802   7.707
 8430SOL    HW235290   7.862   2.728   7.845
 8431SOL     OW35291   0.400   2.331   2.976
 8431SOL    HW135292   0.384   2.347   2.878
 8431SOL    HW235293   0.479   2.384   3.006
 8432SOL     OW35294   0.823   1.235   3.539
 8432SOL    HW135295   0.797   1.138   3.546
 8432SOL    HW235296   0.741   1.291   3.527
 8433SOL     OW35297   0.659   3.624   3.097
 8433SOL    HW135298   0.747   3.639   3.051
 8433SOL    HW235299   0.674   3.597   3.192
 8434SOL     OW35300   7.743   3.168   7.832
 8434SOL    HW135301   7.676   3.203   7.897
 8434SOL    HW235302   7.729   3.071   7.817
 8435SOL     OW35303   5.571   0.978   3.581
 8435SOL    HW135304   5.501   1.049   3.593
 8435SOL    HW235305   5.549   0.922   3.501
 8436SOL     OW35306   0.570   6.288   1.477
 8436SOL    HW135307   0.646   6.251   1.423
 8436SOL    HW235308   0.487   6.288   1.422
 8437SOL     OW35309   6.257   3.360   4.370
 8437SOL    HW135310   6.277   3.440   4.426
 8437SOL    HW235311   6.194   3.299   4.417
 8438SOL     OW35312   2.638   6.418   3.688
 8438SOL    HW135313   2.611   6.341   3.630
 8438SOL    HW235314   2.719   6.463   3.650
 8439SOL     OW35315   2.845   1.884   5.305
 8439SOL    HW135316   2.809   1.960   5.360
 8439SOL    HW235317   2.844   1.910   5.208
 8440SOL     OW35318   5.823   1.531   2.878
 8440SOL    HW135319   5.845   1.568   2.969
 8440SOL    HW235320   5.774   1.444   2.888
 8441SOL     OW35321   3.812   3.697   5.285
 8441SOL    HW135322   3.803   3.796   5.291
 8441SOL    HW235323   3.795   3.666   5.191
 8442SOL     OW35324   5.556   1.448   0.612
 8442SOL    HW135325   5.653   1.455   0.588
 8442SOL    HW235326   5.531   1.520   0.678
 8443SOL     OW35327   1.056   5.064   0.194
 8443SOL    HW135328   1.105   5.070   0.281
 8443SOL    HW235329   1.115   5.023   0.124
 8444SOL     OW35330   1.706   6.564   5.780
 8444SOL    HW135331   1.646   6.629   5.827
 8444SOL    HW235332   1.664   6.533   5.695
 8445SOL     OW35333   2.289   5.689   7.246
 8445SOL    HW135334   2.336   5.627   7.309
 8445SOL    HW235335   2.342   5.698   7.162
 8446SOL     OW35336   3.476   3.830   5.042
 8446SOL    HW135337   3.533   3.784   4.974
 8446SOL    HW235338   3.513   3.815   5.134
 8447SOL     OW35339   7.015   6.025   3.024
 8447SOL    HW135340   6.922   6.034   2.988
 8447SOL    HW235341   7.070   6.104   2.997
 8448SOL     OW35342   5.571   1.872   3.241
 8448SOL    HW135343   5.646   1.819   3.200
 8448SOL    HW235344   5.534   1.822   3.320
 8449SOL     OW35345   3.985   0.392   7.054
 8449SOL    HW135346   4.036   0.409   6.970
 8449SOL    HW235347   4.038   0.419   7.133
 8450SOL     OW35348   7.182   2.114   1.696
 8450SOL    HW135349   7.251   2.043   1.709
 8450SOL    HW235350   7.218   2.187   1.639
 8451SOL     OW35351   3.907   7.119   5.718
 8451SOL    HW135352   3.844   7.082   5.787
 8451SOL    HW235353   3.937   7.210   5.745
 8452SOL     OW35354   4.865   0.671   4.141
 8452SOL    HW135355   4.804   0.740   4.178
 8452SOL    HW235356   4.837   0.646   4.048
 8453SOL     OW35357   4.958   2.660   2.875
 8453SOL    HW135358   4.878   2.704   2.835
 8453SOL    HW235359   4.981   2.703   2.962
 8454SOL     OW35360   5.020   7.458   4.264
 8454SOL    HW135361   4.937   7.407   4.244
 8454SOL    HW235362   5.072   7.474   4.180
 8455SOL     OW35363   6.806   2.819   5.224
 8455SOL    HW135364   6.744   2.895   5.242
 8455SOL    HW235365   6.892   2.831   5.274
 8456SOL     OW35366   7.929   4.907   1.107
 8456SOL    HW135367   7.964   4.912   1.013
 8456SOL    HW235368   8.000   4.872   1.168
 8457SOL     OW35369   7.672   3.992   0.289
 8457SOL    HW135370   7.650   4.082   0.250
 8457SOL    HW235371   7.699   4.001   0.384
 8458SOL     OW35372   5.816   8.000   7.768
 8458SOL    HW135373   5.860   7.914   7.741
 8458SOL    HW235374   5.785   7.994   7.863
 8459SOL     OW35375   7.802   3.111   4.779
 8459SOL    HW135376   7.766   3.074   4.865
 8459SOL    HW235377   7.894   3.147   4.793
 8460SOL     OW35378   7.474   0.645   1.140
 8460SOL    HW135379   7.426   0.715   1.086
 8460SOL    HW235380   7.571   0.667   1.146
 8461SOL     OW35381   6.090   6.270   7.546
 8461SOL    HW135382   6.168   6.224   7.588
 8461SOL    HW235383   6.111   6.293   7.451
 8462SOL     OW35384   1.661   1.567   7.993
 8462SOL    HW135385   1.570   1.524   7.993
 8462SOL    HW235386   1.658   1.652   7.940
 8463SOL     OW35387   3.313   7.134   6.178
 8463SOL    HW135388   3.327   7.035   6.169
 8463SOL    HW235389   3.319   7.177   6.088
 8464SOL     OW35390   4.482   5.901   7.480
 8464SOL    HW135391   4.383   5.910   7.467
 8464SOL    HW235392   4.509   5.805   7.471
 8465SOL     OW35393   1.842   0.210   7.122
 8465SOL    HW135394   1.855   0.301   7.081
 8465SOL    HW235395   1.878   0.209   7.215
 8466SOL     OW35396   4.888   3.899   0.148
 8466SOL    HW135397   4.936   3.900   0.236
 8466SOL    HW235398   4.953   3.878   0.074
 8467SOL     OW35399   1.511   7.074   6.766
 8467SOL    HW135400   1.523   6.997   6.702
 8467SOL    HW235401   1.414   7.094   6.777
 8468SOL     OW35402   1.131   5.764   2.896
 8468SOL    HW135403   1.046   5.737   2.850
 8468SOL    HW235404   1.194   5.805   2.830
 8469SOL     OW35405   7.332   2.955   2.797
 8469SOL    HW135406   7.353   3.024   2.728
 8469SOL    HW235407   7.362   2.987   2.887
 8470SOL     OW35408   4.819   1.308   0.060
 8470SOL    HW135409   4.893   1.277   0.000
 8470SOL    HW235410   4.815   1.252   0.142
 8471SOL     OW35411   7.988   1.118   3.659
 8471SOL    HW135412   7.898   1.147   3.627
 8471SOL    HW235413   8.000   1.143   3.755
 8472SOL     OW35414   5.723   1.711   2.063
 8472SOL    HW135415   5.797   1.652   2.096
 8472SOL    HW235416   5.752   1.807   2.066
 8473SOL     OW35417   5.299   7.561   3.083
 8473SOL    HW135418   5.392   7.588   3.108
 8473SOL    HW235419   5.291   7.461   3.085
 8474SOL     OW35420   4.869   7.458   0.236
 8474SOL    HW135421   4.944   7.507   0.281
 8474SOL    HW235422   4.789   7.518   0.230
 8475SOL     OW35423   5.783   6.130   1.772
 8475SOL    HW135424   5.773   6.031   1.760
 8475SOL    HW235425   5.861   6.163   1.719
 8476SOL     OW35426   7.232   0.203   0.172
 8476SOL    HW135427   7.238   0.228   0.076
 8476SOL    HW235428   7.306   0.140   0.196
 8477SOL     OW35429   0.283   0.826   1.838
 8477SOL    HW135430   0.186   0.831   1.864
 8477SOL    HW235431   0.292   0.784   1.748
 8478SOL     OW35432   4.335   5.846   2.710
 8478SOL    HW135433   4.383   5.830   2.623
 8478SOL    HW235434   4.325   5.759   2.760
 8479SOL     OW35435   7.430   4.369   2.950
 8479SOL    HW135436   7.397   4.463   2.962
 8479SOL    HW235437   7.520   4.359   2.991
 8480SOL     OW35438   1.357   6.860   7.884
 8480SOL    HW135439   1.281   6.923   7.904
 8480SOL    HW235440   1.442   6.911   7.877
 8481SOL     OW35441   4.468   3.739   0.172
 8481SOL    HW135442   4.410   3.748   0.253
 8481SOL    HW235443   4.562   3.762   0.195
 8482SOL     OW35444   0.198   5.242   5.300
 8482SOL    HW135445   0.234   5.265   5.391
 8482SOL    HW235446   0.265   5.187   5.250
 8483SOL     OW35447   0.011   1.598   7.512
 8483SOL    HW135448   0.079   1.528   7.528
 8483SOL    HW235449   0.031   1.646   7.426
 8484SOL     OW35450   1.762   4.378   5.008
 8484SOL    HW135451   1.784   4.365   4.911
 8484SOL    HW235452   1.827   4.327   5.065
 8485SOL     OW35453   2.564   5.857   3.459
 8485SOL    HW135454   2.502   5.786   3.425
 8485SOL    HW235455   2.517   5.945   3.459
 8486SOL     OW35456   6.715   4.321   5.271
 8486SOL    HW135457   6.618   4.345   5.258
 8486SOL    HW235458   6.723   4.227   5.303
 8487SOL     OW35459   0.642   5.196   1.390
 8487SOL    HW135460   0.681   5.187   1.298
 8487SOL    HW235461   0.549   5.160   1.391
 8488SOL     OW35462   6.363   2.081   0.149
 8488SOL    HW135463   6.306   2.154   0.186
 8488SOL    HW235464   6.332   2.056   0.058
 8489SOL     OW35465   3.811   0.643   1.917
 8489SOL    HW135466   3.835   0.578   1.845
 8489SOL    HW235467   3.783   0.730   1.876
 8490SOL     OW35468   6.874   4.156   0.075
 8490SOL    HW135469   6.876   4.056   0.082
 8490SOL    HW235470   6.967   4.191   0.063
 8491SOL     OW35471   3.337   2.986   2.984
 8491SOL    HW135472   3.356   2.989   2.886
 8491SOL    HW235473   3.423   2.981   3.035
 8492SOL     OW35474   4.007   2.171   3.598
 8492SOL    HW135475   4.069   2.248   3.579
 8492SOL    HW235476   4.012   2.147   3.695
 8493SOL     OW35477   7.276   4.109   5.237
 8493SOL    HW135478   7.335   4.044   5.286
 8493SOL    HW235479   7.323   4.141   5.155
 8494SOL     OW35480   1.377   5.361   1.235
 8494SOL    HW135481   1.380   5.270   1.275
 8494SOL    HW235482   1.442   5.368   1.159
 8495SOL     OW35483   3.401   2.689   3.657
 8495SOL    HW135484   3.462   2.731   3.591
 8495SOL    HW235485   3.429   2.595   3.675
 8496SOL     OW35486   7.564   5.201   1.184
 8496SOL    HW135487   7.637   5.132   1.187
 8496SOL    HW235488   7.499   5.187   1.258
 8497SOL     OW35489   2.749   1.440   3.718
 8497SOL    HW135490   2.657   1.474   3.698
 8497SOL    HW235491   2.746   1.343   3.742
 8498SOL     OW35492   4.792   6.308   0.815
 8498SOL    HW135493   4.847   6.357   0.748
 8498SOL    HW235494   4.846   6.237   0.859
 8499SOL     OW35495   0.703   2.788   5.187
 8499SOL    HW135496   0.799   2.781   5.215
 8499SOL    HW235497   0.697   2.832   5.097
 8500SOL     OW35498   4.209   4.482   2.313
 8500SOL    HW135499   4.131   4.498   2.253
 8500SOL    HW235500   4.222   4.384   2.328
 8501SOL     OW35501   7.533   6.601   6.420
 8501SOL    HW135502   7.440   6.571   6.443
 8501SOL    HW235503   7.546   6.696   6.451
 8502SOL     OW35504   6.784   6.430   4.490
 8502SOL    HW135505   6.763   6.409   4.586
 8502SOL    HW235506   6.757   6.353   4.432
 8503SOL     OW35507   0.888   2.871   4.731
 8503SOL    HW135508   0.835   2.955   4.743
 8503SOL    HW235509   0.978   2.893   4.692
 8504SOL     OW35510   1.802   1.641   2.358
 8504SOL    HW135511   1.821   1.576   2.431
 8504SOL    HW235512   1.704   1.661   2.354
 8505SOL     OW35513   2.228   0.909   3.848
 8505SOL    HW135514   2.230   0.809   3.843
 8505SOL    HW235515   2.320   0.943   3.870
 8506SOL     OW35516   3.093   5.811   0.278
 8506SOL    HW135517   3.074   5.803   0.180
 8506SOL    HW235518   3.178   5.762   0.300
 8507SOL     OW35519   2.219   6.103   0.088
 8507SOL    HW135520   2.193   6.014   0.125
 8507SOL    HW235521   2.266   6.091   0.001
 8508SOL     OW35522   2.337   6.682   0.470
 8508SOL    HW135523   2.262   6.634   0.424
 8508SOL    HW235524   2.315   6.696   0.566
 8509SOL     OW35525   5.977   2.913   3.096
 8509SOL    HW135526   6.066   2.932   3.055
 8509SOL    HW235527   5.989   2.874   3.188
 8510SOL     OW35528   0.475   7.283   1.667
 8510SOL    HW135529   0.543   7.260   1.737
 8510SOL    HW235530   0.519   7.334   1.592
 8511SOL     OW35531   2.740   7.425   7.403
 8511SOL    HW135532   2.829   7.400   7.442
 8511SOL    HW235533   2.754   7.484   7.323
 8512SOL     OW35534   5.556   4.562   2.182
 8512SOL    HW135535   5.547   4.469   2.145
 8512SOL    HW235536   5.500   4.571   2.264
 8513SOL     OW35537   4.315   4.981   2.221
 8513SOL    HW135538   4.322   4.882   2.211
 8513SOL    HW235539   4.358   5.010   2.307
 8514SOL     OW35540   7.490   7.916   2.514
 8514SOL    HW135541   7.436   8.000   2.516
 8514SOL    HW235542   7.572   7.930   2.458
 8515SOL     OW35543   6.038   7.929   7.102
 8515SOL    HW135544   5.968   8.000   7.104
 8515SOL    HW235545   6.111   7.951   7.167
 8516SOL     OW35546   1.943   3.499   2.317
 8516SOL    HW135547   2.012   3.432   2.290
 8516SOL    HW235548   1.931   3.498   2.416
 8517SOL     OW35549   4.223   1.563   6.473
 8517SOL    HW135550   4.132   1.531   6.500
 8517SOL    HW235551   4.265   1.497   6.411
 8518SOL     OW35552   4.866   0.900   7.104
 8518SOL    HW135553   4.797   0.879   7.173
 8518SOL    HW235554   4.822   0.944   7.025
 8519SOL     OW35555   2.894   5.512   0.361
 8519SOL    HW135556   2.875   5.475   0.451
 8519SOL    HW235557   2.824   5.579   0.336
 8520SOL     OW35558   0.555   2.542   7.176
 8520SOL    HW135559   0.630   2.503   7.122
 8520SOL    HW235560   0.526   2.629   7.134
 8521SOL     OW35561   3.671   6.487   5.027
 8521SOL    HW135562   3.751   6.489   5.087
 8521SOL    HW235563   3.612   6.565   5.046
 8522SOL     OW35564   1.091   5.961   6.393
 8522SOL    HW135565   1.184   5.963   6.430
 8522SOL    HW235566   1.091   5.991   6.298
 8523SOL     OW35567   0.274   1.018   3.283
 8523SOL    HW135568   0.315   1.041   3.194
 8523SOL    HW235569   0.323   0.942   3.325
 8524SOL     OW35570   2.626   2.968   3.537
 8524SOL    HW135571   2.704   2.933   3.589
 8524SOL    HW235572   2.600   2.902   3.466
 8525SOL     OW35573   6.373   7.064   0.898
 8525SOL    HW135574   6.390   6.971   0.865
 8525SOL    HW235575   6.328   7.061   0.987
 8526SOL     OW35576   4.060   5.518   6.817
 8526SOL    HW135577   4.058   5.594   6.881
 8526SOL    HW235578   4.127   5.450   6.847
 8527SOL     OW35579   2.452   3.116   6.501
 8527SOL    HW135580   2.427   3.084   6.410
 8527SOL    HW235581   2.401   3.200   6.523
 8528SOL     OW35582   4.527   6.575   3.087
 8528SOL    HW135583   4.585   6.623   3.153
 8528SOL    HW235584   4.438   6.621   3.081
 8529SOL     OW35585   5.191   5.326   0.927
 8529SOL    HW135586   5.263   5.329   0.857
 8529SOL    HW235587   5.184   5.233   0.964
 8530SOL     OW35588   2.754   6.929   3.810
 8530SOL    HW135589   2.695   6.848   3.819
 8530SOL    HW235590   2.772   6.947   3.713
 8531SOL     OW35591   3.709   5.218   7.306
 8531SOL    HW135592   3.638   5.150   7.325
 8531SOL    HW235593   3.770   5.183   7.234
 8532SOL     OW35594   4.790   6.485   4.415
 8532SOL    HW135595   4.854   6.554   4.381
 8532SOL    HW235596   4.827   6.440   4.496
 8533SOL     OW35597   7.104   3.235   4.214
 8533SOL    HW135598   7.165   3.185   4.153
 8533SOL    HW235599   7.011   3.236   4.177
 8534SOL     OW35600   4.543   7.367   5.357
 8534SOL    HW135601   4.443   7.366   5.369
 8534SOL    HW235602   4.569   7.307   5.282
 8535SOL     OW35603   7.497   7.579   7.099
 8535SOL    HW135604   7.584   7.595   7.052
 8535SOL    HW235605   7.513   7.532   7.186
 8536SOL     OW35606   5.989   5.453   6.716
 8536SOL    HW135607   6.080   5.444   6.756
 8536SOL    HW235608   5.969   5.374   6.657
 8537SOL     OW35609   6.493   3.950   3.677
 8537SOL    HW135610   6.430   3.917   3.748
 8537SOL    HW235611   6.540   3.872   3.634
 8538SOL     OW35612   3.350   1.424   6.391
 8538SOL    HW135613   3.320   1.393   6.481
 8538SOL    HW235614   3.445   1.456   6.396
 8539SOL     OW35615   5.064   7.787   6.155
 8539SOL    HW135616   5.149   7.811   6.109
 8539SOL    HW235617   5.071   7.694   6.192
 8540SOL     OW35618   4.977   1.565   6.860
 8540SOL    HW135619   4.995   1.475   6.819
 8540SOL    HW235620   4.932   1.554   6.949
 8541SOL     OW35621   5.853   6.657   1.217
 8541SOL    HW135622   5.936   6.687   1.266
 8541SOL    HW235623   5.846   6.704   1.130
 8542SOL     OW35624   2.918   7.293   6.827
 8542SOL    HW135625   2.955   7.224   6.890
 8542SOL    HW235626   2.992   7.352   6.795
 8543SOL     OW35627   7.374   6.131   2.931
 8543SOL    HW135628   7.296   6.133   2.993
 8543SOL    HW235629   7.343   6.112   2.838
 8544SOL     OW35630   6.573   1.144   7.923
 8544SOL    HW135631   6.666   1.132   7.957
 8544SOL    HW235632   6.510   1.155   8.000
 8545SOL     OW35633   2.940   1.529   3.204
 8545SOL    HW135634   2.887   1.595   3.257
 8545SOL    HW235635   2.959   1.565   3.113
 8546SOL     OW35636   6.151   5.235   4.645
 8546SOL    HW135637   6.194   5.159   4.694
 8546SOL    HW235638   6.174   5.232   4.548
 8547SOL     OW35639   5.846   5.328   5.856
 8547SOL    HW135640   5.858   5.300   5.951
 8547SOL    HW235641   5.842   5.248   5.796
 8548SOL     OW35642   4.818   1.861  -0.001
 8548SOL    HW135643   4.745   1.929   0.002
 8548SOL    HW235644   4.895   1.891   0.056
 8549SOL     OW35645   0.768   3.027   4.339
 8549SOL    HW135646   0.781   3.126   4.338
 8549SOL    HW235647   0.752   2.994   4.246
 8550SOL     OW35648   1.252   3.279   5.158
 8550SOL    HW135649   1.250   3.355   5.223
 8550SOL    HW235650   1.235   3.192   5.206
 8551SOL     OW35651   6.071   5.376   0.748
 8551SOL    HW135652   5.987   5.422   0.779
 8551SOL    HW235653   6.084   5.390   0.650
 8552SOL     OW35654   6.320   2.918   5.391
 8552SOL    HW135655   6.393   2.882   5.333
 8552SOL    HW235656   6.346   3.008   5.426
 8553SOL     OW35657   0.262   7.999   4.222
 8553SOL    HW135658   0.242   7.919   4.279
 8553SOL    HW235659   0.283   7.971   4.129
 8554SOL     OW35660   5.878   4.124   3.733
 8554SOL    HW135661   5.927   4.192   3.788
 8554SOL    HW235662   5.880   4.035   3.778
 8555SOL     OW35663   1.339   2.710   5.499
 8555SOL    HW135664   1.261   2.770   5.518
 8555SOL    HW235665   1.401   2.709   5.578
 8556SOL     OW35666   1.221   6.970   7.263
 8556SOL    HW135667   1.132   6.928   7.247
 8556SOL    HW235668   1.273   6.915   7.328
 8557SOL     OW35669   7.556   5.464   3.239
 8557SOL    HW135670   7.533   5.559   3.215
 8557SOL    HW235671   7.549   5.406   3.157
 8558SOL     OW35672   7.588   5.076   2.360
 8558SOL    HW135673   7.661   5.054   2.425
 8558SOL    HW235674   7.556   4.992   2.316
 8559SOL     OW35675   3.516   3.151   5.818
 8559SOL    HW135676   3.511   3.227   5.882
 8559SOL    HW235677   3.600   3.099   5.833
 8560SOL     OW35678   0.792   5.261   3.980
 8560SOL    HW135679   0.746   5.182   4.023
 8560SOL    HW235680   0.731   5.340   3.982
 8561SOL     OW35681   2.159   3.079   1.103
 8561SOL    HW135682   2.131   3.042   1.192
 8561SOL    HW235683   2.169   3.178   1.109
 8562SOL     OW35684   4.125   1.975   6.879
 8562SOL    HW135685   4.037   1.957   6.836
 8562SOL    HW235686   4.142   2.074   6.883
 8563SOL     OW35687   4.256   5.714   5.845
 8563SOL    HW135688   4.204   5.790   5.885
 8563SOL    HW235689   4.324   5.749   5.781
 8564SOL     OW35690   4.803   6.466   2.750
 8564SOL    HW135691   4.775   6.556   2.786
 8564SOL    HW235692   4.752   6.446   2.666
 8565SOL     OW35693   0.632   3.411   6.728
 8565SOL    HW135694   0.664   3.326   6.771
 8565SOL    HW235695   0.670   3.419   6.636
 8566SOL     OW35696   4.811   1.725   4.685
 8566SOL    HW135697   4.760   1.810   4.699
 8566SOL    HW235698   4.748   1.649   4.670
 8567SOL     OW35699   0.652   5.896   3.594
 8567SOL    HW135700   0.691   5.809   3.625
 8567SOL    HW235701   0.602   5.940   3.669
 8568SOL     OW35702   0.594   5.503   6.899
 8568SOL    HW135703   0.515   5.561   6.923
 8568SOL    HW235704   0.566   5.433   6.833
 8569SOL     OW35705   3.617   4.844   4.266
 8569SOL    HW135706   3.668   4.871   4.184
 8569SOL    HW235707   3.602   4.924   4.324
 8570SOL     OW35708   6.356   1.232   6.822
 8570SOL    HW135709   6.340   1.150   6.767
 8570SOL    HW235710   6.409   1.209   6.904
 8571SOL     OW35711   7.224   2.286   5.494
 8571SOL    HW135712   7.316   2.325   5.492
 8571SOL    HW235713   7.177   2.306   5.408
 8572SOL     OW35714   0.346   0.104   6.963
 8572SOL    HW135715   0.255   0.075   6.933
 8572SOL    HW235716   0.361   0.080   7.058
 8573SOL     OW35717   4.845   0.163   3.495
 8573SOL    HW135718   4.887   0.097   3.432
 8573SOL    HW235719   4.794   0.232   3.444
 8574SOL     OW35720   3.605   1.368   3.393
 8574SOL    HW135721   3.697   1.332   3.385
 8574SOL    HW235722   3.572   1.399   3.304
 8575SOL     OW35723   0.733   6.167   2.337
 8575SOL    HW135724   0.795   6.235   2.296
 8575SOL    HW235725   0.768   6.138   2.426
 8576SOL     OW35726   6.391   2.956   3.587
 8576SOL    HW135727   6.412   2.861   3.611
 8576SOL    HW235728   6.423   2.976   3.494
 8577SOL     OW35729   5.932   5.536   4.311
 8577SOL    HW135730   5.937   5.577   4.220
 8577SOL    HW235731   5.971   5.598   4.379
 8578SOL     OW35732   4.609   6.876   7.044
 8578SOL    HW135733   4.560   6.919   7.120
 8578SOL    HW235734   4.694   6.835   7.078
 8579SOL     OW35735   4.115   7.161   7.839
 8579SOL    HW135736   4.161   7.075   7.813
 8579SOL    HW235737   4.184   7.230   7.861
 8580SOL     OW35738   4.967   5.998   6.977
 8580SOL    HW135739   4.927   6.059   7.046
 8580SOL    HW235740   5.030   6.049   6.919
 8581SOL     OW35741   1.949   5.441   1.197
 8581SOL    HW135742   1.960   5.345   1.172
 8581SOL    HW235743   2.013   5.498   1.145
 8582SOL     OW35744   7.840   7.840   0.738
 8582SOL    HW135745   7.894   7.922   0.714
 8582SOL    HW235746   7.804   7.799   0.655
 8583SOL     OW35747   0.868   0.145   3.327
 8583SOL    HW135748   0.881   0.217   3.259
 8583SOL    HW235749   0.867   0.184   3.419
 8584SOL     OW35750   6.391   2.334   2.992
 8584SOL    HW135751   6.339   2.264   2.944
 8584SOL    HW235752   6.404   2.308   3.088
 8585SOL     OW35753   1.336   0.585   1.573
 8585SOL    HW135754   1.317   0.649   1.498
 8585SOL    HW235755   1.339   0.635   1.660
 8586SOL     OW35756   3.116   1.032   1.154
 8586SOL    HW135757   3.031   0.991   1.120
 8586SOL    HW235758   3.104   1.064   1.248
 8587SOL     OW35759   4.085   3.665   0.732
 8587SOL    HW135760   4.168   3.704   0.772
 8587SOL    HW235761   4.054   3.587   0.786
 8588SOL     OW35762   1.556   2.901   0.577
 8588SOL    HW135763   1.484   2.832   0.587
 8588SOL    HW235764   1.585   2.907   0.482
 8589SOL     OW35765   0.134   7.342   7.285
 8589SOL    HW135766   0.222   7.316   7.323
 8589SOL    HW235767   0.060   7.299   7.336
 8590SOL     OW35768   0.646   5.743   0.978
 8590SOL    HW135769   0.608   5.711   0.891
 8590SOL    HW235770   0.639   5.670   1.047
 8591SOL     OW35771   5.216   7.443   4.384
 8591SOL    HW135772   5.142   7.417   4.447
 8591SOL    HW235773   5.222   7.377   4.309
 8592SOL     OW35774   6.616   3.049   3.005
 8592SOL    HW135775   6.517   3.051   2.994
 8592SOL    HW235776   6.641   2.978   3.071
 8593SOL     OW35777   4.657   7.603   1.244
 8593SOL    HW135778   4.756   7.616   1.254
 8593SOL    HW235779   4.627   7.635   1.155
 8594SOL     OW35780   5.305   0.260   1.714
 8594SOL    HW135781   5.398   0.230   1.693
 8594SOL    HW235782   5.244   0.181   1.720
 8595SOL     OW35783   0.656   4.396   3.554
 8595SOL    HW135784   0.721   4.457   3.510
 8595SOL    HW235785   0.695   4.359   3.638
 8596SOL     OW35786   4.249   2.857   5.810
 8596SOL    HW135787   4.252   2.944   5.760
 8596SOL    HW235788   4.316   2.858   5.884
 8597SOL     OW35789   1.757   2.351   0.410
 8597SOL    HW135790   1.809   2.324   0.491
 8597SOL    HW235791   1.764   2.280   0.340
 8598SOL     OW35792   7.942   2.714   3.868
 8598SOL    HW135793   8.000   2.636   3.892
 8598SOL    HW235794   7.885   2.691   3.789
 8599SOL     OW35795   7.098   3.568   2.121
 8599SOL    HW135796   7.121   3.648   2.175
 8599SOL    HW235797   7.137   3.576   2.029
 8600SOL     OW35798   4.803   3.943   0.828
 8600SOL    HW135799   4.720   3.953   0.883
 8600SOL    HW235800   4.781   3.903   0.739
 8601SOL     OW35801   7.794   6.494   3.943
 8601SOL    HW135802   7.709   6.511   3.892
 8601SOL    HW235803   7.815   6.572   4.002
 8602SOL     OW35804   3.703   6.001   6.196
 8602SOL    HW135805   3.769   6.060   6.149
 8602SOL    HW235806   3.616   6.001   6.147
 8603SOL     OW35807   1.936   2.341   1.773
 8603SOL    HW135808   1.876   2.360   1.694
 8603SOL    HW235809   1.885   2.291   1.843
 8604SOL     OW35810   7.351   4.556   2.409
 8604SOL    HW135811   7.375   4.640   2.360
 8604SOL    HW235812   7.287   4.502   2.353
 8605SOL     OW35813   7.319   2.313   4.059
 8605SOL    HW135814   7.410   2.281   4.086
 8605SOL    HW235815   7.326   2.390   3.997
 8606SOL     OW35816   7.350   5.600   3.029
 8606SOL    HW135817   7.434   5.653   3.035
 8606SOL    HW235818   7.275   5.648   3.075
 8607SOL     OW35819   2.643   6.731   2.064
 8607SOL    HW135820   2.575   6.673   2.020
 8607SOL    HW235821   2.611   6.758   2.155
 8608SOL     OW35822   4.763   4.568   0.534
 8608SOL    HW135823   4.819   4.571   0.451
 8608SOL    HW235824   4.673   4.606   0.516
 8609SOL     OW35825   3.161   6.248   2.434
 8609SOL    HW135826   3.114   6.179   2.378
 8609SOL    HW235827   3.129   6.241   2.529
 8610SOL     OW35828   0.944   6.470   1.830
 8610SOL    HW135829   1.024   6.461   1.890
 8610SOL    HW235830   0.869   6.515   1.879
 8611SOL     OW35831   5.852   1.114   0.969
 8611SOL    HW135832   5.900   1.176   0.907
 8611SOL    HW235833   5.834   1.027   0.924
 8612SOL     OW35834   5.839   0.831   3.622
 8612SOL    HW135835   5.887   0.768   3.561
 8612SOL    HW235836   5.805   0.782   3.702
 8613SOL     OW35837   2.588   0.902   3.421
 8613SOL    HW135838   2.581   0.838   3.498
 8613SOL    HW235839   2.678   0.894   3.378
 8614SOL     OW35840   0.537   4.078   6.634
 8614SOL    HW135841   0.628   4.091   6.674
 8614SOL    HW235842   0.528   4.132   6.550
 8615SOL     OW35843   7.686   1.237   4.539
 8615SOL    HW135844   7.740   1.160   4.573
 8615SOL    HW235845   7.729   1.276   4.458
 8616SOL     OW35846   2.473   8.001   0.022
 8616SOL    HW135847   2.517   7.914  -0.001
 8616SOL    HW235848   2.424   7.992   0.109
 8617SOL     OW35849   2.081   6.680   0.593
 8617SOL    HW135850   1.983   6.668   0.577
 8617SOL    HW235851   2.096   6.758   0.653
 8618SOL     OW35852   6.999   0.787   1.113
 8618SOL    HW135853   7.029   0.882   1.127
 8618SOL    HW235854   6.988   0.768   1.016
 8619SOL     OW35855   2.617   4.227   3.207
 8619SOL    HW135856   2.556   4.201   3.133
 8619SOL    HW235857   2.602   4.169   3.287
 8620SOL     OW35858   5.080   3.178   0.706
 8620SOL    HW135859   4.981   3.178   0.688
 8620SOL    HW235860   5.106   3.094   0.752
 8621SOL     OW35861   5.360   5.532   5.260
 8621SOL    HW135862   5.446   5.491   5.290
 8621SOL    HW235863   5.363   5.631   5.274
 8622SOL     OW35864   4.944   1.015   3.648
 8622SOL    HW135865   4.937   0.926   3.693
 8622SOL    HW235866   4.915   1.008   3.553
 8623SOL     OW35867   0.102   0.799   5.637
 8623SOL    HW135868   0.107   0.850   5.723
 8623SOL    HW235869   0.092   0.701   5.655
 8624SOL     OW35870   1.960   6.892   5.647
 8624SOL    HW135871   1.987   6.988   5.634
 8624SOL    HW235872   2.040   6.837   5.670
 8625SOL     OW35873   3.572   0.484   0.591
 8625SOL    HW135874   3.525   0.572   0.600
 8625SOL    HW235875   3.607   0.473   0.498
 8626SOL     OW35876   2.759   6.910   1.898
 8626SOL    HW135877   2.730   6.920   1.993
 8626SOL    HW235878   2.681   6.882   1.842
 8627SOL     OW35879   5.665   4.848   0.278
 8627SOL    HW135880   5.585   4.822   0.224
 8627SOL    HW235881   5.640   4.859   0.374
 8628SOL     OW35882   4.851   5.378   5.408
 8628SOL    HW135883   4.779   5.442   5.383
 8628SOL    HW235884   4.880   5.395   5.502
 8629SOL     OW35885   3.544   4.364   7.089
 8629SOL    HW135886   3.467   4.320   7.041
 8629SOL    HW235887   3.630   4.340   7.043
 8630SOL     OW35888   5.650   3.144   7.472
 8630SOL    HW135889   5.570   3.088   7.450
 8630SOL    HW235890   5.716   3.141   7.396
 8631SOL     OW35891   4.471   2.354   1.365
 8631SOL    HW135892   4.477   2.356   1.465
 8631SOL    HW235893   4.561   2.370   1.325
 8632SOL     OW35894   4.896   7.220   3.916
 8632SOL    HW135895   4.925   7.254   4.005
 8632SOL    HW235896   4.832   7.284   3.874
 8633SOL     OW35897   5.387   2.874   7.346
 8633SOL    HW135898   5.417   2.966   7.320
 8633SOL    HW235899   5.412   2.856   7.440
 8634SOL     OW35900   0.858   1.390   7.045
 8634SOL    HW135901   0.873   1.311   6.985
 8634SOL    HW235902   0.890   1.370   7.137
 8635SOL     OW35903   6.604   6.450   4.142
 8635SOL    HW135904   6.517   6.402   4.127
 8635SOL    HW235905   6.663   6.440   4.062
 8636SOL     OW35906   1.349   2.009   6.677
 8636SOL    HW135907   1.334   2.067   6.758
 8636SOL    HW235908   1.445   1.983   6.671
 8637SOL     OW35909   1.144   5.740   7.798
 8637SOL    HW135910   1.082   5.668   7.765
 8637SOL    HW235911   1.114   5.770   7.889
 8638SOL     OW35912   4.620   7.460   6.862
 8638SOL    HW135913   4.671   7.507   6.790
 8638SOL    HW235914   4.682   7.404   6.916
 8639SOL     OW35915   6.038   6.880   3.443
 8639SOL    HW135916   5.953   6.832   3.463
 8639SOL    HW235917   6.094   6.825   3.380
 8640SOL     OW35918   4.405   2.835   4.875
 8640SOL    HW135919   4.332   2.852   4.808
 8640SOL    HW235920   4.470   2.911   4.875
 8641SOL     OW35921   0.634   7.922   1.462
 8641SOL    HW135922   0.601   7.854   1.396
 8641SOL    HW235923   0.701   7.880   1.523
 8642SOL     OW35924   0.418   7.442   5.091
 8642SOL    HW135925   0.352   7.510   5.123
 8642SOL    HW235926   0.456   7.470   5.003
 8643SOL     OW35927   7.099   4.113   2.182
 8643SOL    HW135928   7.077   4.022   2.148
 8643SOL    HW235929   7.076   4.119   2.279
 8644SOL     OW35930   6.739   2.538   1.474
 8644SOL    HW135931   6.795   2.467   1.517
 8644SOL    HW235932   6.642   2.517   1.485
 8645SOL     OW35933   3.124   4.146   2.712
 8645SOL    HW135934   3.195   4.112   2.649
 8645SOL    HW235935   3.065   4.071   2.741
 8646SOL     OW35936   7.751   7.205   0.384
 8646SOL    HW135937   7.821   7.170   0.446
 8646SOL    HW235938   7.716   7.131   0.327
 8647SOL     OW35939   2.051   7.467   3.938
 8647SOL    HW135940   2.043   7.560   3.901
 8647SOL    HW235941   2.089   7.470   4.030
 8648SOL     OW35942   3.806   4.017   2.811
 8648SOL    HW135943   3.782   3.923   2.835
 8648SOL    HW235944   3.819   4.025   2.712
 8649SOL     OW35945   0.979   6.099   4.981
 8649SOL    HW135946   1.009   6.110   4.886
 8649SOL    HW235947   0.897   6.041   4.985
 8650SOL     OW35948   3.542   6.746   1.803
 8650SOL    HW135949   3.455   6.741   1.852
 8650SOL    HW235950   3.532   6.703   1.713
 8651SOL     OW35951   1.494   7.910   1.785
 8651SOL    HW135952   1.451   8.000   1.791
 8651SOL    HW235953   1.424   7.839   1.783
 8652SOL     OW35954   4.175   6.820   0.067
 8652SOL    HW135955   4.101   6.829  -0.000
 8652SOL    HW235956   4.225   6.907   0.073
 8653SOL     OW35957   3.089   3.051   2.812
 8653SOL    HW135958   3.095   2.971   2.753
 8653SOL    HW235959   3.137   3.033   2.898
 8654SOL     OW35960   3.105   4.420   2.967
 8654SOL    HW135961   3.194   4.375   2.977
 8654SOL    HW235962   3.104   4.475   2.883
 8655SOL     OW35963   4.383   0.530   1.807
 8655SOL    HW135964   4.387   0.494   1.714
 8655SOL    HW235965   4.296   0.577   1.822
 8656SOL     OW35966   6.044   3.945   0.391
 8656SOL    HW135967   6.099   3.879   0.339
 8656SOL    HW235968   6.048   3.923   0.488
 8657SOL     OW35969   1.975   4.920   6.633
 8657SOL    HW135970   1.940   4.837   6.591
 8657SOL    HW235971   1.967   4.914   6.732
 8658SOL     OW35972   2.979   5.562   5.643
 8658SOL    HW135973   2.918   5.641   5.639
 8658SOL    HW235974   2.996   5.536   5.738
 8659SOL     OW35975   6.473   4.525   0.454
 8659SOL    HW135976   6.452   4.427   0.449
 8659SOL    HW235977   6.445   4.561   0.543
 8660SOL     OW35978   6.073   4.165   1.006
 8660SOL    HW135979   6.154   4.128   0.960
 8660SOL    HW235980   6.061   4.119   1.094
 8661SOL     OW35981   5.427   0.534   3.202
 8661SOL    HW135982   5.421   0.455   3.141
 8661SOL    HW235983   5.450   0.504   3.295
 8662SOL     OW35984   3.742   6.159   3.070
 8662SOL    HW135985   3.759   6.180   2.973
 8662SOL    HW235986   3.690   6.234   3.112
 8663SOL     OW35987   0.003   5.631   1.655
 8663SOL    HW135988   0.076   5.607   1.591
 8663SOL    HW235989  -0.000   5.564   1.729
 8664SOL     OW35990   2.015   7.046   5.874
 8664SOL    HW135991   1.994   6.949   5.861
 8664SOL    HW235992   1.944   7.090   5.929
 8665SOL     OW35993   1.986   2.472   6.039
 8665SOL    HW135994   2.045   2.533   5.986
 8665SOL    HW235995   1.951   2.399   5.980
 8666SOL     OW35996   5.466   4.431   7.057
 8666SOL    HW135997   5.382   4.386   7.088
 8666SOL    HW235998   5.489   4.401   6.965
 8667SOL     OW35999   5.360   1.453   6.443
 8667SOL    HW136000   5.353   1.546   6.480
 8667SOL    HW236001   5.351   1.455   6.344
 8668SOL     OW36002   6.141   4.620   3.068
 8668SOL    HW136003   6.227   4.584   3.030
 8668SOL    HW236004   6.127   4.714   3.039
 8669SOL     OW36005   4.428   7.339   1.649
 8669SOL    HW136006   4.456   7.401   1.722
 8669SOL    HW236007   4.480   7.254   1.656
 8670SOL     OW36008   3.993   6.265   3.148
 8670SOL    HW136009   3.930   6.277   3.072
 8670SOL    HW236010   4.030   6.353   3.178
 8671SOL     OW36011   0.683   2.566   0.331
 8671SOL    HW136012   0.593   2.609   0.333
 8671SOL    HW236013   0.706   2.539   0.238
 8672SOL     OW36014   4.901   6.427   7.939
 8672SOL    HW136015   4.828   6.367   7.971
 8672SOL    HW236016   4.905   6.510   7.995
 8673SOL     OW36017   0.473   3.924   2.060
 8673SOL    HW136018   0.381   3.885   2.066
 8673SOL    HW236019   0.525   3.878   1.988
 8674SOL     OW36020   6.218   7.206   5.712
 8674SOL    HW136021   6.146   7.171   5.772
 8674SOL    HW236022   6.197   7.300   5.685
 8675SOL     OW36023   3.146   7.079   0.875
 8675SOL    HW136024   3.184   7.170   0.864
 8675SOL    HW236025   3.046   7.083   0.875
 8676SOL     OW36026   7.381   5.700   1.806
 8676SOL    HW136027   7.455   5.665   1.864
 8676SOL    HW236028   7.418   5.735   1.721
 8677SOL     OW36029   0.635   2.784   1.119
 8677SOL    HW136030   0.548   2.759   1.076
 8677SOL    HW236031   0.618   2.824   1.209
 8678SOL     OW36032   3.756   4.250   0.861
 8678SOL    HW136033   3.765   4.207   0.951
 8678SOL    HW236034   3.660   4.248   0.832
 8679SOL     OW36035   3.809   5.883   6.470
 8679SOL    HW136036   3.874   5.933   6.527
 8679SOL    HW236037   3.794   5.932   6.384
 8680SOL     OW36038   5.123   7.394   1.349
 8680SOL    HW136039   5.144   7.435   1.438
 8680SOL    HW236040   5.113   7.295   1.358
 8681SOL     OW36041   5.521   7.441   3.804
 8681SOL    HW136042   5.517   7.541   3.801
 8681SOL    HW236043   5.432   7.403   3.776
 8682SOL     OW36044   5.877   6.654   3.196
 8682SOL    HW136045   5.846   6.562   3.218
 8682SOL    HW236046   5.963   6.651   3.147
 8683SOL     OW36047   1.163   5.778   0.753
 8683SOL    HW136048   1.109   5.839   0.695
 8683SOL    HW236049   1.207   5.830   0.826
 8684SOL     OW36050   7.484   5.014   5.130
 8684SOL    HW136051   7.527   5.049   5.047
 8684SOL    HW236052   7.549   4.960   5.183
 8685SOL     OW36053   2.408   5.296   7.144
 8685SOL    HW136054   2.450   5.363   7.082
 8685SOL    HW236055   2.309   5.311   7.148
 8686SOL     OW36056   4.544   5.016   0.701
 8686SOL    HW136057   4.448   5.004   0.673
 8686SOL    HW236058   4.548   5.041   0.798
 8687SOL     OW36059   2.894   3.810   1.018
 8687SOL    HW136060   2.954   3.882   0.980
 8687SOL    HW236061   2.918   3.792   1.113
 8688SOL     OW36062   1.187   7.513   8.000
 8688SOL    HW136063   1.264   7.450   8.000
 8688SOL    HW236064   1.209   7.594   7.945
 8689SOL     OW36065   3.989   0.318   6.176
 8689SOL    HW136066   4.030   0.307   6.086
 8689SOL    HW236067   3.921   0.247   6.192
 8690SOL     OW36068   5.142   5.012   1.288
 8690SOL    HW136069   5.186   4.924   1.310
 8690SOL    HW236070   5.175   5.044   1.199
 8691SOL     OW36071   7.354   2.852   1.895
 8691SOL    HW136072   7.326   2.866   1.800
 8691SOL    HW236073   7.390   2.937   1.933
 8692SOL     OW36074   4.551   7.205   3.971
 8692SOL    HW136075   4.484   7.262   3.924
 8692SOL    HW236076   4.640   7.251   3.975
 8693SOL     OW36077   7.146   4.383   6.061
 8693SOL    HW136078   7.232   4.421   6.095
 8693SOL    HW236079   7.127   4.418   5.970
 8694SOL     OW36080   7.144   2.191   3.255
 8694SOL    HW136081   7.071   2.246   3.296
 8694SOL    HW236082   7.224   2.192   3.315
 8695SOL     OW36083   4.109   2.781   2.555
 8695SOL    HW136084   4.075   2.785   2.461
 8695SOL    HW236085   4.141   2.689   2.576
 8696SOL     OW36086   0.121   3.902   0.998
 8696SOL    HW136087   0.132   3.970   0.925
 8696SOL    HW236088   0.164   3.816   0.970
 8697SOL     OW36089   6.984   5.882   1.081
 8697SOL    HW136090   6.894   5.887   1.039
 8697SOL    HW236091   6.984   5.930   1.169
 8698SOL     OW36092   1.334   0.230   2.158
 8698SOL    HW136093   1.374   0.312   2.198
 8698SOL    HW236094   1.393   0.195   2.085
 8699SOL     OW36095   7.994   1.275   1.350
 8699SOL    HW136096   8.000   1.245   1.255
 8699SOL    HW236097   7.899   1.267   1.382
 8700SOL     OW36098   1.385   6.520   1.135
 8700SOL    HW136099   1.355   6.431   1.168
 8700SOL    HW236100   1.345   6.539   1.046
 8701SOL     OW36101   3.988   7.813   4.608
 8701SOL    HW136102   4.005   7.908   4.634
 8701SOL    HW236103   3.976   7.806   4.509
 8702SOL     OW36104   4.123   6.548   0.093
 8702SOL    HW136105   4.187   6.528   0.167
 8702SOL    HW236106   4.151   6.502   0.009
 8703SOL     OW36107   1.858   6.655   4.815
 8703SOL    HW136108   1.936   6.641   4.876
 8703SOL    HW236109   1.881   6.626   4.722
 8704SOL     OW36110   3.755   7.005   3.828
 8704SOL    HW136111   3.739   6.911   3.796
 8704SOL    HW236112   3.783   7.003   3.924
 8705SOL     OW36113   2.459   4.077   4.877
 8705SOL    HW136114   2.368   4.087   4.837
 8705SOL    HW236115   2.493   3.984   4.861
 8706SOL     OW36116   7.662   0.202   7.513
 8706SOL    HW136117   7.690   0.156   7.598
 8706SOL    HW236118   7.712   0.163   7.436
 8707SOL     OW36119   0.522   3.431   2.723
 8707SOL    HW136120   0.447   3.440   2.788
 8707SOL    HW236121   0.488   3.398   2.635
 8708SOL     OW36122   7.829   1.984   5.984
 8708SOL    HW136123   7.737   1.948   5.998
 8708SOL    HW236124   7.872   2.002   6.073
 8709SOL     OW36125   6.679   3.568   4.608
 8709SOL    HW136126   6.596   3.534   4.563
 8709SOL    HW236127   6.760   3.537   4.559
 8710SOL     OW36128   1.190   3.443   5.996
 8710SOL    HW136129   1.280   3.480   6.021
 8710SOL    HW236130   1.133   3.516   5.959
 8711SOL     OW36131   1.857   3.522   4.358
 8711SOL    HW136132   1.827   3.600   4.413
 8711SOL    HW236133   1.805   3.518   4.273
 8712SOL     OW36134   3.486   4.499   6.033
 8712SOL    HW136135   3.404   4.487   6.088
 8712SOL    HW236136   3.566   4.507   6.093
 8713SOL     OW36137   3.050   3.103   4.317
 8713SOL    HW136138   3.070   3.149   4.403
 8713SOL    HW236139   3.027   3.007   4.335
 8714SOL     OW36140   1.022   1.027   1.578
 8714SOL    HW136141   1.065   1.117   1.590
 8714SOL    HW236142   1.036   0.972   1.660
 8715SOL     OW36143   6.828   0.705   2.210
 8715SOL    HW136144   6.882   0.780   2.170
 8715SOL    HW236145   6.822   0.629   2.146
 8716SOL     OW36146   6.610   2.530   6.676
 8716SOL    HW136147   6.685   2.485   6.724
 8716SOL    HW236148   6.642   2.567   6.589
 8717SOL     OW36149   7.679   0.713   4.992
 8717SOL    HW136150   7.710   0.734   5.085
 8717SOL    HW236151   7.755   0.724   4.927
 8718SOL     OW36152   5.341   2.645   3.708
 8718SOL    HW136153   5.337   2.741   3.677
 8718SOL    HW236154   5.377   2.641   3.801
 8719SOL     OW36155   5.407   7.832   7.052
 8719SOL    HW136156   5.506   7.814   7.046
 8719SOL    HW236157   5.361   7.752   7.091
 8720SOL     OW36158   4.887   0.791   0.594
 8720SOL    HW136159   4.858   0.746   0.510
 8720SOL    HW236160   4.931   0.878   0.573
 8721SOL     OW36161   2.307   7.670   5.225
 8721SOL    HW136162   2.296   7.679   5.126
 8721SOL    HW236163   2.230   7.713   5.273
 8722SOL     OW36164   3.310   4.154   0.989
 8722SOL    HW136165   3.385   4.210   1.023
 8722SOL    HW236166   3.275   4.193   0.904
 8723SOL     OW36167   2.384   6.317   4.144
 8723SOL    HW136168   2.305   6.375   4.122
 8723SOL    HW236169   2.465   6.374   4.157
 8724SOL     OW36170   4.180   5.869   3.906
 8724SOL    HW136171   4.176   5.963   3.870
 8724SOL    HW236172   4.215   5.870   4.000
 8725SOL     OW36173   7.800   4.289   1.519
 8725SOL    HW136174   7.788   4.278   1.618
 8725SOL    HW236175   7.751   4.217   1.471
 8726SOL     OW36176   3.373   1.884   6.675
 8726SOL    HW136177   3.282   1.844   6.686
 8726SOL    HW236178   3.369   1.983   6.689
 8727SOL     OW36179   0.336   4.325   1.304
 8727SOL    HW136180   0.369   4.233   1.282
 8727SOL    HW236181   0.249   4.319   1.352
 8728SOL     OW36182   2.853   5.916   0.282
 8728SOL    HW136183   2.761   5.904   0.320
 8728SOL    HW236184   2.858   5.875   0.191
 8729SOL     OW36185   2.604   0.330   1.250
 8729SOL    HW136186   2.626   0.251   1.192
 8729SOL    HW236187   2.607   0.413   1.195
 8730SOL     OW36188   3.037   7.601   3.643
 8730SOL    HW136189   3.124   7.592   3.693
 8730SOL    HW236190   2.963   7.559   3.696
 8731SOL     OW36191   6.642   6.874   3.753
 8731SOL    HW136192   6.668   6.865   3.850
 8731SOL    HW236193   6.629   6.783   3.713
 8732SOL     OW36194   1.873   4.881   7.422
 8732SOL    HW136195   1.857   4.968   7.469
 8732SOL    HW236196   1.787   4.833   7.407
 8733SOL     OW36197   2.757   2.886   4.168
 8733SOL    HW136198   2.821   2.953   4.206
 8733SOL    HW236199   2.799   2.796   4.165
 8734SOL     OW36200   0.466   2.578   3.141
 8734SOL    HW136201   0.366   2.580   3.146
 8734SOL    HW236202   0.504   2.536   3.223
 8735SOL     OW36203   0.731   0.672   4.740
 8735SOL    HW136204   0.730   0.754   4.683
 8735SOL    HW236205   0.654   0.613   4.717
 8736SOL     OW36206   3.370   2.283   7.031
 8736SOL    HW136207   3.392   2.370   6.988
 8736SOL    HW236208   3.298   2.236   6.979
 8737SOL     OW36209   1.138   5.872   2.457
 8737SOL    HW136210   1.118   5.785   2.502
 8737SOL    HW236211   1.235   5.880   2.437
 8738SOL     OW36212   6.625   3.717   7.541
 8738SOL    HW136213   6.630   3.766   7.628
 8738SOL    HW236214   6.686   3.759   7.474
 8739SOL     OW36215   5.369   4.718   2.006
 8739SOL    HW136216   5.461   4.702   2.042
 8739SOL    HW236217   5.301   4.669   2.061
 8740SOL     OW36218   4.409   2.626   7.308
 8740SOL    HW136219   4.367   2.587   7.226
 8740SOL    HW236220   4.341   2.634   7.381
 8741SOL     OW36221   6.225   5.634   2.416
 8741SOL    HW136222   6.301   5.580   2.453
 8741SOL    HW236223   6.247   5.666   2.324
 8742SOL     OW36224   7.663   1.304   6.873
 8742SOL    HW136225   7.563   1.311   6.875
 8742SOL    HW236226   7.703   1.387   6.835
 8743SOL     OW36227   1.936   5.652   5.220
 8743SOL    HW136228   1.863   5.610   5.165
 8743SOL    HW236229   1.924   5.630   5.316
 8744SOL     OW36230   4.553   5.530   7.731
 8744SOL    HW136231   4.599   5.557   7.815
 8744SOL    HW236232   4.454   5.536   7.743
 8745SOL     OW36233   6.215   5.050   2.655
 8745SOL    HW136234   6.126   5.032   2.614
 8745SOL    HW236235   6.203   5.083   2.749
 8746SOL     OW36236   7.664   0.726   7.778
 8746SOL    HW136237   7.627   0.662   7.845
 8746SOL    HW236238   7.622   0.711   7.688
 8747SOL     OW36239   5.971   5.243   1.233
 8747SOL    HW136240   6.041   5.171   1.235
 8747SOL    HW236241   5.992   5.307   1.159
 8748SOL     OW36242   4.148   5.463   6.277
 8748SOL    HW136243   4.078   5.397   6.304
 8748SOL    HW236244   4.193   5.433   6.193
 8749SOL     OW36245   4.639   3.597   2.996
 8749SOL    HW136246   4.699   3.527   2.956
 8749SOL    HW236247   4.617   3.572   3.091
 8750SOL     OW36248   5.123   7.446   2.178
 8750SOL    HW136249   5.111   7.546   2.181
 8750SOL    HW236250   5.195   7.422   2.113
 8751SOL     OW36251   1.940   4.453   5.278
 8751SOL    HW136252   1.961   4.365   5.235
 8751SOL    HW236253   2.019   4.487   5.328
 8752SOL     OW36254   5.343   3.852   6.503
 8752SOL    HW136255   5.281   3.823   6.430
 8752SOL    HW236256   5.428   3.888   6.463
 8753SOL     OW36257   4.756   7.810   2.777
 8753SOL    HW136258   4.762   7.894   2.723
 8753SOL    HW236259   4.821   7.813   2.853
 8754SOL     OW36260   7.652   7.434   4.562
 8754SOL    HW136261   7.594   7.511   4.587
 8754SOL    HW236262   7.627   7.400   4.471
 8755SOL     OW36263   4.625   5.069   4.625
 8755SOL    HW136264   4.631   5.166   4.649
 8755SOL    HW236265   4.636   5.058   4.527
 8756SOL     OW36266   1.569   1.552   6.392
 8756SOL    HW136267   1.549   1.620   6.463
 8756SOL    HW236268   1.618   1.474   6.433
 8757SOL     OW36269   7.524   6.840   4.231
 8757SOL    HW136270   7.601   6.779   4.217
 8757SOL    HW236271   7.455   6.826   4.160
 8758SOL     OW36272   7.918   7.417   5.518
 8758SOL    HW136273   7.940   7.358   5.440
 8758SOL    HW236274   7.838   7.473   5.496
 8759SOL     OW36275   1.834   2.918   6.435
 8759SOL    HW136276   1.780   2.894   6.354
 8759SOL    HW236277   1.787   2.889   6.518
 8760SOL     OW36278   3.050   0.132   7.755
 8760SOL    HW136279   3.133   0.091   7.794
 8760SOL    HW236280   3.063   0.231   7.742
 8761SOL     OW36281   7.979   0.498   6.359
 8761SOL    HW136282   7.886   0.533   6.346
 8761SOL    HW236283   8.000   0.430   6.289
 8762SOL     OW36284   1.329   2.663   5.976
 8762SOL    HW136285   1.257   2.623   5.919
 8762SOL    HW236286   1.296   2.747   6.019
 8763SOL     OW36287   1.417   6.131   6.668
 8763SOL    HW136288   1.330   6.127   6.718
 8763SOL    HW236289   1.417   6.063   6.595
 8764SOL     OW36290   0.792   2.087   6.078
 8764SOL    HW136291   0.716   2.135   6.122
 8764SOL    HW236292   0.878   2.129   6.104
 8765SOL     OW36293   5.496   7.158   7.682
 8765SOL    HW136294   5.408   7.206   7.688
 8765SOL    HW236295   5.533   7.167   7.590
 8766SOL     OW36296   1.577   0.815   5.651
 8766SOL    HW136297   1.621   0.838   5.738
 8766SOL    HW236298   1.638   0.758   5.595
 8767SOL     OW36299   1.462   1.143   7.767
 8767SOL    HW136300   1.497   1.152   7.861
 8767SOL    HW236301   1.538   1.123   7.705
 8768SOL     OW36302   1.906   1.105   5.951
 8768SOL    HW136303   1.911   1.027   5.889
 8768SOL    HW236304   1.997   1.142   5.967
 8769SOL     OW36305   3.763   7.854   4.070
 8769SOL    HW136306   3.775   7.896   3.980
 8769SOL    HW236307   3.707   7.913   4.128
 8770SOL     OW36308   7.996   3.639   3.650
 8770SOL    HW136309   7.992   3.721   3.708
 8770SOL    HW236310   7.913   3.633   3.595
 8771SOL     OW36311   3.775   1.979   0.204
 8771SOL    HW136312   3.787   1.917   0.282
 8771SOL    HW236313   3.833   1.950   0.128
 8772SOL     OW36314   4.961   4.931   0.340
 8772SOL    HW136315   5.053   4.935   0.301
 8772SOL    HW236316   4.908   4.858   0.296
 8773SOL     OW36317   3.992   7.609   1.235
 8773SOL    HW136318   3.941   7.625   1.319
 8773SOL    HW236319   3.930   7.588   1.160
 8774SOL     OW36320   6.968   7.538   2.442
 8774SOL    HW136321   6.890   7.489   2.402
 8774SOL    HW236322   6.936   7.623   2.484
 8775SOL     OW36323   4.768   5.640   0.661
 8775SOL    HW136324   4.739   5.568   0.725
 8775SOL    HW236325   4.738   5.619   0.569
 8776SOL     OW36326   4.790   7.556   7.790
 8776SOL    HW136327   4.707   7.581   7.840
 8776SOL    HW236328   4.791   7.601   7.701
 8777SOL     OW36329   5.397   2.145   2.741
 8777SOL    HW136330   5.436   2.053   2.734
 8777SOL    HW236331   5.302   2.140   2.775
 8778SOL     OW36332   1.479   0.914   3.823
 8778SOL    HW136333   1.521   0.993   3.867
 8778SOL    HW236334   1.446   0.939   3.732
 8779SOL     OW36335   3.084   2.772   5.083
 8779SOL    HW136336   3.139   2.759   5.165
 8779SOL    HW236337   3.005   2.711   5.084
 8780SOL     OW36338   6.175   5.959   3.779
 8780SOL    HW136339   6.116   5.914   3.847
 8780SOL    HW236340   6.232   5.891   3.734
 8781SOL     OW36341   6.132   6.949   4.105
 8781SOL    HW136342   6.115   7.022   4.038
 8781SOL    HW236343   6.212   6.970   4.160
 8782SOL     OW36344   3.513   1.026   4.420
 8782SOL    HW136345   3.529   0.936   4.378
 8782SOL    HW236346   3.599   1.062   4.455
 8783SOL     OW36347   7.860   5.904   3.523
 8783SOL    HW136348   7.826   5.834   3.585
 8783SOL    HW236349   7.894   5.863   3.438
 8784SOL     OW36350   3.784   2.980   3.629
 8784SOL    HW136351   3.816   2.935   3.545
 8784SOL    HW236352   3.765   3.076   3.612
 8785SOL     OW36353   7.484   7.398   4.279
 8785SOL    HW136354   7.462   7.495   4.292
 8785SOL    HW236355   7.486   7.376   4.182
 8786SOL     OW36356   6.131   5.242   5.733
 8786SOL    HW136357   6.051   5.182   5.746
 8786SOL    HW236358   6.162   5.238   5.638
 8787SOL     OW36359   3.281   0.313   0.042
 8787SOL    HW136360   3.227   0.373   0.102
 8787SOL    HW236361   3.260   0.217   0.063
 8788SOL     OW36362   5.533   7.662   5.228
 8788SOL    HW136363   5.622   7.624   5.202
 8788SOL    HW236364   5.500   7.616   5.312
 8789SOL     OW36365   1.278   0.210   6.409
 8789SOL    HW136366   1.285   0.297   6.359
 8789SOL    HW236367   1.227   0.144   6.354
 8790SOL     OW36368   7.637   5.409   2.925
 8790SOL    HW136369   7.539   5.427   2.912
 8790SOL    HW236370   7.675   5.473   2.991
 8791SOL     OW36371   0.822   6.162   5.469
 8791SOL    HW136372   0.907   6.214   5.457
 8791SOL    HW236373   0.757   6.214   5.523
 8792SOL     OW36374   0.130   6.570   1.207
 8792SOL    HW136375   0.195   6.614   1.144
 8792SOL    HW236376   0.039   6.609   1.194
 8793SOL     OW36377   2.889   6.090   2.890
 8793SOL    HW136378   2.857   6.026   2.961
 8793SOL    HW236379   2.903   6.041   2.804
 8794SOL     OW36380   3.140   0.651   7.900
 8794SOL    HW136381   3.200   0.723   7.864
 8794SOL    HW236382   3.174   0.620   7.989
 8795SOL     OW36383   6.226   3.929   4.118
 8795SOL    HW136384   6.269   3.865   4.181
 8795SOL    HW236385   6.229   3.891   4.025
 8796SOL     OW36386   2.557   3.286   1.275
 8796SOL    HW136387   2.510   3.198   1.273
 8796SOL    HW236388   2.503   3.355   1.225
 8797SOL     OW36389   4.463   0.377   1.069
 8797SOL    HW136390   4.478   0.445   1.141
 8797SOL    HW236391   4.533   0.388   0.998
 8798SOL     OW36392   2.180   6.257   4.389
 8798SOL    HW136393   2.153   6.352   4.402
 8798SOL    HW236394   2.235   6.248   4.305
 8799SOL     OW36395   6.753   0.944   4.932
 8799SOL    HW136396   6.729   0.948   5.029
 8799SOL    HW236397   6.815   1.019   4.908
 8800SOL     OW36398   5.680   4.799   5.011
 8800SOL    HW136399   5.648   4.875   5.066
 8800SOL    HW236400   5.630   4.796   4.924
 8801SOL     OW36401   2.204   6.898   4.523
 8801SOL    HW136402   2.220   6.876   4.620
 8801SOL    HW236403   2.173   6.816   4.475
 8802SOL     OW36404   0.004   3.247   1.918
 8802SOL    HW136405   0.075   3.184   1.952
 8802SOL    HW236406  -0.001   3.327   1.977
 8803SOL     OW36407   1.672   5.053   4.275
 8803SOL    HW136408   1.607   4.992   4.321
 8803SOL    HW236409   1.682   5.028   4.179
 8804SOL     OW36410   5.263   1.878   3.994
 8804SOL    HW136411   5.336   1.885   4.062
 8804SOL    HW236412   5.268   1.790   3.947
 8805SOL     OW36413   7.892   2.356   0.620
 8805SOL    HW136414   7.960   2.327   0.687
 8805SOL    HW236415   7.863   2.450   0.639
 8806SOL     OW36416   7.454   5.763   4.142
 8806SOL    HW136417   7.390   5.781   4.067
 8806SOL    HW236418   7.431   5.820   4.221
 8807SOL     OW36419   4.076   2.211   7.964
 8807SOL    HW136420   3.994   2.156   7.949
 8807SOL    HW236421   4.138   2.202   7.886
 8808SOL     OW36422   3.480   6.167   0.856
 8808SOL    HW136423   3.454   6.264   0.855
 8808SOL    HW236424   3.427   6.117   0.788
 8809SOL     OW36425   1.678   4.081   2.230
 8809SOL    HW136426   1.758   4.120   2.183
 8809SOL    HW236427   1.706   4.003   2.285
 8810SOL     OW36428   0.279   5.963   4.803
 8810SOL    HW136429   0.275   5.956   4.703
 8810SOL    HW236430   0.370   5.935   4.835
 8811SOL     OW36431   4.633   4.828   6.339
 8811SOL    HW136432   4.569   4.885   6.391
 8811SOL    HW236433   4.592   4.801   6.252
 8812SOL     OW36434   4.289   5.662   2.482
 8812SOL    HW136435   4.377   5.633   2.521
 8812SOL    HW236436   4.264   5.601   2.407
 8813SOL     OW36437   4.774   5.572   1.581
 8813SOL    HW136438   4.692   5.518   1.561
 8813SOL    HW236439   4.830   5.523   1.648
 8814SOL     OW36440   2.317   2.774   3.489
 8814SOL    HW136441   2.384   2.820   3.431
 8814SOL    HW236442   2.229   2.822   3.484
 8815SOL     OW36443   2.700   0.895   2.448
 8815SOL    HW136444   2.753   0.865   2.369
 8815SOL    HW236445   2.609   0.852   2.446
 8816SOL     OW36446   1.427   4.076   0.350
 8816SOL    HW136447   1.494   4.136   0.393
 8816SOL    HW236448   1.362   4.130   0.297
 8817SOL     OW36449   7.912   3.468   1.317
 8817SOL    HW136450   7.824   3.482   1.271
 8817SOL    HW236451   7.915   3.523   1.401
 8818SOL     OW36452   6.584   6.866   1.901
 8818SOL    HW136453   6.571   6.772   1.933
 8818SOL    HW236454   6.516   6.887   1.831
 8819SOL     OW36455   2.345   3.614   1.261
 8819SOL    HW136456   2.317   3.524   1.227
 8819SOL    HW236457   2.382   3.668   1.186
 8820SOL     OW36458   3.740   3.019   0.612
 8820SOL    HW136459   3.779   2.928   0.596
 8820SOL    HW236460   3.802   3.073   0.668
 8821SOL     OW36461   5.713   1.868   4.505
 8821SOL    HW136462   5.796   1.828   4.544
 8821SOL    HW236463   5.732   1.900   4.412
 8822SOL     OW36464   7.477   7.838   6.301
 8822SOL    HW136465   7.415   7.898   6.351
 8822SOL    HW236466   7.429   7.793   6.226
 8823SOL     OW36467   4.716   1.541   6.155
 8823SOL    HW136468   4.766   1.455   6.144
 8823SOL    HW236469   4.732   1.600   6.076
 8824SOL     OW36470   1.559   5.871   5.821
 8824SOL    HW136471   1.587   5.783   5.859
 8824SOL    HW236472   1.595   5.882   5.729
 8825SOL     OW36473   4.131   6.955   2.282
 8825SOL    HW136474   4.081   6.871   2.305
 8825SOL    HW236475   4.178   6.944   2.194
 8826SOL     OW36476   3.623   3.460   6.262
 8826SOL    HW136477   3.650   3.459   6.359
 8826SOL    HW236478   3.610   3.555   6.232
 8827SOL     OW36479   7.201   2.379   7.336
 8827SOL    HW136480   7.143   2.411   7.411
 8827SOL    HW236481   7.286   2.431   7.334
 8828SOL     OW36482   4.313   6.644   6.990
 8828SOL    HW136483   4.227   6.661   7.038
 8828SOL    HW236484   4.301   6.567   6.928
 8829SOL     OW36485   5.949   5.335   3.913
 8829SOL    HW136486   5.929   5.377   4.002
 8829SOL    HW236487   6.017   5.390   3.864
 8830SOL     OW36488   1.430   4.464   1.415
 8830SOL    HW136489   1.330   4.463   1.422
 8830SOL    HW236490   1.470   4.435   1.502
 8831SOL     OW36491   0.746   1.835   6.131
 8831SOL    HW136492   0.668   1.894   6.112
 8831SOL    HW236493   0.827   1.869   6.084
 8832SOL     OW36494   2.407   5.322   6.543
 8832SOL    HW136495   2.399   5.252   6.472
 8832SOL    HW236496   2.503   5.339   6.565
 8833SOL     OW36497   6.968   6.061   7.430
 8833SOL    HW136498   6.892   6.121   7.406
 8833SOL    HW236499   6.987   6.067   7.528
 8834SOL     OW36500   1.012   6.549   4.740
 8834SOL    HW136501   1.051   6.464   4.704
 8834SOL    HW236502   1.005   6.544   4.840
 8835SOL     OW36503   1.368   6.992   2.238
 8835SOL    HW136504   1.303   6.929   2.280
 8835SOL    HW236505   1.397   6.957   2.149
 8836SOL     OW36506   5.370   6.361   0.098
 8836SOL    HW136507   5.354   6.342   0.194
 8836SOL    HW236508   5.468   6.362   0.078
 8837SOL     OW36509   3.477   1.800   3.572
 8837SOL    HW136510   3.500   1.727   3.508
 8837SOL    HW236511   3.459   1.762   3.663
 8838SOL     OW36512   3.528   0.591   4.744
 8838SOL    HW136513   3.620   0.608   4.779
 8838SOL    HW236514   3.493   0.672   4.697
 8839SOL     OW36515   6.169   6.538   2.812
 8839SOL    HW136516   6.176   6.517   2.715
 8839SOL    HW236517   6.156   6.454   2.865
 8840SOL     OW36518   4.129   7.223   7.003
 8840SOL    HW136519   4.123   7.252   6.908
 8840SOL    HW236520   4.039   7.195   7.036
 8841SOL     OW36521   2.737   0.660   1.591
 8841SOL    HW136522   2.680   0.724   1.644
 8841SOL    HW236523   2.739   0.688   1.495
 8842SOL     OW36524   2.648   6.777   5.838
 8842SOL    HW136525   2.584   6.817   5.772
 8842SOL    HW236526   2.740   6.810   5.821
 8843SOL     OW36527   5.462   2.187   0.435
 8843SOL    HW136528   5.387   2.124   0.457
 8843SOL    HW236529   5.500   2.163   0.346
 8844SOL     OW36530   7.656   2.610   4.785
 8844SOL    HW136531   7.713   2.547   4.839
 8844SOL    HW236532   7.709   2.691   4.761
 8845SOL     OW36533   6.382   0.240   6.063
 8845SOL    HW136534   6.293   0.260   6.105
 8845SOL    HW236535   6.371   0.219   5.966
 8846SOL     OW36536   2.977   7.481   0.915
 8846SOL    HW136537   2.891   7.432   0.932
 8846SOL    HW236538   2.987   7.499   0.817
 8847SOL     OW36539   4.331   5.173   5.896
 8847SOL    HW136540   4.294   5.261   5.865
 8847SOL    HW236541   4.430   5.170   5.883
 8848SOL     OW36542   2.594   4.602   3.399
 8848SOL    HW136543   2.508   4.560   3.429
 8848SOL    HW236544   2.618   4.570   3.307
 8849SOL     OW36545   0.940   7.548   4.586
 8849SOL    HW136546   0.960   7.642   4.561
 8849SOL    HW236547   0.981   7.526   4.674
 8850SOL     OW36548   3.825   1.218   3.915
 8850SOL    HW136549   3.905   1.195   3.859
 8850SOL    HW236550   3.769   1.137   3.930
 8851SOL     OW36551   0.512   5.966   0.929
 8851SOL    HW136552   0.431   5.942   0.984
 8851SOL    HW236553   0.495   6.051   0.880
 8852SOL     OW36554   7.060   0.418   0.303
 8852SOL    HW136555   6.977   0.400   0.250
 8852SOL    HW236556   7.044   0.491   0.370
 8853SOL     OW36557   0.734   5.991   1.618
 8853SOL    HW136558   0.807   5.985   1.549
 8853SOL    HW236559   0.688   6.080   1.611
 8854SOL     OW36560   4.984   2.179   1.507
 8854SOL    HW136561   4.984   2.191   1.606
 8854SOL    HW236562   4.941   2.092   1.483
 8855SOL     OW36563   2.376   1.271   0.617
 8855SOL    HW136564   2.284   1.251   0.651
 8855SOL    HW236565   2.396   1.368   0.627
 8856SOL     OW36566   7.322   5.637   1.504
 8856SOL    HW136567   7.398   5.683   1.459
 8856SOL    HW236568   7.343   5.540   1.516
 8857SOL     OW36569   2.298   4.964   7.421
 8857SOL    HW136570   2.247   5.020   7.356
 8857SOL    HW236571   2.376   4.922   7.375
 8858SOL     OW36572   4.137   6.559   7.252
 8858SOL    HW136573   4.086   6.642   7.229
 8858SOL    HW236574   4.134   6.495   7.175
 8859SOL     OW36575   4.906   5.942   1.772
 8859SOL    HW136576   4.891   5.973   1.678
 8859SOL    HW236577   4.906   6.020   1.835
 8860SOL     OW36578   6.256   3.071   3.848
 8860SOL    HW136579   6.295   3.056   3.757
 8860SOL    HW236580   6.298   3.009   3.914
 8861SOL     OW36581   2.165   3.859   4.109
 8861SOL    HW136582   2.197   3.932   4.170
 8861SOL    HW236583   2.193   3.879   4.015
 8862SOL     OW36584   0.727   5.222   1.649
 8862SOL    HW136585   0.688   5.225   1.741
 8862SOL    HW236586   0.694   5.141   1.600
 8863SOL     OW36587   1.667   0.878   5.373
 8863SOL    HW136588   1.722   0.797   5.396
 8863SOL    HW236589   1.576   0.869   5.414
 8864SOL     OW36590   1.154   6.397   2.644
 8864SOL    HW136591   1.178   6.337   2.567
 8864SOL    HW236592   1.225   6.466   2.656
 8865SOL     OW36593   2.216   4.896   6.437
 8865SOL    HW136594   2.128   4.876   6.481
 8865SOL    HW236595   2.285   4.832   6.470
 8866SOL     OW36596   5.581   0.200   7.208
 8866SOL    HW136597   5.622   0.139   7.140
 8866SOL    HW236598   5.520   0.149   7.268
 8867SOL     OW36599   2.686   1.310   6.053
 8867SOL    HW136600   2.786   1.314   6.045
 8867SOL    HW236601   2.647   1.272   5.969
 8868SOL     OW36602   6.415   4.578   7.337
 8868SOL    HW136603   6.343   4.508   7.346
 8868SOL    HW236604   6.391   4.658   7.391
 8869SOL     OW36605   1.889   6.402   2.268
 8869SOL    HW136606   1.947   6.328   2.233
 8869SOL    HW236607   1.858   6.380   2.360
 8870SOL     OW36608   7.832   1.034   1.259
 8870SOL    HW136609   7.769   1.101   1.219
 8870SOL    HW236610   7.847   1.054   1.356
 8871SOL     OW36611   1.911  -0.001   7.427
 8871SOL    HW136612   1.982   0.045   7.374
 8871SOL    HW236613   1.828   0.055   7.430
 8872SOL     OW36614   1.272   5.685   0.426
 8872SOL    HW136615   1.350   5.666   0.486
 8872SOL    HW236616   1.194   5.715   0.480
 8873SOL     OW36617   2.862   5.009   6.039
 8873SOL    HW136618   2.952   5.031   6.078
 8873SOL    HW236619   2.842   5.071   5.963
 8874SOL     OW36620   3.499   5.442   2.242
 8874SOL    HW136621   3.594   5.431   2.270
 8874SOL    HW236622   3.491   5.521   2.181
 8875SOL     OW36623   6.433   0.855   5.977
 8875SOL    HW136624   6.404   0.898   5.892
 8875SOL    HW236625   6.362   0.865   6.046
 8876SOL     OW36626   1.859   3.564   2.014
 8876SOL    HW136627   1.935   3.535   1.956
 8876SOL    HW236628   1.867   3.522   2.105
 8877SOL     OW36629   3.618   3.739   2.388
 8877SOL    HW136630   3.656   3.659   2.341
 8877SOL    HW236631   3.520   3.748   2.367
 8878SOL     OW36632   4.693   2.727   7.134
 8878SOL    HW136633   4.727   2.779   7.055
 8878SOL    HW236634   4.752   2.648   7.151
 8879SOL     OW36635   6.287   2.373   5.096
 8879SOL    HW136636   6.301   2.290   5.151
 8879SOL    HW236637   6.200   2.415   5.120
 8880SOL     OW36638   5.707   3.904   7.832
 8880SOL    HW136639   5.627   3.866   7.879
 8880SOL    HW236640   5.785   3.907   7.894
 8881SOL     OW36641   5.794   2.436   0.978
 8881SOL    HW136642   5.695   2.451   0.986
 8881SOL    HW236643   5.842   2.491   1.047
 8882SOL     OW36644   6.373   3.226   3.589
 8882SOL    HW136645   6.467   3.194   3.582
 8882SOL    HW236646   6.313   3.170   3.532
 8883SOL     OW36647   3.936   7.018   5.193
 8883SOL    HW136648   3.986   6.935   5.170
 8883SOL    HW236649   3.887   7.051   5.113
 8884SOL     OW36650   2.304   6.667   3.450
 8884SOL    HW136651   2.374   6.609   3.492
 8884SOL    HW236652   2.243   6.704   3.520
 8885SOL     OW36653   5.148   4.933   2.544
 8885SOL    HW136654   5.154   4.834   2.534
 8885SOL    HW236655   5.133   4.975   2.454
 8886SOL     OW36656   6.003   4.762  -0.000
 8886SOL    HW136657   5.931   4.831   0.000
 8886SOL    HW236658   6.047   4.758   0.089
 8887SOL     OW36659   4.782   3.191   3.311
 8887SOL    HW136660   4.708   3.249   3.344
 8887SOL    HW236661   4.770   3.171   3.214
 8888SOL     OW36662   3.901   7.873   1.558
 8888SOL    HW136663   3.891   7.878   1.657
 8888SOL    HW236664   3.879   7.780   1.526
 8889SOL     OW36665  -0.000   4.977   2.236
 8889SOL    HW136666   0.077   4.919   2.264
 8889SOL    HW236667   0.004   4.992   2.137
 8890SOL     OW36668   7.255   4.549   1.589
 8890SOL    HW136669   7.239   4.640   1.549
 8890SOL    HW236670   7.245   4.554   1.689
 8891SOL     OW36671   7.688   4.687   7.597
 8891SOL    HW136672   7.616   4.740   7.551
 8891SOL    HW236673   7.734   4.743   7.665
 8892SOL     OW36674   3.890   5.613   1.196
 8892SOL    HW136675   3.979   5.628   1.153
 8892SOL    HW236676   3.895   5.631   1.294
 8893SOL     OW36677   2.744   0.078   2.705
 8893SOL    HW136678   2.833   0.077   2.752
 8893SOL    HW236679   2.741   0.005   2.637
 8894SOL     OW36680   0.068   0.743   3.009
 8894SOL    HW136681   0.157   0.698   3.013
 8894SOL    HW236682  -0.000   0.689   3.058
 8895SOL     OW36683   4.965   3.865   1.462
 8895SOL    HW136684   5.062   3.853   1.439
 8895SOL    HW236685   4.937   3.959   1.444
 8896SOL     OW36686   2.130   3.804   5.470
 8896SOL    HW136687   2.075   3.752   5.405
 8896SOL    HW236688   2.191   3.866   5.421
 8897SOL     OW36689   2.003   0.680   4.524
 8897SOL    HW136690   2.098   0.652   4.534
 8897SOL    HW236691   1.991   0.731   4.439
 8898SOL     OW36692   6.763   4.331   0.648
 8898SOL    HW136693   6.733   4.425   0.657
 8898SOL    HW236694   6.852   4.319   0.692
 8899SOL     OW36695   7.384   2.187   2.716
 8899SOL    HW136696   7.292   2.156   2.688
 8899SOL    HW236697   7.378   2.235   2.803
 8900SOL     OW36698   6.962   7.048   5.208
 8900SOL    HW136699   6.940   6.972   5.270
 8900SOL    HW236700   6.880   7.104   5.194
 8901SOL     OW36701   3.482   6.132   3.615
 8901SOL    HW136702   3.475   6.218   3.666
 8901SOL    HW236703   3.574   6.123   3.576
 8902SOL     OW36704   6.195   6.344   4.628
 8902SOL    HW136705   6.196   6.444   4.623
 8902SOL    HW236706   6.135   6.307   4.556
 8903SOL     OW36707   3.485   2.939   6.276
 8903SOL    HW136708   3.575   2.936   6.320
 8903SOL    HW236709   3.493   2.981   6.186
 8904SOL     OW36710   5.147   7.138   4.122
 8904SOL    HW136711   5.180   7.044   4.117
 8904SOL    HW236712   5.050   7.139   4.147
 8905SOL     OW36713   2.943   1.825   1.588
 8905SOL    HW136714   2.862   1.772   1.565
 8905SOL    HW236715   3.024   1.766   1.586
 8906SOL     OW36716   1.124   3.762   2.502
 8906SOL    HW136717   1.063   3.704   2.556
 8906SOL    HW236718   1.179   3.819   2.564
 8907SOL     OW36719   6.580   7.255   1.441
 8907SOL    HW136720   6.660   7.240   1.382
 8907SOL    HW236721   6.505   7.294   1.388
 8908SOL     OW36722   4.949   0.298   7.663
 8908SOL    HW136723   5.013   0.231   7.626
 8908SOL    HW236724   4.974   0.319   7.758
 8909SOL     OW36725   0.542   6.939   5.411
 8909SOL    HW136726   0.607   6.876   5.455
 8909SOL    HW236727   0.576   6.967   5.321
 8910SOL     OW36728   5.559   2.017   0.868
 8910SOL    HW136729   5.627   2.090   0.856
 8910SOL    HW236730   5.581   1.964   0.950
 8911SOL     OW36731   2.947   0.900   6.862
 8911SOL    HW136732   2.860   0.905   6.812
 8911SOL    HW236733   2.994   0.815   6.841
 8912SOL     OW36734   1.678   2.997   5.810
 8912SOL    HW136735   1.777   3.004   5.824
 8912SOL    HW236736   1.646   3.072   5.753
 8913SOL     OW36737   1.118   0.213   7.737
 8913SOL    HW136738   1.124   0.311   7.752
 8913SOL    HW236739   1.209   0.175   7.720
 8914SOL     OW36740   3.699   3.959   0.237
 8914SOL    HW136741   3.717   3.884   0.301
 8914SOL    HW236742   3.767   4.031   0.250
 8915SOL     OW36743   2.780   3.686   6.878
 8915SOL    HW136744   2.869   3.641   6.872
 8915SOL    HW236745   2.764   3.743   6.799
 8916SOL     OW36746   1.909   1.323   7.420
 8916SOL    HW136747   1.809   1.316   7.426
 8916SOL    HW236748   1.941   1.284   7.333
 8917SOL     OW36749   6.959   1.033   0.527
 8917SOL    HW136750   6.915   1.122   0.517
 8917SOL    HW236751   7.050   1.035   0.487
 8918SOL     OW36752   4.123   7.168   0.475
 8918SOL    HW136753   4.167   7.231   0.410
 8918SOL    HW236754   4.141   7.198   0.569
 8919SOL     OW36755   2.980   0.405   6.311
 8919SOL    HW136756   3.023   0.321   6.342
 8919SOL    HW236757   3.013   0.429   6.220
 8920SOL     OW36758   2.303   1.394   3.989
 8920SOL    HW136759   2.213   1.400   4.032
 8920SOL    HW236760   2.293   1.355   3.897
 8921SOL     OW36761   7.895   3.265   5.776
 8921SOL    HW136762   7.958   3.189   5.762
 8921SOL    HW236763   7.851   3.290   5.690
 8922SOL     OW36764   4.109   5.644   0.145
 8922SOL    HW136765   4.107   5.675   0.240
 8922SOL    HW236766   4.111   5.723   0.083
 8923SOL     OW36767   7.645   1.285   7.472
 8923SOL    HW136768   7.698   1.204   7.499
 8923SOL    HW236769   7.598   1.322   7.552
 8924SOL     OW36770   3.299   7.125   7.904
 8924SOL    HW136771   3.253   7.043   7.938
 8924SOL    HW236772   3.396   7.108   7.890
 8925SOL     OW36773   6.313   2.419   7.673
 8925SOL    HW136774   6.227   2.383   7.710
 8925SOL    HW236775   6.324   2.390   7.578
 8926SOL     OW36776   2.701   2.804   2.059
 8926SOL    HW136777   2.759   2.729   2.027
 8926SOL    HW236778   2.689   2.799   2.158
 8927SOL     OW36779   0.661   5.802   1.948
 8927SOL    HW136780   0.743   5.811   1.891
 8927SOL    HW236781   0.615   5.890   1.957
 8928SOL     OW36782   2.086   0.414   1.709
 8928SOL    HW136783   2.034   0.499   1.704
 8928SOL    HW236784   2.025   0.337   1.722
 8929SOL     OW36785   1.286   1.526   7.205
 8929SOL    HW136786   1.378   1.534   7.243
 8929SOL    HW236787   1.283   1.564   7.113
 8930SOL     OW36788   6.201   1.890   0.344
 8930SOL    HW136789   6.236   1.963   0.286
 8930SOL    HW236790   6.276   1.849   0.397
 8931SOL     OW36791   5.632   1.655   4.263
 8931SOL    HW136792   5.617   1.740   4.313
 8931SOL    HW236793   5.546   1.621   4.227
 8932SOL     OW36794   3.785   5.226   7.844
 8932SOL    HW136795   3.764   5.150   7.783
 8932SOL    HW236796   3.714   5.233   7.914
 8933SOL     OW36797   6.116   1.532   3.522
 8933SOL    HW136798   6.029   1.491   3.548
 8933SOL    HW236799   6.117   1.629   3.545
 8934SOL     OW36800   0.580   5.666   6.083
 8934SOL    HW136801   0.634   5.737   6.127
 8934SOL    HW236802   0.483   5.679   6.106
 8935SOL     OW36803   5.690   7.534   8.004
 8935SOL    HW136804   5.748   7.549   7.924
 8935SOL    HW236805   5.596   7.520   7.976
 8936SOL     OW36806   4.550   6.464   6.564
 8936SOL    HW136807   4.630   6.404   6.555
 8936SOL    HW236808   4.515   6.460   6.658
 8937SOL     OW36809   0.074   5.531   4.985
 8937SOL    HW136810   0.033   5.500   5.071
 8937SOL    HW236811   0.167   5.565   5.002
 8938SOL     OW36812   0.174   4.942   5.411
 8938SOL    HW136813   0.269   4.910   5.407
 8938SOL    HW236814   0.151   4.969   5.504
 8939SOL     OW36815   4.337   2.770   4.319
 8939SOL    HW136816   4.273   2.693   4.319
 8939SOL    HW236817   4.339   2.813   4.229
 8940SOL     OW36818   2.042   5.810   6.690
 8940SOL    HW136819   1.982   5.730   6.681
 8940SOL    HW236820   2.083   5.812   6.780
 8941SOL     OW36821   4.479   3.544   6.803
 8941SOL    HW136822   4.555   3.568   6.864
 8941SOL    HW236823   4.511   3.486   6.728
 8942SOL     OW36824   1.373   0.162   4.621
 8942SOL    HW136825   1.291   0.122   4.581
 8942SOL    HW236826   1.429   0.205   4.549
 8943SOL     OW36827   1.880   5.785   3.664
 8943SOL    HW136828   1.827   5.748   3.741
 8943SOL    HW236829   1.881   5.719   3.589
 8944SOL     OW36830   5.756   5.591   6.202
 8944SOL    HW136831   5.761   5.501   6.159
 8944SOL    HW236832   5.682   5.594   6.269
 8945SOL     OW36833   7.872   1.155   4.882
 8945SOL    HW136834   7.838   1.064   4.859
 8945SOL    HW236835   7.963   1.148   4.923
 8946SOL     OW36836   4.494   3.157   3.522
 8946SOL    HW136837   4.561   3.230   3.507
 8946SOL    HW236838   4.503   3.120   3.614
 8947SOL     OW36839   3.870   2.627   5.251
 8947SOL    HW136840   3.772   2.642   5.239
 8947SOL    HW236841   3.921   2.680   5.183
 8948SOL     OW36842   4.893   0.736   0.159
 8948SOL    HW136843   4.892   0.819   0.102
 8948SOL    HW236844   4.950   0.752   0.240
 8949SOL     OW36845   2.225   4.091   1.365
 8949SOL    HW136846   2.265   4.023   1.302
 8949SOL    HW236847   2.264   4.080   1.456
 8950SOL     OW36848   6.058   3.313   1.093
 8950SOL    HW136849   6.155   3.298   1.076
 8950SOL    HW236850   6.033   3.407   1.067
 8951SOL     OW36851   7.457   6.419   0.068
 8951SOL    HW136852   7.553   6.402   0.043
 8951SOL    HW236853   7.450   6.437   0.166
 8952SOL     OW36854   7.934   7.825   6.024
 8952SOL    HW136855   7.881   7.740   6.031
 8952SOL    HW236856   7.873   7.902   6.005
 8953SOL     OW36857   3.237   5.187   4.971
 8953SOL    HW136858   3.326   5.229   4.989
 8953SOL    HW236859   3.211   5.200   4.876
 8954SOL     OW36860   6.051   0.962   5.273
 8954SOL    HW136861   5.970   1.018   5.295
 8954SOL    HW236862   6.040   0.919   5.184
 8955SOL     OW36863   4.642   1.914   7.213
 8955SOL    HW136864   4.548   1.921   7.180
 8955SOL    HW236865   4.671   2.001   7.252
 8956SOL     OW36866   0.798   3.115   6.578
 8956SOL    HW136867   0.864   3.048   6.543
 8956SOL    HW236868   0.762   3.085   6.666
 8957SOL     OW36869   4.029   0.613   1.321
 8957SOL    HW136870   4.021   0.692   1.260
 8957SOL    HW236871   4.011   0.529   1.271
 8958SOL     OW36872   6.943   5.168   3.931
 8958SOL    HW136873   7.029   5.134   3.967
 8958SOL    HW236874   6.956   5.205   3.839
 8959SOL     OW36875   5.023   7.172   1.546
 8959SOL    HW136876   5.073   7.115   1.612
 8959SOL    HW236877   5.008   7.121   1.461
 8960SOL     OW36878   6.611   7.472   7.584
 8960SOL    HW136879   6.604   7.570   7.567
 8960SOL    HW236880   6.541   7.444   7.650
 8961SOL     OW36881   6.603   6.575   1.773
 8961SOL    HW136882   6.699   6.577   1.803
 8961SOL    HW236883   6.577   6.482   1.751
 8962SOL     OW36884   2.608   0.147   6.432
 8962SOL    HW136885   2.622   0.204   6.352
 8962SOL    HW236886   2.683   0.081   6.441
 8963SOL     OW36887   5.335   7.611   4.763
 8963SOL    HW136888   5.411   7.660   4.720
 8963SOL    HW236889   5.371   7.540   4.823
 8964SOL     OW36890   0.345   7.708   7.429
 8964SOL    HW136891   0.401   7.709   7.512
 8964SOL    HW236892   0.380   7.775   7.364
 8965SOL     OW36893   2.912   0.556   5.073
 8965SOL    HW136894   2.837   0.500   5.109
 8965SOL    HW236895   2.939   0.523   4.983
 8966SOL     OW36896   3.733   1.574   1.265
 8966SOL    HW136897   3.825   1.559   1.230
 8966SOL    HW236898   3.721   1.671   1.290
 8967SOL     OW36899   5.658   2.959   6.803
 8967SOL    HW136900   5.644   3.003   6.714
 8967SOL    HW236901   5.652   3.027   6.876
 8968SOL     OW36902   2.412   2.698   0.173
 8968SOL    HW136903   2.358   2.623   0.210
 8968SOL    HW236904   2.445   2.675   0.082
 8969SOL     OW36905   6.199   7.555   7.729
 8969SOL    HW136906   6.144   7.479   7.764
 8969SOL    HW236907   6.280   7.568   7.785
 8970SOL     OW36908   5.602   4.797   5.508
 8970SOL    HW136909   5.651   4.870   5.556
 8970SOL    HW236910   5.581   4.826   5.415
 8971SOL     OW36911   5.631   3.516   4.179
 8971SOL    HW136912   5.679   3.428   4.182
 8971SOL    HW236913   5.594   3.538   4.269
 8972SOL     OW36914   7.900   2.242   7.390
 8972SOL    HW136915   7.994   2.221   7.418
 8972SOL    HW236916   7.900   2.275   7.295
 8973SOL     OW36917   4.170   4.272   5.626
 8973SOL    HW136918   4.164   4.220   5.540
 8973SOL    HW236919   4.110   4.232   5.694
 8974SOL     OW36920   0.079   6.673   2.743
 8974SOL    HW136921   0.115   6.594   2.795
 8974SOL    HW236922  -0.000   6.645   2.690
 8975SOL     OW36923   7.647   5.821   6.265
 8975SOL    HW136924   7.675   5.893   6.201
 8975SOL    HW236925   7.683   5.840   6.356
 8976SOL     OW36926   6.765   3.169   3.348
 8976SOL    HW136927   6.760   3.089   3.407
 8976SOL    HW236928   6.854   3.172   3.302
 8977SOL     OW36929   2.440   6.122   7.423
 8977SOL    HW136930   2.344   6.106   7.398
 8977SOL    HW236931   2.447   6.148   7.519
 8978SOL     OW36932   2.427   7.347   3.004
 8978SOL    HW136933   2.331   7.325   3.020
 8978SOL    HW236934   2.460   7.301   2.921
 8979SOL     OW36935   0.999   5.062   1.644
 8979SOL    HW136936   0.970   5.157   1.653
 8979SOL    HW236937   0.950   5.005   1.711
 8980SOL     OW36938   0.730   4.355   4.582
 8980SOL    HW136939   0.729   4.402   4.671
 8980SOL    HW236940   0.676   4.407   4.516
 8981SOL     OW36941   0.822   0.390   5.045
 8981SOL    HW136942   0.765   0.436   4.977
 8981SOL    HW236943   0.815   0.437   5.133
 8982SOL     OW36944   6.493   7.681   5.640
 8982SOL    HW136945   6.423   7.707   5.573
 8982SOL    HW236946   6.474   7.725   5.728
 8983SOL     OW36947   5.757   3.562   3.995
 8983SOL    HW136948   5.706   3.607   3.921
 8983SOL    HW236949   5.831   3.620   4.027
 8984SOL     OW36950   6.867   1.231   5.109
 8984SOL    HW136951   6.868   1.320   5.156
 8984SOL    HW236952   6.788   1.178   5.139
 8985SOL     OW36953   5.849   6.497   7.806
 8985SOL    HW136954   5.780   6.444   7.855
 8985SOL    HW236955   5.888   6.443   7.732
 8986SOL     OW36956   2.481   4.972   3.036
 8986SOL    HW136957   2.396   4.969   3.088
 8986SOL    HW236958   2.465   5.007   2.944
 8987SOL     OW36959   2.008   7.219   5.596
 8987SOL    HW136960   2.052   7.307   5.618
 8987SOL    HW236961   1.908   7.229   5.602
 8988SOL     OW36962   0.152   2.933   0.937
 8988SOL    HW136963   0.235   2.878   0.946
 8988SOL    HW236964   0.168   3.025   0.972
 8989SOL     OW36965   7.570   6.068   5.521
 8989SOL    HW136966   7.661   6.088   5.485
 8989SOL    HW236967   7.577   6.033   5.614
 8990SOL     OW36968   0.573   7.805   0.439
 8990SOL    HW136969   0.501   7.752   0.393
 8990SOL    HW236970   0.544   7.900   0.449
 8991SOL     OW36971   0.521   3.721   6.697
 8991SOL    HW136972   0.599   3.678   6.743
 8991SOL    HW236973   0.458   3.651   6.665
 8992SOL     OW36974   1.349   5.859   3.796
 8992SOL    HW136975   1.339   5.761   3.776
 8992SOL    HW236976   1.316   5.877   3.889
 8993SOL     OW36977   3.705   1.651   3.150
 8993SOL    HW136978   3.647   1.574   3.177
 8993SOL    HW236979   3.791   1.618   3.112
 8994SOL     OW36980   0.154   4.254   7.271
 8994SOL    HW136981   0.143   4.265   7.370
 8994SOL    HW236982   0.220   4.321   7.237
 8995SOL     OW36983   1.730   4.797   6.022
 8995SOL    HW136984   1.701   4.724   6.085
 8995SOL    HW236985   1.782   4.866   6.072
 8996SOL     OW36986   3.996   1.561   4.272
 8996SOL    HW136987   3.968   1.530   4.181
 8996SOL    HW236988   4.016   1.659   4.269
 8997SOL     OW36989   6.098   1.940   4.979
 8997SOL    HW136990   6.025   1.881   5.014
 8997SOL    HW236991   6.179   1.933   5.038
 8998SOL     OW36992   5.080   3.716   7.906
 8998SOL    HW136993   5.076   3.815   7.915
 8998SOL    HW236994   5.078   3.674   7.997
 8999SOL     OW36995   4.617   3.541   4.669
 8999SOL    HW136996   4.555   3.558   4.746
 8999SOL    HW236997   4.712   3.542   4.701
 9000SOL     OW36998   3.286   3.239   3.565
 9000SOL    HW136999   3.189   3.217   3.553
 9000SOL    HW237000   3.300   3.285   3.653
   0.00000   0.00000   0.00000
