ALL ATOM STRUCTURE FOR MOLECULE ACETIC ACID
    8
    0ACOH    H4    1  -0.159  -0.096  -0.001
    0ACOH    O2    2  -0.063  -0.111  -0.002
    0ACOH    C2    3  -0.003   0.010   0.000
    0ACOH    O1    4  -0.067   0.114   0.002
    0ACOH    C1    5   0.147  -0.002  -0.000
    0ACOH    H1    6   0.192   0.098  -0.002
    0ACOH    H2    7   0.180  -0.059  -0.087
    0ACOH    H3    8   0.180  -0.056   0.089
   0.00000   0.00000   0.00000
