chitosan Film  in water:acetic acid 2%
10223
    1CHTO  H203    1   4.213   5.572   0.431 -1.3526 -3.7326  1.2409
    1CHTO   O82    2   4.277   5.569   0.500  0.8904 -0.0754 -0.5704
    1CHTO  C123    3   4.402   5.538   0.449  0.2353 -0.1604 -0.1407
    1CHTO  H227    4   4.401   5.541   0.340  0.9550  0.6418 -0.1254
    1CHTO   O77    5   4.477   5.657   0.498 -1.1712  0.0945 -0.0149
    1CHTO  C118    6   4.620   5.648   0.504 -0.0403 -0.2727 -0.9032
    1CHTO  H222    7   4.664   5.619   0.407  2.6287  0.4133  0.0466
    1CHTO  C125    8   4.667   5.786   0.540  0.3320 -0.0367  1.0000
    1CHTO   O84    9   4.786   5.835   0.482 -0.2392  0.3224  0.2772
    1CHTO  H205   10   4.862   5.791   0.517 -0.0413 -0.1337 -0.6793
    1CHTO  C114   11   4.660   5.544   0.608 -0.3239 -0.1895  0.0838
    1CHTO  H218   12   4.598   5.571   0.694 -1.6742 -1.0467 -0.5974
    1CHTO  C116   13   4.611   5.409   0.553 -0.3389  0.4416 -0.2871
    1CHTO  H220   14   4.669   5.381   0.463 -0.3540 -1.5968  0.3285
    1CHTO   O79   15   4.637   5.302   0.641 -0.0661 -0.3404 -0.0402
    1CHTO  H201   16   4.703   5.243   0.609  0.8840 -0.7097  2.5157
    1CHTO  C120   17   4.458   5.407   0.513  0.5785  0.3598 -0.5257
    1CHTO  H224   18   4.407   5.386   0.610  2.7803 -1.9235  0.2096
    1CHTO   N21   19   4.422   5.292   0.430  0.5075 -0.0945 -0.3643
    1CHTO  H211   20   4.499   5.279   0.356 -1.0252 -0.7002 -1.8950
    1CHTO  H212   21   4.401   5.203   0.487 -2.2042 -0.2852 -1.5533
    1CHTO   O75   22   4.797   5.553   0.638 -0.0761 -0.1009 -0.2220
    1CHTO  C112   23   4.911   5.465   0.526 -0.2306  0.2397  0.3749
    1CHTO  H216   24   4.882   5.481   0.421  1.9671 -0.2407 -0.3263
    1CHTO   O73   25   4.903   5.329   0.563  0.5034  0.7538 -0.9823
    1CHTO  C113   26   5.004   5.238   0.509  0.5326 -0.2637 -0.5580
    1CHTO  H217   27   5.005   5.249   0.398 -0.2777 -2.5792 -0.8353
    1CHTO  C124   28   4.957   5.096   0.545 -0.7728 -0.2462 -0.4798
    1CHTO   O83   29   4.817   5.059   0.529  0.0615  0.4152  0.1215
    1CHTO  H204   30   4.786   5.043   0.616  1.5262 -1.3090  0.3383
    1CHTO  C109   31   5.142   5.273   0.557  0.9384 -0.6266  0.5550
    1CHTO  H213   32   5.135   5.268   0.667  1.0998 -1.0890  0.5427
    1CHTO  C110   33   5.169   5.422   0.508 -0.5320  0.1586  0.7227
    1CHTO  H214   34   5.169   5.415   0.399 -1.9525  0.2837  0.7105
    1CHTO   O78   35   5.297   5.476   0.550  0.5677 -0.4071  0.0473
    1CHTO  H200   36   5.318   5.455   0.639 -1.1866  0.4424  0.6917
    1CHTO  C111   37   5.063   5.518   0.556  0.0854 -0.3748 -0.6974
    1CHTO  H215   38   5.071   5.528   0.665 -0.8443 -2.1833 -0.4548
    1CHTO   N19   39   5.077   5.657   0.500 -0.1740  0.0963 -0.7084
    1CHTO  H207   40   5.143   5.709   0.567 -0.3054 -0.7331  0.0837
    1CHTO  H208   41   4.984   5.704   0.471 -0.6056 -0.7303 -0.6907
    1CHTO   O74   42   5.240   5.183   0.512  0.1662 -0.2638 -0.1683
    1CHTO  C115   43   5.344   5.160   0.630 -0.9217  0.9284  1.0897
    1CHTO  H219   44   5.350   5.244   0.699  1.4537  1.8213 -0.1675
    1CHTO   O76   45   5.312   5.049   0.709 -0.5503 -0.1539  0.0012
    1CHTO  C122   46   5.291   4.926   0.628  0.9770 -0.2068  0.2100
    1CHTO  H226   47   5.215   4.955   0.556  1.4545  2.5508  0.7524
    1CHTO  C126   48   5.240   4.806   0.709 -0.4172  0.2862  0.1463
    1CHTO   O85   49   5.201   4.692   0.635 -0.0129  0.6051 -0.4146
    1CHTO  H206   50   5.259   4.678   0.562 -0.0304 -1.3610 -0.0750
    1CHTO  C121   51   5.418   4.891   0.548 -0.1064 -0.1692  0.0269
    1CHTO  H225   52   5.465   4.794   0.573 -0.6951 -0.4489  0.0610
    1CHTO   O81   53   5.381   4.879   0.409  0.8206  0.1069 -0.7092
    1CHTO  H202   54   5.331   4.801   0.397 -0.5920  0.7727  0.6980
    1CHTO  C119   55   5.528   5.004   0.560 -0.7006  0.6795  0.4242
    1CHTO  H223   56   5.562   4.992   0.663  0.5140 -1.0436 -0.1647
    1CHTO  C117   57   5.481   5.155   0.555 -0.6975 -0.0244 -0.1379
    1CHTO  H221   58   5.466   5.198   0.456 -0.9032  3.1469  1.2229
    1CHTO   N20   59   5.586   5.237   0.619 -0.2098  0.4173  0.3185
    1CHTO  H209   60   5.563   5.341   0.608 -0.0654  0.5256  0.9926
    1CHTO  H210   61   5.580   5.220   0.726  0.1362 -0.3517  0.2216
    1CHTO   O80   62   5.656   4.973   0.475 -0.7811  0.0291  0.2615
    1CHTO  C103   63   5.778   4.902   0.549  0.5789 -0.2341 -0.2367
    1CHTO  H190   64   5.798   4.958   0.640  1.1302  0.2393 -0.6478
    1CHTO  C101   65   5.772   4.739   0.587 -0.4142  0.2496  0.2878
    1CHTO  H188   66   5.726   4.684   0.505 -1.4066  1.6614 -0.1123
    1CHTO   O68   67   5.688   4.722   0.704 -0.6953 -0.0724  0.8613
    1CHTO  H168   68   5.670   4.630   0.707  0.6646 -0.4209 -0.4961
    1CHTO   C99   69   5.920   4.683   0.612 -0.2091  0.8361  0.3464
    1CHTO  H186   70   5.965   4.740   0.696  1.3342 -1.1043  0.8615
    1CHTO   N17   71   5.915   4.534   0.639 -0.4654  0.2426  0.8605
    1CHTO  H174   72   5.889   4.478   0.550  0.4392 -0.0930  0.8007
    1CHTO  H175   73   5.840   4.503   0.710 -0.5364  0.5958  0.9401
    1CHTO   C97   74   6.005   4.716   0.490 -0.2110  0.3099 -0.0670
    1CHTO  H184   75   5.965   4.661   0.404 -1.3965  0.0023  0.6602
    1CHTO   O64   76   6.007   4.857   0.465  0.1831  0.0950 -0.4013
    1CHTO  C104   77   5.887   4.939   0.446  0.1467 -0.5526 -0.3775
    1CHTO  H191   78   5.852   4.930   0.343 -1.2712  1.5751 -0.1143
    1CHTO  C108   79   5.918   5.088   0.458 -1.2591 -0.2692 -0.3759
    1CHTO   O71   80   5.962   5.135   0.579 -0.0637  0.1748  0.6480
    1CHTO  H171   81   6.054   5.151   0.570 -0.4112  1.1312 -1.8788
    1CHTO   O62   82   6.147   4.686   0.507  0.0123 -0.8924  0.0256
    1CHTO   C91   83   6.239   4.679   0.394 -0.5274  0.1061 -0.5157
    1CHTO  H178   84   6.191   4.730   0.309  1.3654  2.8056 -0.0382
    1CHTO   C92   85   6.250   4.528   0.356 -0.5857  0.1429  0.0258
    1CHTO  H179   86   6.274   4.482   0.453 -0.6771  0.1821  0.0675
    1CHTO   O66   87   6.120   4.478   0.319 -0.8079 -0.8787 -0.2557
    1CHTO  H166   88   6.069   4.552   0.291  1.6830  1.0732  0.2803
    1CHTO   C93   89   6.354   4.486   0.244  0.1617  0.3811 -0.0926
    1CHTO  H180   90   6.316   4.529   0.151  0.6562  0.1968 -0.3857
    1CHTO   N16   91   6.370   4.344   0.219 -0.5508 -0.5542 -0.2048
    1CHTO  H172   92   6.416   4.298   0.305 -0.0988 -1.0952 -0.7270
    1CHTO  H173   93   6.269   4.314   0.199 -0.2025 -1.1661 -1.1060
    1CHTO   C94   94   6.484   4.565   0.278  0.4472 -0.7324  0.7381
    1CHTO  H181   95   6.530   4.526   0.369  1.9854 -0.4023  0.1086
    1CHTO   O61   96   6.460   4.702   0.297 -0.3814 -0.0175 -0.3688
    1CHTO   C95   97   6.383   4.728   0.415  0.1677  0.3089  0.1676
    1CHTO  H182   98   6.429   4.681   0.502  2.3258  0.9393 -0.6035
    1CHTO  C106   99   6.393   4.878   0.450  0.4254 -0.1984  0.0613
    1CHTO   O69  100   6.525   4.912   0.496 -0.1043  0.0728 -0.1722
    1CHTO  H169  101   6.600   4.879   0.452  1.4810 -0.3779  2.7112
    1CHTO   O63  102   6.590   4.544   0.158  0.0431  0.5554 -0.3659
    1CHTO   C96  103   6.734   4.601   0.187  0.2406  0.1732 -0.1619
    1CHTO  H183  104   6.723   4.708   0.205  3.4474  0.4646  0.4523
    1CHTO   C98  105   6.835   4.577   0.063  0.0023  0.3423 -0.4774
    1CHTO  H185  106   6.779   4.616  -0.023 -1.5074 -1.0745 -0.1800
    1CHTO   O67  107   6.970   4.640   0.071 -0.4059  0.7550  0.2035
    1CHTO  H167  108   7.000   4.682   0.149  5.0976 -0.8216 -0.9008
    1CHTO  C102  109   6.859   4.420   0.043 -0.2072  0.1995  0.3197
    1CHTO  H189  110   6.932   4.418  -0.039 -0.3872  2.0967  0.1042
    1CHTO   N18  111   6.743   4.332  -0.007 -0.4892  0.4718 -0.0843
    1CHTO  H176  112   6.765   4.226  -0.003  1.4265  0.8477 -0.0763
    1CHTO  H177  113   6.650   4.369   0.033  0.0255  0.9104  0.7252
    1CHTO  C105  114   6.910   4.353   0.178  0.1435 -0.8085  0.5450
    1CHTO  H192  115   6.905   4.244   0.169  1.6082 -0.9158  0.8819
    1CHTO   O65  116   6.847   4.394   0.306  0.1242 -0.2537 -0.2877
    1CHTO  C100  117   6.805   4.536   0.320  0.0371 -0.0731 -0.2609
    1CHTO  H187  118   6.721   4.536   0.392  0.1118 -0.0746 -0.1740
    1CHTO  C107  119   6.920   4.629   0.376  0.6260  0.4825 -0.1398
    1CHTO   O70  120   6.963   4.581   0.502 -0.5608 -0.2615  0.0573
    1CHTO  H170  121   7.030   4.517   0.487 -1.3028 -0.5305 -2.2684
    1CHTO   O57  122   7.060   4.392   0.187  0.1199 -0.2299 -0.4188
    1CHTO   C85  123   7.161   4.316   0.116 -0.1045 -0.1844 -0.1032
    1CHTO  H157  124   7.120   4.302   0.014 -3.5934 -2.1074  1.5024
    1CHTO   C83  125   7.177   4.174   0.185  0.1331 -0.2551 -0.1118
    1CHTO  H155  126   7.087   4.119   0.158 -1.1356  1.3609  0.8071
    1CHTO   O56  127   7.172   4.196   0.324  0.1801  0.2453  0.0651
    1CHTO  H135  128   7.260   4.180   0.349  0.5213 -2.4255 -2.5643
    1CHTO   C81  129   7.301   4.106   0.127 -0.7134  0.5468 -0.2105
    1CHTO  H153  130   7.281   4.098   0.020 -2.0086  2.7170 -0.1543
    1CHTO   N14  131   7.315   3.970   0.187 -0.2226 -0.0836 -0.3557
    1CHTO  H141  132   7.303   3.891   0.116 -0.9228 -0.1053 -0.2131
    1CHTO  H142  133   7.271   3.950   0.282  0.3787 -0.5652 -0.1751
    1CHTO   C79  134   7.428   4.196   0.142  0.7062 -0.2858  0.7074
    1CHTO  H151  135   7.511   4.148   0.091  1.2103  2.2088 -0.8998
    1CHTO   O52  136   7.412   4.317   0.069 -0.2558 -0.2291  0.1430
    1CHTO   C86  137   7.298   4.402   0.119  0.1495  0.0974  0.0814
    1CHTO  H158  138   7.329   4.430   0.222 -0.7155 -2.4029  1.0401
    1CHTO   C90  139   7.286   4.529   0.036 -0.0622  0.1410  0.2261
    1CHTO   O60  140   7.265   4.493  -0.102 -0.3884 -0.2417 -0.0570
    1CHTO  H138  141   7.220   4.411  -0.107 -2.7535  0.9634  0.8026
    1CHTO   O50  142   7.467   4.211   0.281  0.0403  0.0437  0.2117
    1CHTO   C73  143   7.598   4.193   0.340 -0.5897  0.1729 -0.0499
    1CHTO  H145  144   7.678   4.183   0.265 -1.1457 -2.9015 -0.2883
    1CHTO   C74  145   7.602   4.066   0.421 -0.1282 -0.2968 -0.0567
    1CHTO  H146  146   7.582   3.979   0.356 -1.6748 -0.0193  0.0280
    1CHTO   O54  147   7.736   4.045   0.468  0.2465  0.1627  0.0002
    1CHTO  H133  148   7.780   3.975   0.423  0.1170  0.9936 -1.4685
    1CHTO   C75  149   7.500   4.073   0.539  0.3359 -0.8307 -0.1678
    1CHTO  H147  150   7.396   4.076   0.503  0.5260  0.6302 -0.6248
    1CHTO   N13  151   7.491   3.954   0.630  0.0790 -0.7223  0.1055
    1CHTO  H139  152   7.584   3.948   0.684  0.0026  0.5067  0.3904
    1CHTO  H140  153   7.470   3.863   0.576  0.6590 -0.0263 -1.3220
    1CHTO   C76  154   7.521   4.211   0.628 -0.4767  0.5323  0.4008
    1CHTO  H148  155   7.616   4.206   0.681  0.0742 -0.4173 -0.6498
    1CHTO   O49  156   7.527   4.333   0.544  0.1605  1.1019  0.4395
    1CHTO   C77  157   7.620   4.318   0.432  0.3666 -0.1769  0.2789
    1CHTO  H149  158   7.722   4.321   0.470  0.0840  0.8624  0.9624
    1CHTO   C88  159   7.621   4.447   0.351  0.3023 -0.1612  0.0004
    1CHTO   O58  160   7.733   4.459   0.258  0.8135  0.0182  0.5567
    1CHTO  H136  161   7.707   4.446   0.169  1.5105  0.5747  0.2650
    1CHTO   O51  162   7.409   4.232   0.733  0.0652 -0.0919  0.8345
    1CHTO   C78  163   7.405   4.390   0.804  0.6922  0.2815  0.6533
    1CHTO  H150  164   7.487   4.454   0.765  0.4888 -0.3255 -0.8178
    1CHTO   C80  165   7.419   4.380   0.954  0.0101  0.2222  0.4485
    1CHTO  H152  166   7.340   4.310   0.990  0.0337  1.1579  2.4137
    1CHTO   O55  167   7.550   4.325   0.966 -0.0822  0.2608 -0.0233
    1CHTO  H134  168   7.619   4.383   0.941 -0.5142  1.1816  0.8660
    1CHTO   C84  169   7.408   4.525   1.011 -0.7253 -0.0684  0.1074
    1CHTO  H156  170   7.496   4.583   0.985 -0.9753  0.7773  1.1485
    1CHTO   N15  171   7.415   4.532   1.160 -0.3619  0.0472  0.2371
    1CHTO  H143  172   7.324   4.499   1.205 -0.7699  0.0190 -0.5954
    1CHTO  H144  173   7.491   4.470   1.201 -1.5116 -2.3676 -1.1546
    1CHTO   C87  174   7.275   4.593   0.969 -0.0178  0.1674 -0.4768
    1CHTO  H159  175   7.187   4.559   1.023  1.6488 -0.3455  2.0046
    1CHTO   O53  176   7.251   4.572   0.818  0.0250  0.9070 -0.6378
    1CHTO   C82  177   7.268   4.442   0.763  0.2153  0.5311 -0.0359
    1CHTO  H154  178   7.194   4.382   0.817 -0.0583  0.7998 -0.1119
    1CHTO   C89  179   7.232   4.437   0.614 -0.1287 -0.0241  0.0168
    1CHTO   O59  180   7.269   4.552   0.535  0.4907  0.6446 -0.4291
    1CHTO  H137  181   7.239   4.546   0.447  0.8088 -0.8491 -0.4535
    1CHTO   O45  182   7.278   4.766   0.988  0.0388  0.6878 -0.2958
    1CHTO   C67  183   7.150   4.832   0.995  0.1360  0.1236  0.3994
    1CHTO  H124  184   7.169   4.938   1.011 -0.4171  0.0706  1.4340
    1CHTO   C65  185   7.068   4.819   0.861  0.2623  0.1388  0.6381
    1CHTO  H122  186   7.099   4.727   0.812  1.5042  1.1315 -0.4398
    1CHTO   O44  187   7.089   4.932   0.773 -0.2018  0.5922 -0.4839
    1CHTO  H102  188   7.179   4.950   0.753 -0.2006  1.2958  0.1456
    1CHTO   C63  189   6.915   4.782   0.888  0.6783  0.1653  0.3989
    1CHTO  H120  190   6.907   4.678   0.919  1.3241  0.2937  1.0143
    1CHTO   N11  191   6.819   4.782   0.771  0.4839  0.7904 -0.4280
    1CHTO  H108  192   6.782   4.682   0.761 -1.6676  1.3379  1.5874
    1CHTO  H109  193   6.737   4.847   0.795 -0.7165 -1.1009  0.7448
    1CHTO   C61  194   6.868   4.874   1.004  0.5965  0.0625 -0.5187
    1CHTO  H118  195   6.763   4.855   1.028  0.8006  1.0575  1.2535
    1CHTO   O40  196   6.936   4.846   1.133  0.3432 -0.4746 -0.2842
    1CHTO   C68  197   7.069   4.784   1.128 -0.3420  0.2993 -0.5887
    1CHTO  H125  198   7.055   4.674   1.130  3.7089 -0.2638  0.5274
    1CHTO   C72  199   7.145   4.811   1.261  0.3492  0.4070  0.3164
    1CHTO   O48  200   7.062   4.784   1.376 -0.1319 -0.0322  0.2815
    1CHTO  H105  201   7.067   4.853   1.439 -0.4103  1.0740 -0.8639
    1CHTO   O38  202   6.884   5.011   0.975 -0.1925 -0.8539  0.1712
    1CHTO   C55  203   6.811   5.115   1.034  0.9444  0.5564  0.2426
    1CHTO  H112  204   6.772   5.078   1.130 -0.2173 -1.4128 -0.9431
    1CHTO   C56  205   6.691   5.162   0.939  0.1192 -0.4888 -0.2710
    1CHTO  H113  206   6.745   5.178   0.845 -0.6023 -1.9110 -0.9281
    1CHTO   O42  207   6.614   5.044   0.912  0.2667  0.0847 -0.8248
    1CHTO  H100  208   6.660   4.979   0.864  0.0886 -1.4301  1.0065
    1CHTO   C57  209   6.610   5.285   1.009  0.0961  0.1192  0.6082
    1CHTO  H114  210   6.562   5.260   1.103 -0.4374  1.5970  0.7472
    1CHTO   N10  211   6.514   5.345   0.914 -0.1378 -0.6059 -0.5832
    1CHTO  H106  212   6.500   5.451   0.930  0.6646 -0.4258 -1.0420
    1CHTO  H107  213   6.421   5.290   0.922 -0.1580 -0.5499 -0.4412
    1CHTO   C58  214   6.720   5.393   1.043  0.2138 -0.4705  0.6374
    1CHTO  H115  215   6.772   5.430   0.951 -0.9008  2.3537  1.0797
    1CHTO   O37  216   6.821   5.335   1.123  0.2762  0.4250  0.1059
    1CHTO   C59  217   6.907   5.230   1.068  0.8166 -0.2938  0.5801
    1CHTO  H116  218   6.965   5.259   0.980  0.8100 -1.1920  0.2769
    1CHTO   C70  219   7.008   5.196   1.176 -0.6169 -0.1315  0.1031
    1CHTO   O46  220   7.070   5.310   1.240 -0.0226  0.4576  0.3644
    1CHTO  H103  221   7.081   5.375   1.173 -2.4423  0.5946  0.0325
    1CHTO   O39  222   6.660   5.507   1.126  0.3779 -0.4470  0.1912
    1CHTO   C60  223   6.666   5.641   1.064  0.4215  0.2348 -0.4721
    1CHTO  H117  224   6.701   5.645   0.960  1.2557 -1.7680 -0.3058
    1CHTO   C62  225   6.522   5.692   1.051 -0.0827  0.0687 -0.1693
    1CHTO  H119  226   6.474   5.619   0.982  2.6936 -1.2485 -0.7883
    1CHTO   O43  227   6.451   5.691   1.175  0.0350  0.2460  0.9648
    1CHTO  H101  228   6.417   5.773   1.206 -1.8828  0.0033 -0.4188
    1CHTO   C66  229   6.529   5.834   0.968 -0.0493  0.4701  0.4763
    1CHTO  H123  230   6.591   5.816   0.880 -0.4006 -1.3534  0.5884
    1CHTO   N12  231   6.395   5.885   0.932 -0.3828  0.1217  0.1773
    1CHTO  H110  232   6.314   5.817   0.912 -0.7410  0.6969 -0.3472
    1CHTO  H111  233   6.408   5.959   0.854 -0.8284 -0.7469 -0.7310
    1CHTO   C69  234   6.602   5.934   1.058  0.3238 -0.3085  0.8668
    1CHTO  H126  235   6.546   5.953   1.152 -0.5973 -0.0550  0.2649
    1CHTO   O41  236   6.755   5.873   1.081 -0.5280  0.1343 -0.7816
    1CHTO   C64  237   6.758   5.736   1.141 -0.4767 -1.1099  0.1448
    1CHTO  H121  238   6.725   5.735   1.247  0.9695  1.6231  0.6827
    1CHTO   C71  239   6.904   5.680   1.142 -0.8756  0.0954  0.0273
    1CHTO   O47  240   6.983   5.735   1.246  0.9250 -0.1668  0.5183
    1CHTO  H104  241   7.069   5.699   1.256  1.0137 -0.5525 -1.5376
    1CHTO   O34  242   6.611   6.075   1.001  0.7442  0.1613  0.2117
    1CHTO   C49  243   6.633   6.187   0.906 -0.7427  1.0606 -0.3903
    1CHTO   H91  244   6.553   6.185   0.832 -1.3223  0.9518  0.2389
    1CHTO   C47  245   6.774   6.173   0.836  0.5720  0.7525  0.1518
    1CHTO   H89  246   6.780   6.233   0.742  0.5140  0.5784  0.0381
    1CHTO   O33  247   6.793   6.033   0.806  0.3205  0.4094 -0.8317
    1CHTO   H70  248   6.724   5.998   0.753  0.6059 -1.0531 -0.2585
    1CHTO   C45  249   6.895   6.218   0.935 -0.8183 -0.1410 -0.6579
    1CHTO   H87  250   6.902   6.150   1.022 -2.4025  0.9571  0.3586
    1CHTO    N8  251   7.030   6.210   0.867 -0.3403 -0.6577  0.3520
    1CHTO   H75  252   7.112   6.222   0.936  1.5001  1.1821 -2.0973
    1CHTO   H76  253   7.034   6.281   0.786  0.2234  0.9836  1.7794
    1CHTO   C43  254   6.870   6.363   1.007  0.3282  0.2327 -0.1909
    1CHTO   H85  255   6.945   6.378   1.085  0.1242  0.4307 -0.0342
    1CHTO   O29  256   6.736   6.369   1.060 -0.3936 -0.6100 -0.2079
    1CHTO   C50  257   6.620   6.323   0.983 -0.2288  0.0431 -0.4833
    1CHTO   H92  258   6.532   6.309   1.048 -1.5641  1.4517 -1.9235
    1CHTO   C54  259   6.569   6.437   0.887  0.1816  0.3110  0.6267
    1CHTO   O36  260   6.564   6.553   0.968  0.2422 -0.2179  0.2933
    1CHTO   H72  261   6.483   6.557   1.015 -0.1670 -1.4136 -0.3019
    1CHTO   O27  262   6.888   6.472   0.916  0.0003 -0.5066  0.4875
    1CHTO   C37  263   6.970   6.590   0.915  0.7793 -0.6632 -0.2763
    1CHTO   H79  264   6.959   6.648   1.008  0.9452  3.8969 -2.9604
    1CHTO   C38  265   7.123   6.550   0.906  0.8151 -0.1976 -0.0753
    1CHTO   H80  266   7.142   6.475   0.828 -0.4219 -0.3676 -0.2247
    1CHTO   O31  267   7.157   6.485   1.029 -0.2284 -0.1164  0.4336
    1CHTO   H68  268   7.248   6.498   1.044 -0.0220  0.2572 -1.0701
    1CHTO   C39  269   7.208   6.679   0.889  0.6216  0.1072 -0.1264
    1CHTO   H81  270   7.197   6.736   0.982 -1.0753  1.0430 -0.8787
    1CHTO    N7  271   7.353   6.652   0.887 -0.7603  0.0900  0.1042
    1CHTO   H73  272   7.373   6.572   0.956 -1.8731 -1.6964 -1.5849
    1CHTO   H74  273   7.384   6.618   0.789  0.4997  1.1058  0.1437
    1CHTO   C40  274   7.158   6.756   0.761 -0.2168 -0.7513 -0.3705
    1CHTO   H82  275   7.171   6.687   0.678 -0.6868 -2.1680  0.7028
    1CHTO   O26  276   7.019   6.791   0.783 -0.1124 -0.1215  0.2370
    1CHTO   C41  277   6.929   6.686   0.790  0.6643  0.3314 -0.3305
    1CHTO   H83  278   6.927   6.632   0.695 -2.4283  0.5052 -0.3883
    1CHTO   C52  279   6.780   6.749   0.807 -0.6220  0.2931 -0.4981
    1CHTO   O35  280   6.763   6.860   0.702 -0.2626  0.3471 -0.1744
    1CHTO   H71  281   6.677   6.853   0.665 -1.5044  0.7881  2.5469
    1CHTO   O28  282   7.225   6.878   0.729 -0.3227  0.2865  0.5902
    1CHTO   C42  283   7.245   6.916   0.587  0.1319  0.7217  0.4047
    1CHTO   H84  284   7.176   6.852   0.533 -0.2416  1.4836 -0.0287
    1CHTO   C44  285   7.375   6.875   0.531 -1.1118 -0.0083 -0.6780
    1CHTO   H86  286   7.450   6.940   0.576 -0.3566 -1.3978  0.0820
    1CHTO   O32  287   7.399   6.738   0.579 -0.2339  0.0529  0.0357
    1CHTO   H69  288   7.489   6.723   0.557 -0.1945  1.4061 -0.8084
    1CHTO   C48  289   7.387   6.890   0.371  0.4915 -0.2707  0.0329
    1CHTO   H90  290   7.316   6.818   0.331  0.0618  0.5763 -0.7545
    1CHTO    N9  291   7.519   6.857   0.305  0.4050 -0.2221  0.6148
    1CHTO   H77  292   7.529   6.752   0.331  1.1701  0.1407  1.8420
    1CHTO   H78  293   7.601   6.916   0.343 -0.3945  0.0568  1.9477
    1CHTO   C51  294   7.333   7.034   0.330  0.1041 -0.0073  0.4918
    1CHTO   H93  295   7.413   7.106   0.343 -0.8925  1.7058 -2.4474
    1CHTO   O30  296   7.211   7.074   0.403  0.4596 -0.4185 -0.3868
    1CHTO   C46  297   7.212   7.058   0.545  0.1764 -1.0765 -0.2163
    1CHTO   H88  298   7.286   7.126   0.588  0.1245 -0.6309 -0.8328
    1CHTO   C53  299   7.073   7.098   0.598 -0.2117  0.3931 -0.2355
    1CHTO   O72  300   7.057   7.142   0.731 -0.2981 -0.6903  0.2118
    1CHTO  H199  301   6.973   7.183   0.739  0.4407  1.5813 -2.8238
    1CHTO   O22  302   7.289   7.041   0.191  0.1141  0.2297  0.4709
    1CHTO   C31  303   7.152   7.050   0.129  0.4332  0.5244 -1.1911
    1CHTO   H59  304   7.079   7.017   0.206  1.8557 -1.4782 -0.6778
    1CHTO   C29  305   7.102   7.192   0.092 -0.2601 -0.0319  0.0987
    1CHTO   H57  306   7.176   7.223   0.016  0.4236 -2.4955 -0.2805
    1CHTO   O21  307   7.122   7.273   0.205  0.9266  0.1263 -0.1410
    1CHTO   H37  308   7.079   7.356   0.203  0.1727 -0.2751 -0.7979
    1CHTO   C27  309   6.960   7.196   0.026  0.4910  0.3238  0.2993
    1CHTO   H55  310   6.886   7.153   0.094 -1.0621  1.8321 -0.4097
    1CHTO    N5  311   6.911   7.331  -0.020 -0.4103 -0.3613  0.2896
    1CHTO   H43  312   6.994   7.400  -0.008  0.1892 -0.8093 -1.2101
    1CHTO   H44  313   6.831   7.351   0.050  0.3251 -0.8723  1.3013
    1CHTO   C25  314   6.969   7.100  -0.096  0.7943  0.0754 -0.2424
    1CHTO   H53  315   7.048   7.130  -0.167  0.4074  0.0703 -0.6784
    1CHTO   O17  316   7.002   6.972  -0.050  0.7002 -0.1538 -0.1419
    1CHTO   C32  317   7.129   6.955   0.009 -0.9089  0.6877 -0.4963
    1CHTO   H60  318   7.192   6.988  -0.073 -2.1607  1.9663 -0.9718
    1CHTO   C36  319   7.141   6.799   0.043 -0.3570 -0.2609  0.2301
    1CHTO   O25  320   7.027   6.747   0.109  0.2260  0.6477 -0.3301
    1CHTO   H40  321   6.941   6.782   0.093  0.3435  1.7579  1.2961
    1CHTO   O15  322   6.825   7.074  -0.174  0.6724 -0.7445  0.7040
    1CHTO   C19  323   6.712   6.984  -0.179 -0.1579 -0.3750  0.0288
    1CHTO   H47  324   6.701   6.949  -0.075  2.1566  2.5848  1.3367
    1CHTO   C20  325   6.580   7.052  -0.222  0.7806 -0.2183 -0.0495
    1CHTO   H48  326   6.585   7.086  -0.326  2.2863 -2.7398 -0.8479
    1CHTO   O19  327   6.550   7.171  -0.146 -0.6472  0.1159  0.1828
    1CHTO   H35  328   6.612   7.237  -0.172 -0.9153  1.6384  3.1994
    1CHTO   C21  329   6.459   6.948  -0.220  0.2923 -0.3404  0.7042
    1CHTO   H49  330   6.431   6.923  -0.117  0.1118  1.1020  1.0230
    1CHTO    N4  331   6.334   7.013  -0.282  0.1643  0.5853  0.2838
    1CHTO   H41  332   6.354   7.022  -0.387 -0.0130  3.0610  0.4150
    1CHTO   H42  333   6.315   7.111  -0.240 -0.7944  0.5439 -0.0336
    1CHTO   C22  334   6.489   6.815  -0.291  0.1433 -0.3938  0.4208
    1CHTO   H50  335   6.483   6.837  -0.398  1.6299  1.1197  0.6104
    1CHTO   O14  336   6.624   6.768  -0.259 -0.2258  0.3727 -0.4417
    1CHTO   C23  337   6.732   6.857  -0.280 -0.0347 -0.5011 -0.4256
    1CHTO   H51  338   6.742   6.886  -0.386  0.7239  1.8008  0.2397
    1CHTO   C34  339   6.866   6.776  -0.266  0.6647  0.1147 -0.1636
    1CHTO   O23  340   6.865   6.664  -0.352  0.7200  0.7410  0.0944
    1CHTO   H38  341   6.946   6.618  -0.345  0.3376  0.2645  1.6173
    1CHTO   O16  342   6.399   6.706  -0.252 -0.0115  0.1402 -0.0921
    1CHTO   C24  343   6.410   6.585  -0.327  0.5282  0.3137 -0.2058
    1CHTO   H52  344   6.493   6.588  -0.397 -0.5919  1.5000 -1.5020
    1CHTO   C26  345   6.279   6.579  -0.404  0.0108  0.1674 -0.0643
    1CHTO   H54  346   6.195   6.598  -0.334 -1.1182  0.0928 -1.3814
    1CHTO   O20  347   6.263   6.678  -0.506  0.5310 -0.5061 -0.3056
    1CHTO   H36  348   6.345   6.703  -0.544  0.2883 -0.0074 -0.5052
    1CHTO   C30  349   6.238   6.438  -0.459 -0.3078  0.2648  0.3907
    1CHTO   H58  350   6.297   6.421  -0.550 -1.7899 -1.0265 -0.3543
    1CHTO    N6  351   6.095   6.420  -0.496  0.0649 -0.1083 -0.3828
    1CHTO   H45  352   6.075   6.466  -0.592  2.5228  1.9724  0.0460
    1CHTO   H46  353   6.041   6.475  -0.420  0.0573 -0.1495 -0.3587
    1CHTO   C33  354   6.284   6.321  -0.364  0.2467 -0.3705 -0.7352
    1CHTO   H61  355   6.221   6.318  -0.274 -0.6541 -1.5470 -1.3925
    1CHTO   O18  356   6.417   6.351  -0.330  0.1266 -0.4519 -0.3465
    1CHTO   C28  357   6.436   6.466  -0.238 -0.4207  0.0687 -0.5661
    1CHTO   H56  358   6.373   6.471  -0.149 -0.0697 -1.3709 -0.2356
    1CHTO   C35  359   6.596   6.461  -0.204  0.3528  0.0870 -0.3460
    1CHTO   O24  360   6.636   6.518  -0.078  0.0566  0.6475  0.1241
    1CHTO   H39  361   6.717   6.564  -0.084 -0.8858  2.2048 -0.8644
    1CHTO    O9  362   6.272   6.186  -0.410 -0.4525 -0.9087 -0.5606
    1CHTO   C13  363   6.305   6.072  -0.306 -0.0675  0.1843  0.5469
    1CHTO   H26  364   6.268   6.099  -0.205  1.2482 -2.4987  1.8050
    1CHTO   C11  365   6.466   6.044  -0.307 -0.6415 -0.2358  0.2973
    1CHTO   H24  366   6.518   6.134  -0.273 -1.2725  1.4287 -2.9048
    1CHTO    O8  367   6.516   6.007  -0.441 -0.2173 -0.7305  0.3363
    1CHTO    H3  368   6.603   6.041  -0.450 -0.5009  0.1678  0.9622
    1CHTO    C9  369   6.490   5.927  -0.209  0.4355  0.3305 -0.0795
    1CHTO   H22  370   6.431   5.956  -0.120 -2.7406 -0.0371 -1.9957
    1CHTO    N2  371   6.629   5.911  -0.158 -0.0249  0.6905 -0.4211
    1CHTO   H10  372   6.642   5.962  -0.063  0.5135 -0.0264 -0.1038
    1CHTO   H11  373   6.649   5.806  -0.143 -2.7578  0.2812  0.9064
    1CHTO    C7  374   6.410   5.793  -0.255 -0.0641 -0.0536  0.6493
    1CHTO   H20  375   6.358   5.760  -0.163 -0.3973 -0.8388  0.1895
    1CHTO    O4  376   6.318   5.831  -0.361 -0.2849  0.5798 -0.3584
    1CHTO   C14  377   6.227   5.939  -0.342  0.4435 -0.1461  0.4739
    1CHTO   H27  378   6.156   5.920  -0.260 -0.0924  1.4702  0.3902
    1CHTO   C18  379   6.141   5.958  -0.470  0.3007 -0.3662 -0.3391
    1CHTO   O13  380   6.030   5.871  -0.460 -0.9996  0.4439 -0.0513
    1CHTO    H7  381   5.955   5.904  -0.505 -1.7221 -2.1606 -0.8715
    1CHTO    O2  382   6.492   5.673  -0.311  0.3781  0.1403  0.0763
    1CHTO    C1  383   6.493   5.556  -0.221 -0.1245 -0.2911 -0.7782
    1CHTO   H14  384   6.443   5.579  -0.125  0.2801  2.4829 -1.1878
    1CHTO    C2  385   6.638   5.506  -0.196 -0.3467  0.2605 -0.3764
    1CHTO   H15  386   6.678   5.486  -0.297 -2.7451 -2.5713 -0.8389
    1CHTO    O6  387   6.718   5.609  -0.129  0.0488 -0.5703  0.5776
    1CHTO    H1  388   6.806   5.585  -0.150 -1.0336 -3.4115 -0.9968
    1CHTO    C3  389   6.634   5.369  -0.113 -0.0996  0.2273 -0.5134
    1CHTO   H16  390   6.596   5.393  -0.012  1.3620  0.3102  0.0224
    1CHTO    N1  391   6.765   5.305  -0.105  0.5250 -0.5565  0.4165
    1CHTO    H8  392   6.839   5.365  -0.156  0.0314 -0.7319 -0.5190
    1CHTO    H9  393   6.800   5.285  -0.005  2.6981 -1.0000 -0.3927
    1CHTO    C4  394   6.525   5.267  -0.174  0.2328 -1.1214 -0.2346
    1CHTO   H17  395   6.563   5.227  -0.268  1.4743 -1.9287  0.6052
    1CHTO    O1  396   6.391   5.326  -0.201 -0.4985 -0.1358  0.2744
    1CHTO    C5  397   6.404   5.441  -0.288  0.3090  0.0117 -0.2175
    1CHTO   H18  398   6.455   5.408  -0.378  4.8773 -0.0318  2.2446
    1CHTO   C16  399   6.254   5.483  -0.318 -0.2612  0.3049 -0.0188
    1CHTO   O11  400   6.188   5.364  -0.367 -0.3572  0.6855  0.2820
    1CHTO    H5  401   6.154   5.309  -0.299 -4.0340  2.5466  0.0800
    1CHTO    O3  402   6.491   5.169  -0.075 -0.3097  0.8843 -0.2891
    1CHTO    C6  403   6.420   5.045  -0.115 -0.3739  0.1519  0.1579
    1CHTO   H19  404   6.339   5.070  -0.183 -1.9784 -0.7403  1.6889
    1CHTO    C8  405   6.519   4.945  -0.185  0.0432  0.2444  0.1810
    1CHTO   H21  406   6.615   4.956  -0.136 -0.0404  0.6898  0.2530
    1CHTO    O7  407   6.535   4.993  -0.320 -0.1986  0.3137 -0.2344
    1CHTO    H2  408   6.622   4.981  -0.352  0.3940 -0.1859  1.5196
    1CHTO   C12  409   6.468   4.806  -0.190  0.4436  0.4281  1.1851
    1CHTO   H25  410   6.387   4.806  -0.267  1.7620 -1.5526 -0.2480
    1CHTO    N3  411   6.566   4.704  -0.241  0.1490 -0.0317  0.2335
    1CHTO   H12  412   6.565   4.705  -0.349 -0.6146 -4.1544  0.1133
    1CHTO   H13  413   6.537   4.603  -0.215  0.6460 -0.7371 -1.8604
    1CHTO   C15  414   6.405   4.764  -0.056  0.1828 -0.0529  0.1590
    1CHTO   H28  415   6.481   4.755   0.022  3.4110 -1.3132 -2.9914
    1CHTO   O10  416   6.318   4.620  -0.078 -0.1189  0.1811  0.4384
    1CHTO    H4  417   6.373   4.546  -0.063  1.6683  1.1468 -1.0932
    1CHTO    O5  418   6.304   4.855  -0.014 -0.0898  0.3202 -0.3159
    1CHTO   C10  419   6.359   4.984   0.016 -0.5198 -0.0622 -0.1321
    1CHTO   H23  420   6.441   4.978   0.087  0.1797  2.7510 -0.6575
    1CHTO   C17  421   6.251   5.074   0.077 -0.1172 -0.3722  0.1171
    1CHTO   O12  422   6.209   5.015   0.203  0.6093 -0.1508  0.0768
    1CHTO    H6  423   6.285   4.983   0.248  1.1049 -0.6545 -1.1006
    2CHTO  H203  424   4.333   3.906   1.708 -0.3501  0.5142 -0.5994
    2CHTO   O82  425   4.285   3.935   1.784  0.1571  0.0085 -0.0796
    2CHTO  C123  426   4.148   3.950   1.758  0.4772  0.1589  0.0980
    2CHTO  H227  427   4.097   3.968   1.855 -0.7394 -1.3059 -0.2413
    2CHTO   O77  428   4.147   4.069   1.675  0.1210  0.8586  0.0040
    2CHTO  C118  429   4.033   4.104   1.606 -0.7242 -0.4862  0.4969
    2CHTO  H222  430   3.954   4.139   1.674 -2.1592 -0.5310 -1.1175
    2CHTO  C125  431   4.081   4.226   1.511  0.1206 -0.1466 -0.7379
    2CHTO   O84  432   4.181   4.187   1.418 -0.1436  0.0355 -0.1658
    2CHTO  H205  433   4.148   4.119   1.361  2.0707  1.3495 -3.1469
    2CHTO  C114  434   3.978   3.991   1.515  0.4055 -0.2374  0.6135
    2CHTO  H218  435   4.051   3.963   1.440 -3.0772 -0.9852 -2.6685
    2CHTO  C116  436   3.956   3.866   1.605  0.0791  0.3197  0.1942
    2CHTO  H220  437   3.874   3.897   1.673 -0.3014  1.2348 -0.6750
    2CHTO   O79  438   3.906   3.760   1.518  0.8099  0.4767  0.1944
    2CHTO  H201  439   3.820   3.778   1.485  1.3347 -1.5313 -2.4351
    2CHTO  C120  440   4.094   3.830   1.674 -0.4973  0.4747 -0.1388
    2CHTO  H224  441   4.164   3.800   1.593  0.3701  1.3013  0.3076
    2CHTO   N21  442   4.070   3.711   1.754 -0.3670  0.5295 -0.3292
    2CHTO  H211  443   4.049   3.743   1.855  0.7797  0.1754  0.0215
    2CHTO  H212  444   4.154   3.644   1.758 -0.1905  0.7246 -0.7224
    2CHTO   O75  445   3.860   4.052   1.448 -0.4321 -0.7923 -0.1452
    2CHTO  C112  446   3.853   4.029   1.283  0.0296 -0.0230 -0.7848
    2CHTO  H216  447   3.906   3.934   1.269  1.4449  0.8599 -1.5457
    2CHTO   O73  448   3.921   4.133   1.214 -0.0994  0.0921 -0.1814
    2CHTO  C113  449   3.931   4.116   1.071  0.1372 -0.4280  1.0195
    2CHTO  H217  450   3.970   4.014   1.050 -0.0237  0.0231 -1.6071
    2CHTO  C124  451   4.017   4.236   1.025  0.6341 -0.3472 -0.1116
    2CHTO   O83  452   4.018   4.238   0.880  0.3786 -0.3131 -0.4083
    2CHTO  H204  453   4.065   4.315   0.857  0.4043 -0.6608 -1.5401
    2CHTO  C109  454   3.776   4.131   1.023 -0.0526 -0.0881 -0.7878
    2CHTO  H213  455   3.750   4.235   1.050  0.5511  0.1878 -1.2724
    2CHTO  C110  456   3.680   4.025   1.089 -0.6673 -0.8642 -0.5000
    2CHTO  H214  457   3.695   3.928   1.040 -0.1116 -1.4250  0.7498
    2CHTO   O78  458   3.543   4.051   1.052 -0.3204 -0.1666  0.4658
    2CHTO  H200  459   3.481   3.985   1.078  1.7096 -2.1180  0.4897
    2CHTO  C111  460   3.699   4.033   1.239  0.3033 -0.6934 -0.1928
    2CHTO  H215  461   3.659   4.132   1.266  0.9660  0.0239 -1.7554
    2CHTO   N19  462   3.620   3.930   1.311 -0.0389  0.4716  0.3945
    2CHTO  H207  463   3.624   3.933   1.419  1.3066  1.7704  0.3268
    2CHTO  H208  464   3.632   3.827   1.283 -1.0487  0.9206 -1.7490
    2CHTO   O74  465   3.760   4.116   0.882 -0.3442  0.4146 -0.0392
    2CHTO  C115  466   3.719   4.279   0.813  0.0811 -0.1889 -0.0554
    2CHTO  H219  467   3.738   4.355   0.889  2.6382 -0.5450 -0.2989
    2CHTO   O76  468   3.811   4.316   0.679  0.5453  0.0857  0.4263
    2CHTO  C122  469   3.762   4.265   0.554 -0.2594  0.0387 -0.1635
    2CHTO  H226  470   3.766   4.157   0.563 -1.7955 -0.2559 -2.6454
    2CHTO  C126  471   3.851   4.305   0.436 -0.2444 -0.9204  0.0201
    2CHTO   O85  472   3.996   4.286   0.432  0.6265 -0.4034  0.3238
    2CHTO  H206  473   4.028   4.366   0.394 -2.3644 -0.3131 -2.1985
    2CHTO  C121  474   3.608   4.314   0.529  0.6408 -0.2229  1.1690
    2CHTO  H225  475   3.607   4.396   0.454  2.6091 -0.6545  0.6380
    2CHTO   O81  476   3.525   4.203   0.480 -0.3508 -0.2637  0.5857
    2CHTO  H202  477   3.469   4.239   0.414  1.1840  1.7277  0.2825
    2CHTO  C119  478   3.537   4.367   0.660  0.1015  0.0444  0.2117
    2CHTO  H223  479   3.582   4.464   0.676  1.5157 -0.0368 -3.0021
    2CHTO  C117  480   3.567   4.284   0.789 -0.0996 -0.2833  0.1153
    2CHTO  H221  481   3.527   4.183   0.783  0.2253 -0.4789  1.0545
    2CHTO   N20  482   3.493   4.346   0.909  0.4286 -0.7756 -0.0180
    2CHTO  H209  483   3.472   4.267   0.980 -1.2334 -0.6974 -0.4203
    2CHTO  H210  484   3.543   4.430   0.956 -1.0345  1.0186 -1.6373
    2CHTO   O80  485   3.384   4.406   0.628  0.0569  0.5243  0.9645
    2CHTO  C103  486   3.347   4.540   0.542  0.4615  0.6877  0.0915
    2CHTO  H190  487   3.435   4.589   0.499 -0.1994  1.2538 -0.6519
    2CHTO  C101  488   3.265   4.518   0.407  0.2576 -0.3768 -0.2211
    2CHTO  H188  489   3.174   4.469   0.442 -0.9617  1.3557 -0.8505
    2CHTO   O68  490   3.338   4.434   0.326  0.5918 -0.2916  0.7965
    2CHTO  H168  491   3.276   4.380   0.280  0.4598  0.2329  0.3489
    2CHTO   C99  492   3.220   4.658   0.334  0.3268 -0.2152  0.2346
    2CHTO  H186  493   3.309   4.715   0.302 -0.0897  1.0025  1.2007
    2CHTO   N17  494   3.142   4.634   0.212  0.7300  0.2857  0.2932
    2CHTO  H174  495   3.045   4.597   0.242  0.8445 -1.2648 -1.1599
    2CHTO  H175  496   3.124   4.732   0.171  0.8589 -0.4561 -1.5529
    2CHTO   C97  497   3.146   4.753   0.434 -0.0183 -0.1639 -0.2127
    2CHTO  H184  498   3.045   4.722   0.466  0.4077 -1.0279  0.3313
    2CHTO   O64  499   3.241   4.764   0.544  0.4759  0.6119  0.0024
    2CHTO  C104  500   3.271   4.647   0.623  0.3081  0.0899 -0.4280
    2CHTO  H191  501   3.180   4.600   0.662  3.3410 -5.1988  0.7368
    2CHTO  C108  502   3.347   4.686   0.750  0.0001 -0.3839  0.4305
    2CHTO   O71  503   3.286   4.784   0.828  0.0504 -0.2242  0.3485
    2CHTO  H171  504   3.354   4.834   0.868 -0.4848 -0.0991  1.1132
    2CHTO   O62  505   3.135   4.889   0.384 -0.9200 -0.1835 -0.2066
    2CHTO   C91  506   3.010   4.960   0.390 -0.2703  0.4976  0.3727
    2CHTO  H178  507   2.930   4.888   0.409 -0.7251  1.2619  1.4020
    2CHTO   C92  508   2.983   5.020   0.254  0.3864 -0.2386  0.1447
    2CHTO  H179  509   3.072   5.075   0.220  0.5229  0.2706  1.3222
    2CHTO   O66  510   2.971   4.906   0.169  0.2466 -0.4726  0.0127
    2CHTO  H166  511   2.978   4.930   0.079 -1.2442 -0.2286 -0.0580
    2CHTO   C93  512   2.867   5.121   0.251 -0.0107 -0.2412 -0.4332
    2CHTO  H180  513   2.771   5.076   0.281 -0.1606 -0.3281 -1.0359
    2CHTO   N16  514   2.833   5.167   0.113  0.0700  0.3106 -0.6608
    2CHTO  H172  515   2.753   5.107   0.072  2.4637 -1.5700 -2.6561
    2CHTO  H173  516   2.793   5.266   0.130 -2.4996 -1.1447  2.1953
    2CHTO   C94  517   2.896   5.238   0.353  0.1920 -0.8674  0.2423
    2CHTO  H181  518   2.992   5.285   0.334  0.0441 -0.9424 -0.7189
    2CHTO   O61  519   2.900   5.176   0.484 -0.3863 -0.2170  0.1083
    2CHTO   C95  520   2.994   5.073   0.500 -0.4607  1.0885 -0.3722
    2CHTO  H182  521   3.094   5.116   0.509  0.4149 -0.7470 -1.0119
    2CHTO  C106  522   2.956   5.000   0.634  0.0259  0.0288  0.2975
    2CHTO   O69  523   2.994   5.079   0.747 -0.0288 -0.3438 -0.3367
    2CHTO  H169  524   3.038   5.036   0.818  0.1516  2.2170  1.1966
    2CHTO   O63  525   2.777   5.349   0.369  0.6736  0.2119 -0.4727
    2CHTO   C96  526   2.809   5.500   0.342 -1.1345 -0.2279 -0.8658
    2CHTO  H183  527   2.878   5.499   0.258 -0.6391  0.4601 -0.4714
    2CHTO   C98  528   2.874   5.571   0.463 -0.1415  0.4911  0.0180
    2CHTO  H185  529   2.806   5.571   0.549 -2.8813 -1.3262 -2.0549
    2CHTO   O67  530   2.985   5.494   0.506 -1.4083  0.1896  0.4710
    2CHTO  H167  531   3.056   5.496   0.445  0.0766  3.0756  2.1775
    2CHTO  C102  532   2.902   5.726   0.432  0.3292 -0.1815  0.1555
    2CHTO  H189  533   2.967   5.731   0.343  1.9519 -0.0320  1.3312
    2CHTO   N18  534   2.967   5.798   0.540 -0.0427 -0.4433 -0.6429
    2CHTO  H176  535   2.915   5.798   0.634  0.0767 -0.1756 -0.5745
    2CHTO  H177  536   2.986   5.901   0.513 -1.4379 -0.0574 -0.1477
    2CHTO  C105  537   2.770   5.794   0.387  0.7125 -0.7161  0.2791
    2CHTO  H192  538   2.701   5.809   0.469  0.2291  1.5596 -0.4954
    2CHTO   O65  539   2.711   5.721   0.279  0.4423  0.2123 -0.0963
    2CHTO  C100  540   2.678   5.582   0.295 -0.4327  0.1129  0.4541
    2CHTO  H187  541   2.596   5.574   0.369 -3.6198  1.3731 -2.7599
    2CHTO  C107  542   2.613   5.535   0.161  0.0029  0.4724  0.0112
    2CHTO   O70  543   2.693   5.567   0.050 -0.0070 -0.6089  0.2771
    2CHTO  H170  544   2.655   5.642   0.007 -0.3111 -0.3379  1.0187
    2CHTO   O57  545   2.819   5.946   0.330 -0.2907 -0.1422  0.1658
    2CHTO   C85  546   2.735   6.051   0.285 -0.8710 -0.3292 -0.1377
    2CHTO  H157  547   2.647   6.045   0.353 -1.4708  1.2841 -0.7518
    2CHTO   C83  548   2.688   6.010   0.148 -0.0377 -0.2852  0.0379
    2CHTO  H155  549   2.635   5.915   0.141  1.8701 -1.1561 -3.6630
    2CHTO   O56  550   2.800   5.968   0.069  0.1226 -0.1967  0.1055
    2CHTO  H135  551   2.819   6.015  -0.011  0.8801 -1.3806 -0.4176
    2CHTO   C81  552   2.600   6.125   0.102  0.1858 -0.7115 -0.0766
    2CHTO  H153  553   2.529   6.150   0.180  0.3868 -3.3299  0.9871
    2CHTO   N14  554   2.520   6.094  -0.016 -0.2315  0.1405 -0.0056
    2CHTO  H141  555   2.584   6.075  -0.100 -0.0770  0.9041 -0.0636
    2CHTO  H142  556   2.450   6.014  -0.002 -1.3878  1.3548  1.2925
    2CHTO   C79  557   2.677   6.260   0.082  0.1721 -0.2730 -0.2384
    2CHTO  H151  558   2.609   6.341   0.056 -0.5457 -0.6109  0.5790
    2CHTO   O52  559   2.726   6.300   0.216 -0.2682 -0.4480 -0.3441
    2CHTO   C86  560   2.803   6.195   0.288  0.1249  0.2001 -0.6343
    2CHTO  H158  561   2.900   6.186   0.235  0.4845 -1.3519  0.2613
    2CHTO   C90  562   2.824   6.243   0.424  0.0493 -0.2857 -0.2257
    2CHTO   O60  563   2.909   6.364   0.436 -0.2345 -0.2613 -0.2187
    2CHTO  H138  564   2.971   6.349   0.504 -2.2186 -0.8333  1.5370
    2CHTO   O50  565   2.793   6.245  -0.005 -0.6561 -0.1079 -0.0830
    2CHTO   C73  566   2.879   6.269  -0.120  0.1995  0.7260  0.5808
    2CHTO  H145  567   2.893   6.376  -0.140  0.4464  0.8927  1.6131
    2CHTO   C74  568   2.824   6.211  -0.255 -0.0397  0.0530 -0.3241
    2CHTO  H146  569   2.729   6.265  -0.268  0.1718  0.7768  1.0700
    2CHTO   O54  570   2.904   6.257  -0.364  0.4416 -0.5310  0.3384
    2CHTO  H133  571   2.854   6.282  -0.439 -1.6378  0.2573  1.9162
    2CHTO   C75  572   2.806   6.055  -0.250  0.5328 -0.3662 -0.8097
    2CHTO  H147  573   2.746   6.036  -0.160  0.8723 -2.0925 -0.9323
    2CHTO   N13  574   2.735   5.992  -0.366  0.0690  0.2881 -0.6057
    2CHTO  H139  575   2.801   5.914  -0.402  0.6277  0.4900 -0.0219
    2CHTO  H140  576   2.640   5.945  -0.343 -0.4688  1.3924 -0.5321
    2CHTO   C76  577   2.952   5.996  -0.222  0.3710 -0.4131  0.4815
    2CHTO  H148  578   3.019   6.010  -0.306 -0.9782  1.1742 -0.3487
    2CHTO   O49  579   3.010   6.054  -0.104 -0.0748  0.3048 -0.2668
    2CHTO   C77  580   3.022   6.197  -0.099  0.2039 -0.6620  0.4290
    2CHTO  H149  581   3.086   6.219  -0.184 -0.3667  0.2527  0.2352
    2CHTO   C88  582   3.091   6.230   0.036  0.4647  0.3750 -0.4436
    2CHTO   O58  583   3.222   6.196   0.049 -0.0886 -0.1311  0.2455
    2CHTO  H136  584   3.264   6.266   0.096  1.0700  0.2087 -1.2433
    2CHTO   O51  585   2.940   5.851  -0.181 -0.0702  0.5822 -0.1213
    2CHTO   C78  586   3.068   5.747  -0.214  1.0680 -0.7114  0.3106
    2CHTO  H150  587   3.154   5.804  -0.254  2.1884 -1.5726  1.4456
    2CHTO   C80  588   3.021   5.643  -0.317  0.2518 -0.2632 -0.1738
    2CHTO  H152  589   2.933   5.590  -0.272 -0.9250  0.7025 -1.3091
    2CHTO   O55  590   2.978   5.711  -0.430 -0.2574 -0.4576 -0.2704
    2CHTO  H134  591   2.887   5.702  -0.449 -0.6852  1.0226  1.0443
    2CHTO   C84  592   3.135   5.543  -0.346  0.0078 -0.4668 -0.6013
    2CHTO  H156  593   3.220   5.598  -0.385 -0.6110  0.2852 -0.8945
    2CHTO   N15  594   3.106   5.440  -0.453  0.1286 -0.5032 -0.2342
    2CHTO  H143  595   3.099   5.488  -0.549 -2.7003  1.2726  0.8161
    2CHTO  H144  596   3.190   5.374  -0.454  0.5564  0.0061  0.9697
    2CHTO   C87  597   3.178   5.479  -0.205  0.8857  0.4396  0.3518
    2CHTO  H159  598   3.095   5.424  -0.160  1.4229 -0.4854  0.2228
    2CHTO   O53  599   3.215   5.598  -0.110 -0.3215 -0.2013  0.1071
    2CHTO   C82  600   3.102   5.680  -0.082  0.8696 -0.7155  0.0821
    2CHTO  H154  601   3.021   5.614  -0.051 -0.2241 -0.0135 -1.2091
    2CHTO   C89  602   3.133   5.775   0.029  0.2800  0.0572  0.1016
    2CHTO   O59  603   3.007   5.802   0.096 -0.0537  0.3892  0.0380
    2CHTO  H137  604   2.947   5.841   0.035 -2.1306 -1.7294  0.6691
    2CHTO   O45  605   3.315   5.382  -0.218  0.8471 -0.2696 -0.6239
    2CHTO   C67  606   3.345   5.320  -0.092  0.1253  0.5035 -0.1022
    2CHTO  H124  607   3.302   5.385  -0.016 -0.7742 -0.9110  0.5970
    2CHTO   C65  608   3.269   5.185  -0.089  0.0107 -0.3757 -0.4354
    2CHTO  H122  609   3.255   5.155  -0.193  0.0506  0.9942 -0.8519
    2CHTO   O44  610   3.143   5.217  -0.027 -0.1968 -0.6903  0.3145
    2CHTO  H102  611   3.107   5.294  -0.066 -0.9274 -2.2907 -2.3398
    2CHTO   C63  612   3.358   5.076  -0.021 -0.1876  0.0547 -0.0223
    2CHTO  H120  613   3.440   5.058  -0.090 -0.5358 -0.4220 -0.3127
    2CHTO   N11  614   3.302   4.943  -0.007 -0.0391 -0.4560  0.3528
    2CHTO  H108  615   3.257   4.911  -0.099 -1.6441  2.4305  0.0834
    2CHTO  H109  616   3.382   4.877   0.019  0.1327 -0.6757 -0.6868
    2CHTO   C61  617   3.434   5.137   0.107  0.6094  0.1563 -0.1720
    2CHTO  H118  618   3.498   5.056   0.147  0.4000  0.3972  0.6608
    2CHTO   O40  619   3.521   5.243   0.067 -0.4122  0.0589 -0.2548
    2CHTO   C68  620   3.496   5.317  -0.058 -0.0626 -0.6874 -0.8884
    2CHTO  H125  621   3.546   5.270  -0.145  2.0152  1.1834 -0.7436
    2CHTO   C72  622   3.558   5.457  -0.043  0.3417  0.3645 -0.3934
    2CHTO   O48  623   3.705   5.468  -0.047 -0.1265  0.1606  0.5302
    2CHTO  H105  624   3.732   5.531  -0.112  3.4197 -2.5269 -0.7786
    2CHTO   O38  625   3.338   5.186   0.205  0.2317 -0.4164  0.6613
    2CHTO   C55  626   3.386   5.250   0.325  0.0219  1.2297  0.4532
    2CHTO  H112  627   3.477   5.306   0.300 -1.0820  2.0128 -2.0588
    2CHTO   C56  628   3.406   5.139   0.439  0.0527 -0.0442  0.2148
    2CHTO  H113  629   3.317   5.077   0.450  0.3704 -0.5371  0.0098
    2CHTO   O42  630   3.511   5.046   0.404 -0.7012  0.1305  0.2657
    2CHTO  H100  631   3.595   5.081   0.382 -0.0654  0.7720  3.5435
    2CHTO   C57  632   3.429   5.210   0.574  0.1423  0.0695  0.2280
    2CHTO  H114  633   3.522   5.262   0.555  0.4446 -0.6822 -0.3473
    2CHTO   N10  634   3.442   5.118   0.687 -0.3731  0.0828  0.0319
    2CHTO  H106  635   3.526   5.150   0.747  1.5036 -1.1342 -1.8592
    2CHTO  H107  636   3.354   5.112   0.748 -0.4790 -2.2177 -0.2732
    2CHTO   C58  637   3.321   5.316   0.590 -0.5583  0.8319 -0.1493
    2CHTO  H115  638   3.224   5.263   0.588 -1.3400  2.2362 -0.3449
    2CHTO   O37  639   3.334   5.414   0.485  0.0328 -0.1514 -0.0277
    2CHTO   C59  640   3.282   5.358   0.365  0.2958  0.1880 -0.5135
    2CHTO  H116  641   3.186   5.308   0.377 -0.1752  1.4497  1.1194
    2CHTO   C70  642   3.268   5.478   0.269  0.7860 -0.1915 -0.2997
    2CHTO   O46  643   3.197   5.584   0.330  0.1190 -0.3375 -0.3715
    2CHTO  H103  644   3.222   5.661   0.283  1.0735 -0.0797  0.5262
    2CHTO   O39  645   3.328   5.390   0.734  0.2638 -0.4942  0.3851
    2CHTO   C60  646   3.221   5.482   0.755 -0.3672  0.7970 -0.0746
    2CHTO  H117  647   3.192   5.525   0.659  3.0304  1.2152 -0.9715
    2CHTO   C62  648   3.094   5.415   0.816  0.5719  0.2404  0.3922
    2CHTO  H119  649   3.054   5.352   0.735  0.3291  0.7610  0.1028
    2CHTO   O43  650   3.134   5.333   0.928 -0.5990  0.0384  0.1175
    2CHTO  H101  651   3.193   5.268   0.894  0.3759  1.0603 -0.1561
    2CHTO   C66  652   2.987   5.529   0.851 -0.2838 -0.1463 -0.2258
    2CHTO  H123  653   2.957   5.580   0.759  2.9798 -0.1268 -1.3380
    2CHTO   N12  654   2.861   5.480   0.914  0.1623  0.5045  0.0001
    2CHTO  H110  655   2.788   5.547   0.957 -1.5831 -0.9184 -0.6961
    2CHTO  H111  656   2.881   5.386   0.965 -0.1449 -0.2360 -1.2218
    2CHTO   C69  657   3.051   5.645   0.935 -0.2763  0.7912  0.0578
    2CHTO  H126  658   3.093   5.610   1.032 -0.1531  0.5818 -0.0707
    2CHTO   O41  659   3.161   5.697   0.854  0.1273 -0.0259  0.2436
    2CHTO   C64  660   3.268   5.599   0.846  0.0755  0.1158 -0.0394
    2CHTO  H121  661   3.287   5.555   0.947  0.7046  2.5597  0.9584
    2CHTO   C71  662   3.391   5.660   0.780 -0.5015 -0.6490  0.4565
    2CHTO   O47  663   3.516   5.591   0.776  0.0863 -0.1660  0.0148
    2CHTO  H104  664   3.548   5.592   0.864 -0.6939 -1.0143  0.3175
    2CHTO   O34  665   2.949   5.754   0.973  0.2675 -0.7057  0.4338
    2CHTO   C49  666   2.955   5.912   1.029  0.0864  0.3823 -0.0883
    2CHTO   H91  667   3.054   5.927   1.071 -0.1635  0.6247  0.4096
    2CHTO   C47  668   2.847   5.926   1.137  0.9577 -0.1076 -0.4860
    2CHTO   H89  669   2.868   6.027   1.178 -1.3049  0.9713 -1.8923
    2CHTO   O33  670   2.870   5.829   1.238  0.4933  0.7624 -0.1242
    2CHTO   H70  671   2.949   5.860   1.278 -0.0013  2.2190 -0.2450
    2CHTO   C45  672   2.701   5.928   1.068  0.3734 -0.3726  0.1536
    2CHTO   H87  673   2.689   5.833   1.014 -3.8408  0.6815 -0.9608
    2CHTO    N8  674   2.592   5.934   1.169 -0.7720 -0.8588 -0.2851
    2CHTO   H75  675   2.617   5.866   1.250 -3.2630 -3.1732 -1.3667
    2CHTO   H76  676   2.501   5.905   1.118  0.6943 -1.3445 -2.6952
    2CHTO   C43  677   2.692   6.050   0.959 -0.1133  0.1506 -1.2012
    2CHTO   H85  678   2.591   6.042   0.920 -0.1997 -0.2404 -0.9037
    2CHTO   O29  679   2.794   6.041   0.855  0.0850  0.2933 -0.4464
    2CHTO   C50  680   2.929   6.011   0.909  0.4752 -0.0125  0.4911
    2CHTO   H92  681   2.992   5.970   0.828 -1.1877 -1.9856  0.1624
    2CHTO   C54  682   3.005   6.139   0.936  0.2362 -0.6410 -0.4424
    2CHTO   O36  683   3.010   6.215   0.817  0.0781  0.2094 -0.8011
    2CHTO   H72  684   3.093   6.258   0.804  1.0909 -1.6671 -0.6108
    2CHTO   O27  685   2.692   6.188   1.024  0.1606  0.6741  0.1812
    2CHTO   C37  686   2.611   6.300   0.994 -0.0372  0.1505 -0.4730
    2CHTO   H79  687   2.592   6.301   0.886 -0.6792  0.5430 -0.3570
    2CHTO   C38  688   2.473   6.297   1.058  0.0808  0.0138 -0.6288
    2CHTO   H80  689   2.479   6.271   1.165  0.4529  0.2400 -0.5910
    2CHTO   O31  690   2.394   6.194   0.992 -0.0797 -0.1388  0.4382
    2CHTO   H68  691   2.399   6.209   0.900 -0.6573 -1.4234  0.1957
    2CHTO   C39  692   2.393   6.430   1.043 -0.0422 -0.0330  0.1619
    2CHTO   H81  693   2.356   6.450   0.943 -0.3312  1.0025  0.4623
    2CHTO    N7  694   2.264   6.428   1.127 -0.2445  0.2236  0.2598
    2CHTO   H73  695   2.288   6.416   1.232  0.4211 -0.8815 -0.0132
    2CHTO   H74  696   2.200   6.353   1.084 -0.0840  0.4759 -0.4241
    2CHTO   C40  697   2.476   6.555   1.086  0.3942  0.0820  0.4027
    2CHTO   H82  698   2.484   6.565   1.194  0.6614 -1.4133  0.5313
    2CHTO   O26  699   2.603   6.549   1.018 -0.5659  0.5442  0.0088
    2CHTO   C41  700   2.686   6.432   1.040 -0.7255 -0.2610  0.1269
    2CHTO   H83  701   2.705   6.428   1.148 -2.5928  1.1260  0.5349
    2CHTO   C52  702   2.812   6.461   0.958  0.1330 -0.3408  0.0852
    2CHTO   O35  703   2.892   6.576   1.019 -0.1310 -0.3874 -0.7529
    2CHTO   H71  704   2.852   6.647   1.066 -0.0464 -1.8299  1.6066
    2CHTO   O28  705   2.422   6.684   1.043 -0.0394 -0.0822  0.4093
    2CHTO   C42  706   2.470   6.813   1.095  0.0884  0.0052  0.4850
    2CHTO   H84  707   2.417   6.885   1.031  0.7987  1.3317  1.3648
    2CHTO   C44  708   2.627   6.851   1.087  0.4975  1.2777 -0.4857
    2CHTO   H86  709   2.686   6.776   1.141 -1.0999  0.1203 -0.3020
    2CHTO   O32  710   2.658   6.838   0.949 -0.1509 -0.3133 -0.0700
    2CHTO   H69  711   2.661   6.922   0.908  0.1284 -1.4642 -2.4581
    2CHTO   C48  712   2.643   7.001   1.145  0.1750 -0.5320 -0.4171
    2CHTO   H90  713   2.579   7.064   1.084  0.5376  2.0530  1.7607
    2CHTO    N9  714   2.787   7.041   1.152  0.4236 -0.1094  0.4682
    2CHTO   H77  715   2.805   7.061   1.256 -3.4094 -1.0796  1.3921
    2CHTO   H78  716   2.796   7.131   1.093 -1.8076  1.2869  2.1953
    2CHTO   C51  717   2.579   7.009   1.287  0.2945 -0.3306  0.5032
    2CHTO   H93  718   2.618   6.938   1.361 -0.9698  0.5579  2.0587
    2CHTO   O30  719   2.439   6.987   1.261 -0.0972  0.0464 -0.1074
    2CHTO   C46  720   2.416   6.835   1.234  0.0652 -0.6452  0.5634
    2CHTO   H88  721   2.473   6.780   1.309  0.3844  1.5836  2.0068
    2CHTO   C53  722   2.261   6.814   1.241 -0.3242 -0.0038  0.0058
    2CHTO   O72  723   2.225   6.820   1.375 -0.1648  0.4988  0.7376
    2CHTO  H199  724   2.132   6.807   1.384 -0.2190 -0.4587 -1.0064
    2CHTO   O22  725   2.567   7.147   1.336 -0.2649 -0.1940  0.0705
    2CHTO   C31  726   2.575   7.175   1.475  0.1254  0.1034 -0.3340
    2CHTO   H59  727   2.565   7.285   1.484 -1.0667 -0.0667  0.6606
    2CHTO   C29  728   2.452   7.114   1.551  0.0243 -0.2512  0.5405
    2CHTO   H57  729   2.441   7.007   1.528 -0.8796 -0.0046 -0.2461
    2CHTO   O21  730   2.331   7.177   1.497 -0.4564 -0.2745  0.2889
    2CHTO   H37  731   2.287   7.117   1.440 -0.6955  1.1035 -0.9902
    2CHTO   C27  732   2.447   7.134   1.710 -0.7266  0.6354 -0.1413
    2CHTO   H55  733   2.408   7.236   1.725 -2.3475  0.0061  0.1388
    2CHTO    N5  734   2.353   7.037   1.768 -0.0266 -0.0420 -0.3725
    2CHTO   H43  735   2.349   6.945   1.711 -0.3672  1.3490 -2.6618
    2CHTO   H44  736   2.251   7.072   1.759  0.1611  1.4731  2.7730
    2CHTO   C25  737   2.586   7.100   1.777  0.2313 -0.2515  0.2111
    2CHTO   H53  738   2.610   6.993   1.770 -3.2929 -0.9593 -2.2557
    2CHTO   O17  739   2.695   7.155   1.701  0.1000  0.4110 -0.4075
    2CHTO   C32  740   2.707   7.132   1.552  0.0425 -0.5961  0.1137
    2CHTO   H60  741   2.727   7.026   1.536  0.5784 -0.5842  0.7232
    2CHTO   C36  742   2.833   7.202   1.499  0.2933  0.1762 -0.0701
    2CHTO   O25  743   2.944   7.149   1.569  0.0410  0.5833  0.7149
    2CHTO   H40  744   2.969   7.204   1.641 -0.2021 -0.1715  1.3828
    2CHTO   O15  745   2.591   7.152   1.932 -0.2228  0.7445 -0.0613
    2CHTO   C19  746   2.679   7.094   2.030 -0.2019  0.3772  0.1192
    2CHTO   H47  747   2.666   6.986   2.016  0.4002  0.3281 -0.0903
    2CHTO   C20  748   2.830   7.124   2.019 -0.5986  0.2415 -0.2074
    2CHTO   H48  749   2.852   7.231   2.038 -2.0724  0.3774  0.8123
    2CHTO   O19  750   2.879   7.088   1.885 -0.2906 -0.1496  0.1882
    2CHTO   H35  751   2.883   6.995   1.882 -1.0259 -0.1683 -0.2609
    2CHTO   C21  752   2.916   7.033   2.118  0.0217 -0.2249 -0.0829
    2CHTO   H49  753   2.903   6.927   2.097  0.5454 -0.5977  1.4318
    2CHTO    N4  754   3.060   7.045   2.107  0.4534  0.0392  0.1412
    2CHTO   H41  755   3.086   7.029   2.004 -0.1041  1.4415 -0.2266
    2CHTO   H42  756   3.106   6.967   2.165 -1.7818 -0.9551  0.6426
    2CHTO   C22  757   2.872   7.078   2.261  0.2534 -0.7638  0.0705
    2CHTO   H50  758   2.901   7.182   2.269  0.2806 -0.6292 -1.5317
    2CHTO   O14  759   2.732   7.051   2.275  0.1214 -0.4022  0.0749
    2CHTO   C23  760   2.644   7.127   2.186 -0.2019  0.5059  0.6090
    2CHTO   H51  761   2.660   7.232   2.214 -2.2180  0.3003  2.7515
    2CHTO   C34  762   2.495   7.092   2.219  0.1695 -0.0045 -0.1002
    2CHTO   O23  763   2.473   6.978   2.306  0.2411  0.3073  0.5110
    2CHTO   H38  764   2.510   7.004   2.388  1.5032  1.4844 -0.3978
    2CHTO   O16  765   2.922   7.002   2.369 -0.8100 -0.0120  0.4042
    2CHTO   C24  766   2.959   7.098   2.498 -0.2214  0.2040  0.6083
    2CHTO   H52  767   2.928   7.201   2.480  0.0183  0.3818  1.1885
    2CHTO   C26  768   3.107   7.095   2.521 -0.6217 -0.0023  0.6142
    2CHTO   H54  769   3.141   6.990   2.529 -1.1540 -0.2057  0.2468
    2CHTO   O20  770   3.165   7.157   2.397 -0.0366  0.2978  0.3397
    2CHTO   H36  771   3.247   7.196   2.421  0.6522 -1.1528  0.3846
    2CHTO   C30  772   3.145   7.172   2.650 -0.2751 -0.2821 -0.1779
    2CHTO   H58  773   3.113   7.277   2.649  1.8502  0.3890  0.7354
    2CHTO    N6  774   3.287   7.180   2.679 -0.0809 -0.5884 -0.0493
    2CHTO   H45  775   3.331   7.090   2.721 -0.3230  0.7387  3.2037
    2CHTO   H46  776   3.334   7.203   2.585 -1.9783  0.5510 -0.7267
    2CHTO   C33  777   3.058   7.116   2.772  0.3037 -0.2149  0.4967
    2CHTO   H61  778   3.081   7.008   2.776  1.9470  0.1330  0.9055
    2CHTO   O18  779   2.923   7.136   2.737 -0.5585  0.7323  0.0993
    2CHTO   C28  780   2.882   7.055   2.625  0.6533 -0.9357 -0.3098
    2CHTO   H56  781   2.898   6.949   2.641 -0.3734 -0.9677  0.4875
    2CHTO   C35  782   2.728   7.085   2.610 -0.3968 -0.1391 -0.3536
    2CHTO   O24  783   2.661   7.014   2.717  0.7784  0.0836 -0.2429
    2CHTO   H39  784   2.575   7.051   2.717  0.4230 -0.6923 -2.2909
    2CHTO    O9  785   3.092   7.174   2.895 -0.3774  0.1387 -0.2817
    2CHTO   C13  786   3.038   7.088   3.008  0.3167 -0.4194  0.3843
    2CHTO   H26  787   3.062   6.983   2.980 -1.1340 -0.6941  0.1185
    2CHTO   C11  788   2.879   7.114   3.026 -0.1103  0.3939 -0.2413
    2CHTO   H24  789   2.834   7.075   2.933 -0.2009  2.6458 -1.1853
    2CHTO    O8  790   2.863   7.255   3.020 -0.1065  0.1779 -0.3086
    2CHTO    H3  791   2.804   7.289   3.084  0.4569  0.6557 -0.0454
    2CHTO    C9  792   2.832   7.040   3.156  0.0348 -0.5743 -0.4002
    2CHTO   H22  793   2.872   6.937   3.154 -1.5235 -1.1788 -1.3034
    2CHTO    N2  794   2.684   7.020   3.157 -0.2004 -0.4500  0.2194
    2CHTO   H10  795   2.648   7.120   3.178 -1.6546 -0.9132 -0.0457
    2CHTO   H11  796   2.641   6.979   3.067  1.4804  2.1527 -1.8490
    2CHTO    C7  797   2.908   7.116   3.281 -0.6553  0.2651 -0.3134
    2CHTO   H20  798   2.940   7.035   3.349  0.2641  0.3088 -0.6782
    2CHTO    O4  799   3.021   7.193   3.238  0.1517 -0.3768  0.0880
    2CHTO   C14  800   3.112   7.123   3.147  0.3186  0.4963 -0.3915
    2CHTO   H27  801   3.132   7.028   3.200 -0.4992 -0.6025 -2.0145
    2CHTO   C18  802   3.248   7.197   3.130 -0.5048 -0.1617 -0.0677
    2CHTO   O13  803   3.326   7.122   3.037 -0.6998  0.0772  0.1335
    2CHTO    H7  804   3.373   7.177   2.977  2.9758 -4.6823 -1.7018
    2CHTO    O2  805   2.804   7.221   3.370  0.4725  0.5095  0.1364
    2CHTO    C1  806   2.871   7.328   3.436 -0.1209  0.8986 -0.0620
    2CHTO   H14  807   2.960   7.359   3.378 -0.6356 -0.4947 -1.5993
    2CHTO    C2  808   2.907   7.303   3.586 -0.2163 -0.0854 -0.3879
    2CHTO   H15  809   2.813   7.270   3.631 -0.5602  1.2520 -0.1177
    2CHTO    O6  810   2.999   7.188   3.602 -0.3830 -0.7385  0.2898
    2CHTO    H1  811   3.031   7.179   3.689  1.4250  2.2604 -0.0104
    2CHTO    C3  812   2.955   7.441   3.648 -0.3362  0.2515  0.0955
    2CHTO   H16  813   3.049   7.475   3.602  0.7484 -0.8023  1.4552
    2CHTO    N1  814   2.985   7.421   3.798  0.0117 -0.0364  0.1158
    2CHTO    H8  815   2.907   7.360   3.841 -0.4972 -1.1919 -2.3438
    2CHTO    H9  816   3.086   7.383   3.809 -0.2306 -0.1875  1.8474
    2CHTO    C4  817   2.849   7.554   3.626  0.6953 -0.1035 -0.1268
    2CHTO   H17  818   2.752   7.515   3.657  0.0428  0.4299 -1.4482
    2CHTO    O1  819   2.829   7.567   3.484  0.6472  0.2170 -0.6301
    2CHTO    C5  820   2.781   7.452   3.412 -0.2284 -0.6534  0.0749
    2CHTO   H18  821   2.687   7.433   3.462 -0.3734  1.7703  0.8084
    2CHTO   C16  822   2.763   7.480   3.259 -0.6732  0.3928 -0.3984
    2CHTO   O11  823   2.879   7.517   3.187 -0.1576  0.4194  0.0046
    2CHTO    H5  824   2.862   7.593   3.135 -3.5146  0.1052  0.5144
    2CHTO    O3  825   2.885   7.681   3.681 -0.2671 -0.0179 -0.1859
    2CHTO    C6  826   2.774   7.765   3.725 -0.3569  0.3199  0.5031
    2CHTO   H19  827   2.691   7.757   3.654  0.5541  1.3559 -0.6938
    2CHTO    C8  828   2.716   7.731   3.867  0.0291  0.1185  0.4287
    2CHTO   H21  829   2.798   7.697   3.930  1.6406  0.4538 -1.4330
    2CHTO    O7  830   2.637   7.613   3.843 -0.3953  0.4706 -0.0688
    2CHTO    H2  831   2.553   7.637   3.808 -0.9799  0.2820  1.2087
    2CHTO   C12  832   2.631   7.848   3.935  0.1231 -0.1370  0.1756
    2CHTO   H25  833   2.529   7.849   3.893  1.3131  0.3250 -2.8458
    2CHTO    N3  834   2.616   7.828   4.083  0.1969  0.0562 -0.4198
    2CHTO   H12  835   2.708   7.832   4.139 -0.2101  3.1257  0.1380
    2CHTO   H13  836   2.560   7.910   4.124  0.9399  0.2407  0.2422
    2CHTO   C15  837   2.695   7.995   3.894 -0.0167  0.3914  0.0372
    2CHTO   H28  838   2.792   8.015   3.940  0.8626  0.0330 -1.6113
    2CHTO   O10  839   2.602   8.113   3.923 -0.4916 -1.3187 -0.7468
    2CHTO    H4  840   2.581   8.101   4.013 -1.7601 -0.2043 -0.8913
    2CHTO    O5  841   2.718   8.002   3.753 -0.4000 -0.2468 -0.3878
    2CHTO   C10  842   2.824   7.912   3.710 -0.0651 -0.6363 -0.0813
    2CHTO   H23  843   2.899   7.926   3.788 -1.5092  1.3779  0.9919
    2CHTO   C17  844   2.877   7.963   3.573 -0.6496  0.4495  0.4825
    2CHTO   O12  845   2.934   8.095   3.583  0.1819  0.4093  0.1390
    2CHTO    H6  846   3.000   8.089   3.649  1.3164 -2.9669 -1.1895
    3CHTO  H203  847   6.966   2.114   2.441 -0.8193  0.7851 -0.0556
    3CHTO   O82  848   6.938   2.106   2.352  0.1783  0.0096 -0.3094
    3CHTO  C123  849   6.975   1.977   2.291 -0.0879 -1.0258 -0.0588
    3CHTO  H227  850   7.070   1.987   2.236 -0.3159 -2.3978 -0.7204
    3CHTO   O77  851   6.991   1.890   2.401 -0.2363 -0.2980 -0.3989
    3CHTO  C118  852   7.000   1.744   2.388  0.6823 -0.3836  0.4115
    3CHTO  H222  853   7.093   1.718   2.335  0.1422 -1.2839 -0.0889
    3CHTO  C125  854   7.009   1.694   2.537  0.2517 -0.5422  0.0361
    3CHTO   O84  855   6.881   1.679   2.593  0.1399  0.0126  0.3769
    3CHTO  H205  856   6.836   1.762   2.591  2.7461  1.4912  0.7553
    3CHTO  C114  857   6.880   1.697   2.303  0.0827 -0.1437  1.0357
    3CHTO  H218  858   6.790   1.713   2.363 -0.1021  2.4755  0.1404
    3CHTO  C116  859   6.861   1.782   2.168 -0.0079 -1.1617 -0.0023
    3CHTO  H220  860   6.943   1.752   2.100 -0.3653  0.7310 -1.3035
    3CHTO   O79  861   6.746   1.730   2.103  0.3503  0.1244  0.4388
    3CHTO  H201  862   6.735   1.772   2.020 -0.6585  0.6793  0.8303
    3CHTO  C120  863   6.856   1.942   2.192 -0.2609  0.2068  0.1743
    3CHTO  H224  864   6.755   1.964   2.232  0.5109  0.5445  1.9926
    3CHTO   N21  865   6.878   2.010   2.065  0.5338 -0.4330  0.0322
    3CHTO  H211  866   6.790   2.030   2.005  0.9548 -2.3850 -1.2757
    3CHTO  H212  867   6.943   1.948   2.006 -0.1784  0.5745 -1.8431
    3CHTO   O75  868   6.921   1.558   2.283 -0.0797  0.0402 -0.4482
    3CHTO  C112  869   6.808   1.453   2.241 -0.3764  0.0752  0.7089
    3CHTO  H216  870   6.798   1.458   2.131  0.0521 -1.8844  0.5626
    3CHTO   O73  871   6.680   1.482   2.302 -0.0388  0.6775 -0.7060
    3CHTO  C113  872   6.580   1.396   2.248 -0.3244 -0.0791  0.7065
    3CHTO  H217  873   6.579   1.395   2.137  0.6430 -0.0370  0.6913
    3CHTO  C124  874   6.445   1.453   2.292  1.0503 -0.1429  0.0689
    3CHTO   O83  875   6.409   1.590   2.259  0.3471  0.0895  0.2836
    3CHTO  H204  876   6.485   1.640   2.235  0.1655  2.3241  3.8818
    3CHTO  C109  877   6.606   1.251   2.298 -0.1124  0.5255  0.1927
    3CHTO  H213  878   6.619   1.259   2.407 -3.3953 -2.2562  0.8876
    3CHTO  C110  879   6.747   1.198   2.244  0.1254  0.2206  0.0643
    3CHTO  H214  880   6.751   1.171   2.138  1.6341  0.1007  0.1399
    3CHTO   O78  881   6.784   1.073   2.308 -0.1603  0.2408  0.5848
    3CHTO  H200  882   6.808   1.087   2.397 -2.5827 -1.8644  1.6470
    3CHTO  C111  883   6.857   1.306   2.271 -0.0495  0.1780  0.5566
    3CHTO  H215  884   6.874   1.305   2.379 -0.0264 -0.9084  0.5541
    3CHTO   N19  885   6.990   1.291   2.207 -0.0289  0.2757  0.4273
    3CHTO  H207  886   7.072   1.351   2.243  0.5397 -0.5645  0.5581
    3CHTO  H208  887   6.979   1.288   2.100  0.0713  0.6778  0.4067
    3CHTO   O74  888   6.493   1.164   2.263 -0.0582  0.4510 -0.6348
    3CHTO  C115  889   6.476   1.027   2.341 -0.4308 -0.1117  0.3606
    3CHTO  H219  890   6.568   0.998   2.391 -0.9743 -2.6522 -0.0084
    3CHTO   O76  891   6.377   1.041   2.460  0.0646  0.8452  0.1361
    3CHTO  C122  892   6.239   1.039   2.432 -0.2092  0.3419 -0.3543
    3CHTO  H226  893   6.211   1.125   2.370  0.2707  1.2133  0.6133
    3CHTO  C126  894   6.153   1.061   2.564  0.0277  0.1764  0.0409
    3CHTO   O85  895   6.014   1.085   2.530 -0.1870 -0.2296 -0.5519
    3CHTO  H206  896   6.015   1.165   2.481  0.0883 -0.3028 -0.6703
    3CHTO  C121  897   6.198   0.898   2.361 -0.1742 -0.1620  0.0325
    3CHTO  H225  898   6.145   0.823   2.422 -1.7197  0.9970  0.1278
    3CHTO   O81  899   6.110   0.941   2.255  0.2738 -0.0180  0.3134
    3CHTO  H202  900   6.067   0.867   2.217 -0.8360  1.3386 -1.0930
    3CHTO  C119  901   6.312   0.822   2.280  0.5202 -0.4576  0.0988
    3CHTO  H223  902   6.364   0.758   2.351  1.8022  0.9396  0.4436
    3CHTO  C117  903   6.428   0.917   2.235 -0.7631  0.4069 -0.2153
    3CHTO  H221  904   6.396   0.970   2.146 -1.7852  1.6788  0.8876
    3CHTO   N20  905   6.551   0.845   2.184 -0.3054  0.3509 -0.2986
    3CHTO  H209  906   6.623   0.909   2.136 -2.0067  0.6517 -2.5384
    3CHTO  H210  907   6.599   0.794   2.266  0.5788  0.2650 -0.8666
    3CHTO   O80  908   6.262   0.717   2.170 -0.0781 -0.1483 -0.1148
    3CHTO  C103  909   6.189   0.589   2.221 -0.6974 -0.5799 -0.4328
    3CHTO  H190  910   6.198   0.583   2.329  0.5530 -2.8642 -0.6566
    3CHTO  C101  911   6.037   0.584   2.175 -0.1543  0.3681  0.8660
    3CHTO  H188  912   6.031   0.602   2.067  1.3120  1.7136  0.9818
    3CHTO   O68  913   5.964   0.685   2.246 -0.1577 -0.2301 -0.5774
    3CHTO  H168  914   5.970   0.766   2.199  0.3774  0.9838  1.5315
    3CHTO   C99  915   5.978   0.440   2.186  0.1046 -0.0982  0.4982
    3CHTO  H186  916   5.973   0.407   2.292 -2.2432 -1.4150  0.0126
    3CHTO   N17  917   5.838   0.426   2.123  0.2982 -0.3848  0.5179
    3CHTO  H174  918   5.796   0.327   2.128 -4.1197  1.3461 -0.1022
    3CHTO  H175  919   5.759   0.489   2.162 -2.7750 -3.0499 -1.1978
    3CHTO   C97  920   6.077   0.335   2.117  0.4266  0.0659 -1.1352
    3CHTO  H184  921   6.085   0.352   2.008  0.4542 -2.6659 -1.5932
    3CHTO   O64  922   6.210   0.345   2.185  0.4103 -0.5791 -0.8972
    3CHTO  C104  923   6.274   0.470   2.159 -0.0964  0.6170 -0.3661
    3CHTO  H191  924   6.282   0.488   2.051  2.0379  0.7544 -0.2181
    3CHTO  C108  925   6.418   0.457   2.210 -0.2365 -0.4507 -0.1375
    3CHTO   O71  926   6.507   0.394   2.123  0.0886  0.2793  0.3938
    3CHTO  H171  927   6.479   0.402   2.034 -0.3390 -0.9481  0.4055
    3CHTO   O62  928   6.039   0.201   2.158 -0.1863  0.0952  0.5545
    3CHTO   C91  929   6.103   0.091   2.094  0.3733  0.2529  0.1639
    3CHTO  H178  930   6.199   0.133   2.063  1.3792 -2.6609 -0.7676
    3CHTO   C92  931   6.015   0.042   1.977 -0.2743 -0.0010  0.0881
    3CHTO  H179  932   5.911   0.033   2.012  0.4500  0.1394  2.3643
    3CHTO   O66  933   6.001   0.144   1.872 -0.4279 -0.2743  0.0312
    3CHTO  H166  934   5.933   0.135   1.809  0.4964  1.4788 -1.2548
    3CHTO   C93  935   6.080  -0.084   1.918 -0.0568  0.3227 -0.2352
    3CHTO  H180  936   6.177  -0.053   1.877 -0.3031  2.2583  0.5806
    3CHTO   N16  937   6.004  -0.137   1.797  0.0535  0.3897 -0.3599
    3CHTO  H172  938   5.940  -0.065   1.750 -0.4504  0.2703  0.1427
    3CHTO  H173  939   6.041  -0.207   1.723 -1.6031 -1.0355  0.1263
    3CHTO   C94  940   6.110  -0.201   2.029  0.2627 -0.0903  0.4151
    3CHTO  H181  941   6.019  -0.234   2.080 -0.5093  1.1570 -0.1256
    3CHTO   O61  942   6.198  -0.139   2.119  0.0094  0.4422  0.5711
    3CHTO   C95  943   6.141  -0.029   2.183 -0.0505 -0.4644 -0.0540
    3CHTO  H182  944   6.053  -0.063   2.238  2.4014 -4.1216  1.7758
    3CHTO  C106  945   6.251   0.018   2.292 -0.5108  0.1437 -0.8227
    3CHTO   O69  946   6.282  -0.098   2.374 -0.4283  0.7427 -0.2044
    3CHTO  H169  947   6.207  -0.125   2.422  0.7074 -2.9680 -0.3823
    3CHTO   O63  948   6.173  -0.321   1.965  0.2233 -0.2830 -0.2086
    3CHTO   C96  949   6.129  -0.473   2.036  0.1411  0.5102 -0.2415
    3CHTO  H183  950   6.188  -0.550   1.985 -4.6322 -3.5651 -0.0062
    3CHTO   C98  951   5.989  -0.517   2.006 -0.6044  0.5523 -0.0996
    3CHTO  H185  952   5.917  -0.459   2.067 -1.5999 -0.3224 -0.4275
    3CHTO   O67  953   5.955  -0.500   1.867  0.3164  0.0839 -0.5664
    3CHTO  H167  954   5.936  -0.411   1.846 -1.3105  0.1741  1.1241
    3CHTO  C102  955   5.963  -0.671   2.054 -0.2559 -0.3170  0.3884
    3CHTO  H189  956   6.029  -0.733   1.991 -1.4006 -1.4834  0.3028
    3CHTO   N18  957   5.827  -0.725   2.031 -0.0435 -1.0184 -0.1169
    3CHTO  H176  958   5.764  -0.710   2.117  0.8481 -1.3954  0.6054
    3CHTO  H177  959   5.785  -0.679   1.942 -0.3737  0.7473  0.9208
    3CHTO  C105  960   6.006  -0.684   2.202 -0.3341 -0.4139  0.3912
    3CHTO  H192  961   5.922  -0.647   2.260 -1.4991 -0.8748 -0.9760
    3CHTO   O65  962   6.129  -0.621   2.237 -0.4964  0.8381  0.0814
    3CHTO  C100  963   6.150  -0.486   2.194 -0.7532 -1.1002 -0.4279
    3CHTO  H187  964   6.072  -0.429   2.247 -0.2114 -1.5569  0.8857
    3CHTO  C107  965   6.287  -0.436   2.240  0.1308 -0.0906 -0.0513
    3CHTO   O70  966   6.328  -0.470   2.374  0.3645  0.1428 -0.6245
    3CHTO  H170  967   6.385  -0.544   2.361  0.4311  0.3042 -1.2984
    3CHTO   O57  968   6.033  -0.848   2.228  0.0588 -0.3613  0.3821
    3CHTO   C85  969   6.002  -0.911   2.354 -0.4834 -0.4344  0.1303
    3CHTO  H157  970   6.075  -0.994   2.359 -0.0170 -0.1136 -0.9986
    3CHTO   C83  971   5.861  -0.964   2.334 -0.0888 -0.3959  0.3983
    3CHTO  H155  972   5.858  -1.029   2.247 -1.9460 -3.0397  2.3661
    3CHTO   O56  973   5.769  -0.852   2.322  0.3034 -0.1551  0.1110
    3CHTO  H135  974   5.681  -0.880   2.336 -0.1409  0.8744 -0.5547
    3CHTO   C81  975   5.825  -1.049   2.457 -0.3903 -0.2229 -0.6458
    3CHTO  H153  976   5.902  -1.125   2.468 -1.1619 -0.7983  0.9062
    3CHTO   N14  977   5.702  -1.134   2.431  0.1670 -0.2687  0.0875
    3CHTO  H141  978   5.700  -1.178   2.333 -0.3032  0.9213 -0.4428
    3CHTO  H142  979   5.619  -1.066   2.439 -0.9509 -1.5159 -0.6747
    3CHTO   C79  980   5.824  -0.967   2.589  0.7902 -0.3417  0.6211
    3CHTO  H151  981   5.826  -1.041   2.669 -0.2854 -1.3195 -0.2350
    3CHTO   O52  982   5.964  -0.900   2.606 -0.0836 -0.0892 -0.5577
    3CHTO   C86  983   6.005  -0.829   2.488 -0.2356 -0.0370  0.1571
    3CHTO  H158  984   5.944  -0.738   2.470  1.4670  1.2180  0.5670
    3CHTO   C90  985   6.150  -0.774   2.508 -0.1812 -0.2295  0.2876
    3CHTO   O60  986   6.154  -0.644   2.567 -0.0569 -0.0588 -0.1320
    3CHTO  H138  987   6.088  -0.637   2.633 -0.5814 -1.3315 -0.4989
    3CHTO   O50  988   5.718  -0.876   2.607 -0.0964 -0.0209  0.0600
    3CHTO   C73  989   5.658  -0.811   2.719  0.5947  0.2414 -1.0534
    3CHTO  H145  990   5.725  -0.809   2.806 -1.0485 -1.8900  0.3185
    3CHTO   C74  991   5.532  -0.887   2.753  0.3086  0.1918 -0.4500
    3CHTO  H146  992   5.564  -0.991   2.769  1.1472  0.6520  0.9500
    3CHTO   O54  993   5.484  -0.843   2.879 -0.5758 -0.2342 -0.2767
    3CHTO  H133  994   5.454  -0.754   2.880 -2.0666 -0.7152  0.9388
    3CHTO   C75  995   5.420  -0.874   2.645 -0.3916 -0.0165 -0.7016
    3CHTO  H147  996   5.444  -0.943   2.563 -2.0151  0.1723 -1.3582
    3CHTO   N13  997   5.281  -0.912   2.677  0.2633  0.5179  0.4463
    3CHTO  H139  998   5.220  -0.823   2.675  4.2634  3.3739  0.0407
    3CHTO  H140  999   5.273  -0.972   2.767 -0.7220 -0.6512 -0.4036
    3CHTO   C76 1000   5.413  -0.719   2.592  0.1827 -0.6027 -0.0817
    3CHTO  H148 1001   5.373  -0.663   2.676  2.1065  0.5361  0.1100
    3CHTO   O49 1002   5.547  -0.675   2.566  0.2606  0.1293  0.2847
    3CHTO   C77 1003   5.625  -0.664   2.680  0.1913  0.3850 -0.7634
    3CHTO  H149 1004   5.582  -0.608   2.764 -0.1548  2.0759 -2.0288
    3CHTO   C88 1005   5.759  -0.592   2.649 -0.6025 -0.0630 -0.4135
    3CHTO   O58 1006   5.843  -0.562   2.761 -0.2940  0.1279 -0.2728
    3CHTO  H136 1007   5.806  -0.497   2.817 -1.3774 -1.5603  1.0400
    3CHTO   O51 1008   5.326  -0.708   2.450 -0.0387 -0.0859 -0.7101
    3CHTO   C78 1009   5.331  -0.560   2.399 -0.2365  0.0828  0.2847
    3CHTO  H150 1010   5.414  -0.509   2.452 -0.3016  0.1340  0.3361
    3CHTO   C80 1011   5.195  -0.496   2.433 -0.1146  0.2261  0.4156
    3CHTO  H152 1012   5.115  -0.553   2.380  1.1311 -0.8904 -0.2896
    3CHTO   O55 1013   5.191  -0.507   2.582 -0.2698  0.1496  0.0502
    3CHTO  H134 1014   5.112  -0.470   2.618  0.9667  1.1274  1.8225
    3CHTO   C84 1015   5.189  -0.349   2.387  0.3952 -0.9875  0.3784
    3CHTO  H156 1016   5.273  -0.289   2.422 -0.2849 -0.2844  0.8244
    3CHTO   N15 1017   5.062  -0.276   2.424 -0.9499 -0.0860  0.3528
    3CHTO  H143 1018   4.978  -0.312   2.368 -0.6945  0.6072 -0.4805
    3CHTO  H144 1019   5.040  -0.283   2.528 -3.1384 -3.8265 -0.2528
    3CHTO   C87 1020   5.211  -0.334   2.233  0.0358 -0.1294 -0.1072
    3CHTO  H159 1021   5.125  -0.382   2.187 -0.7470 -0.4065  1.6217
    3CHTO   O53 1022   5.344  -0.428   2.206  0.5566 -0.6203 -0.2493
    3CHTO   C82 1023   5.343  -0.565   2.247 -0.1569 -0.3289 -0.3794
    3CHTO  H154 1024   5.261  -0.618   2.200 -2.6115  1.4565  1.7372
    3CHTO   C89 1025   5.476  -0.623   2.195  0.3342 -0.1229  0.2198
    3CHTO   O59 1026   5.485  -0.763   2.221  0.5494 -0.6515  0.5090
    3CHTO  H137 1027   5.573  -0.792   2.236  0.3578 -1.7745 -0.4869
    3CHTO   O45 1028   5.227  -0.192   2.174 -0.2755 -0.4687  0.5897
    3CHTO   C67 1029   5.356  -0.132   2.182 -0.9182  0.4522 -0.1156
    3CHTO  H124 1030   5.415  -0.176   2.262 -0.5740  0.6253 -0.2737
    3CHTO   C65 1031   5.444  -0.146   2.047 -0.1167 -0.3257 -0.3240
    3CHTO  H122 1032   5.375  -0.127   1.965 -2.7310  0.9833  2.0892
    3CHTO   O44 1033   5.504  -0.274   2.043  0.3328 -0.2587  0.4125
    3CHTO  H102 1034   5.563  -0.280   2.117 -0.4167 -0.2824  1.0140
    3CHTO   C63 1035   5.540  -0.018   2.022 -0.5791 -0.1575 -0.5716
    3CHTO  H120 1036   5.477   0.063   1.985  0.7152  2.1047  2.0669
    3CHTO   N11 1037   5.640  -0.028   1.910  0.0274 -0.5531  0.1513
    3CHTO  H108 1038   5.716   0.047   1.899  0.0895 -0.5883  0.3376
    3CHTO  H109 1039   5.681  -0.126   1.903 -0.2279 -0.8451  2.4796
    3CHTO   C61 1040   5.593   0.031   2.153  0.1036 -0.3122 -0.2760
    3CHTO  H118 1041   5.638   0.128   2.128  0.6118  0.0135  1.7749
    3CHTO   O40 1042   5.480   0.067   2.248  0.1500  0.2159  0.1301
    3CHTO   C68 1043   5.345   0.022   2.213 -0.6596  0.2831 -0.4831
    3CHTO  H125 1044   5.306   0.070   2.121  0.4320 -0.2571 -1.2421
    3CHTO   C72 1045   5.250   0.057   2.327  0.3206  0.3800  0.3037
    3CHTO   O48 1046   5.192   0.191   2.319 -0.2720  0.7719  0.3208
    3CHTO  H105 1047   5.120   0.199   2.378 -2.7610 -0.8049 -2.3593
    3CHTO   O38 1048   5.687  -0.065   2.212  0.3517  0.1973 -0.3721
    3CHTO   C55 1049   5.722  -0.051   2.352 -0.2761 -0.6026 -0.5802
    3CHTO  H112 1050   5.633  -0.039   2.416  0.4181  1.5603  0.0287
    3CHTO   C56 1051   5.826   0.065   2.375  0.0910  0.0936  0.1191
    3CHTO  H113 1052   5.904   0.057   2.297  1.2494  2.1194  1.0309
    3CHTO   O42 1053   5.763   0.195   2.359  0.3966 -0.2436 -0.0799
    3CHTO  H100 1054   5.827   0.262   2.374  0.3700 -0.3861  0.6979
    3CHTO   C57 1055   5.898   0.063   2.516 -0.0002  0.6396 -0.2623
    3CHTO  H114 1056   5.817   0.086   2.585 -0.0558  0.2428 -0.1916
    3CHTO   N10 1057   6.012   0.161   2.524 -0.4438  0.0286 -0.1467
    3CHTO  H106 1058   6.056   0.179   2.428 -1.6462  3.3560 -0.1610
    3CHTO  H107 1059   5.970   0.255   2.559  1.6235  0.2103  2.0027
    3CHTO   C58 1060   5.944  -0.086   2.548  0.1130  0.3692 -0.5529
    3CHTO  H115 1061   6.029  -0.113   2.483  0.7385  2.4582 -0.6307
    3CHTO   O37 1062   5.829  -0.175   2.532  0.3827  0.5587 -0.6377
    3CHTO   C59 1063   5.788  -0.189   2.396  0.4099 -0.7620 -0.8073
    3CHTO  H116 1064   5.869  -0.217   2.329  1.3879  1.8595 -0.7807
    3CHTO   C70 1065   5.690  -0.306   2.389 -0.3154  0.2398  0.3632
    3CHTO   O46 1066   5.678  -0.362   2.258  0.5725 -0.2020 -0.2156
    3CHTO  H103 1067   5.589  -0.363   2.228  0.4333  1.8573  0.0142
    3CHTO   O39 1068   5.983  -0.096   2.698 -0.1161 -0.0088  0.3566
    3CHTO   C60 1069   6.048  -0.219   2.736 -0.1268  0.0016  0.5099
    3CHTO  H117 1070   6.009  -0.309   2.689  1.8305 -0.4225 -0.3446
    3CHTO   C62 1071   6.199  -0.216   2.703 -0.9004  0.5034  0.6304
    3CHTO  H119 1072   6.196  -0.216   2.592 -1.3587  2.3701  0.6259
    3CHTO   O43 1073   6.263  -0.097   2.756  0.0512  0.1753  0.3005
    3CHTO  H101 1074   6.250  -0.028   2.694 -0.2343  2.4015  2.7097
    3CHTO   C66 1075   6.270  -0.349   2.761  0.9242  0.6848 -0.9678
    3CHTO  H123 1076   6.229  -0.433   2.704 -0.4886  2.5079 -2.7121
    3CHTO   N12 1077   6.410  -0.350   2.731 -0.2110 -0.4003 -0.1125
    3CHTO  H110 1078   6.445  -0.247   2.728  2.1088 -1.1665 -0.6340
    3CHTO  H111 1079   6.418  -0.390   2.631 -1.0827  1.7882 -1.0869
    3CHTO   C69 1080   6.262  -0.357   2.912  0.4460  0.0602  0.4622
    3CHTO  H126 1081   6.293  -0.263   2.963  0.5107  1.2817 -1.7564
    3CHTO   O41 1082   6.114  -0.368   2.930 -0.2373  0.0777  0.3894
    3CHTO   C64 1083   6.030  -0.239   2.888  0.4741  0.1656  0.4659
    3CHTO  H121 1084   6.071  -0.151   2.944 -0.0701  1.4098 -1.0623
    3CHTO   C71 1085   5.880  -0.289   2.918 -0.0133  0.1438 -0.1876
    3CHTO   O47 1086   5.852  -0.333   3.049  0.3795 -0.2078 -0.7319
    3CHTO  H104 1087   5.774  -0.385   3.057  1.0142 -1.0511  0.0117
    3CHTO   O34 1088   6.329  -0.494   2.975 -0.0263 -0.7150 -0.2120
    3CHTO   C49 1089   6.345  -0.649   2.957  0.2785  0.4479  0.2370
    3CHTO   H91 1090   6.400  -0.655   2.863  0.0067  0.7883  0.0559
    3CHTO   C47 1091   6.209  -0.714   2.931  0.5572 -0.2643 -0.2417
    3CHTO   H89 1092   6.186  -0.706   2.823 -0.0382  0.4430 -0.0671
    3CHTO   O33 1093   6.098  -0.651   3.005 -0.2961 -0.4411 -0.1024
    3CHTO   H70 1094   6.012  -0.650   2.968 -0.4843  1.0575  0.3443
    3CHTO   C45 1095   6.211  -0.864   2.991  0.1443  0.3393 -0.4596
    3CHTO   H87 1096   6.190  -0.838   3.096 -0.6653  2.3157 -1.0784
    3CHTO    N8 1097   6.097  -0.934   2.933  1.2091 -0.1190  0.8689
    3CHTO   H75 1098   6.046  -1.000   3.001  0.4572  0.0946  0.5132
    3CHTO   H76 1099   6.108  -0.963   2.830  2.6879  1.2307  0.6224
    3CHTO   C43 1100   6.355  -0.936   2.977  0.6178 -0.6130  0.2431
    3CHTO   H85 1101   6.346  -1.038   3.012 -0.5042  0.1168  2.1762
    3CHTO   O29 1102   6.454  -0.861   3.054 -0.8335  0.1718 -0.4783
    3CHTO   C50 1103   6.423  -0.723   3.081  0.9541  0.6820  0.6161
    3CHTO   H92 1104   6.367  -0.714   3.175  1.1605  1.1536  0.6945
    3CHTO   C54 1105   6.548  -0.652   3.122  0.3553  0.0239 -0.0491
    3CHTO   O36 1106   6.600  -0.713   3.239  0.6541  0.1938 -0.0367
    3CHTO   H72 1107   6.644  -0.796   3.230  1.3930  0.6482 -0.6193
    3CHTO   O27 1108   6.391  -0.940   2.836 -0.8173  0.1772  0.3603
    3CHTO   C37 1109   6.480  -0.970   2.727  0.3213  0.6250  0.5196
    3CHTO   H79 1110   6.561  -1.040   2.754  0.0093  0.9189  2.2856
    3CHTO   C38 1111   6.394  -1.045   2.617  0.8332 -0.1603  0.5885
    3CHTO   H80 1112   6.295  -0.999   2.605  0.8788 -0.6406 -1.7602
    3CHTO   O31 1113   6.371  -1.174   2.675 -0.6981  0.1305 -0.1138
    3CHTO   H68 1114   6.371  -1.247   2.616  2.7683 -0.3049  0.2938
    3CHTO   C39 1115   6.461  -1.063   2.475 -0.3397 -0.4099  0.4881
    3CHTO   H81 1116   6.543  -1.134   2.483  0.5314  0.2886 -1.7991
    3CHTO    N7 1117   6.377  -1.118   2.365  0.5049 -0.4612 -0.5012
    3CHTO   H73 1118   6.432  -1.147   2.277  1.9780 -1.3385  0.6834
    3CHTO   H74 1119   6.317  -1.034   2.334  0.6054 -0.1302  0.2011
    3CHTO   C40 1120   6.534  -0.927   2.440  0.0456  0.1637  0.7626
    3CHTO   H82 1121   6.463  -0.851   2.406  0.6156  0.2937 -0.1438
    3CHTO   O26 1122   6.616  -0.878   2.548  0.6479 -0.4627 -0.5450
    3CHTO   C41 1123   6.535  -0.842   2.663 -0.1096 -0.1377  0.5609
    3CHTO   H83 1124   6.457  -0.771   2.632  1.3309  1.1632 -0.1865
    3CHTO   C52 1125   6.627  -0.759   2.747 -0.1514  0.2477  0.4340
    3CHTO   O35 1126   6.684  -0.639   2.670  0.5066  0.0619  0.0710
    3CHTO   H71 1127   6.757  -0.608   2.720 -1.2448  1.4672  1.8283
    3CHTO   O28 1128   6.622  -0.938   2.328  0.4062  0.0109  0.3843
    3CHTO   C42 1129   6.665  -0.823   2.248  0.5131 -0.0150 -0.1107
    3CHTO   H84 1130   6.724  -0.861   2.165  0.2681 -2.0039  0.5950
    3CHTO   C44 1131   6.756  -0.721   2.328 -1.0553 -1.0711  0.0163
    3CHTO   H86 1132   6.700  -0.680   2.413 -0.8976  1.3070 -0.9958
    3CHTO   O32 1133   6.868  -0.787   2.388 -0.1627  0.1809  0.8041
    3CHTO   H69 1134   6.865  -0.785   2.482 -1.9381 -0.3321  0.7745
    3CHTO   C48 1135   6.795  -0.593   2.236  0.1640  0.1986  0.5862
    3CHTO   H90 1136   6.847  -0.629   2.146  2.1551 -1.1148  2.2181
    3CHTO    N9 1137   6.877  -0.501   2.314 -0.7405 -0.2890  0.1448
    3CHTO   H77 1138   6.817  -0.454   2.390  0.5091 -1.4953  1.9183
    3CHTO   H78 1139   6.955  -0.563   2.356  1.2853  2.5846  0.7820
    3CHTO   C51 1140   6.662  -0.534   2.179  0.0149 -0.0715  0.4009
    3CHTO   H93 1141   6.604  -0.498   2.263 -3.2007 -0.9162 -1.3743
    3CHTO   O30 1142   6.592  -0.627   2.098  0.3948  0.0720 -0.0898
    3CHTO   C46 1143   6.541  -0.753   2.186 -0.6803 -0.3381  0.7570
    3CHTO   H88 1144   6.469  -0.712   2.257 -0.6861  0.8539  0.0788
    3CHTO   C53 1145   6.471  -0.852   2.085  0.2763 -0.1910  0.0804
    3CHTO   O72 1146   6.349  -0.794   2.038 -0.6135  0.4939 -0.2420
    3CHTO  H199 1147   6.282  -0.796   2.104 -0.8393 -0.2901 -0.4846
    3CHTO   O22 1148   6.696  -0.428   2.086 -0.5609 -0.1013 -0.2893
    3CHTO   C31 1149   6.611  -0.304   2.079 -0.3895 -0.2246 -0.0123
    3CHTO   H59 1150   6.520  -0.326   2.138 -0.6352  2.3032  0.6196
    3CHTO   C29 1151   6.674  -0.180   2.146  0.3582 -0.2503  0.2732
    3CHTO   H57 1152   6.781  -0.183   2.120  0.3851 -3.1401  0.5799
    3CHTO   O21 1153   6.678  -0.196   2.287  0.5166 -0.0137  0.2008
    3CHTO   H37 1154   6.619  -0.136   2.327 -1.5443 -0.5935 -1.8884
    3CHTO   C27 1155   6.620  -0.030   2.107 -0.4775  0.8433 -0.2398
    3CHTO   H55 1156   6.526  -0.008   2.160  0.1255  2.5988  0.1295
    3CHTO    N5 1157   6.716   0.081   2.139 -0.0236 -0.1564 -0.5629
    3CHTO   H43 1158   6.707   0.072   2.246  0.1194 -1.0860 -0.6270
    3CHTO   H44 1159   6.812   0.044   2.106 -0.1952 -0.8882 -0.2444
    3CHTO   C25 1160   6.580  -0.027   1.955  0.7874  0.5975 -0.0871
    3CHTO   H53 1161   6.672  -0.039   1.896  1.0307 -0.8675  0.5668
    3CHTO   O17 1162   6.506  -0.147   1.929 -0.0342 -0.3797  0.0013
    3CHTO   C32 1163   6.575  -0.271   1.936 -0.0477 -0.1628 -0.2629
    3CHTO   H60 1164   6.669  -0.258   1.884 -0.1610 -2.4118 -1.0762
    3CHTO   C36 1165   6.483  -0.369   1.866  0.1972  0.2851 -0.2589
    3CHTO   O25 1166   6.549  -0.491   1.832 -0.6293 -0.2181  0.2650
    3CHTO   H40 1167   6.481  -0.541   1.793 -2.0766 -1.1220  3.7639
    3CHTO   O15 1168   6.497   0.110   1.916  0.3950 -0.0949 -0.0453
    3CHTO   C19 1169   6.496   0.135   1.768 -0.1012 -0.4410 -0.6418
    3CHTO   H47 1170   6.572   0.065   1.730 -1.4896 -1.0329 -2.3936
    3CHTO   C20 1171   6.358   0.087   1.701 -0.0493 -0.2594  0.2970
    3CHTO   H48 1172   6.269   0.119   1.757  0.4388 -0.9284  1.4649
    3CHTO   O19 1173   6.357  -0.055   1.700  0.1981  0.9969 -0.0362
    3CHTO   H35 1174   6.272  -0.094   1.686  0.6685 -0.2624  0.5053
    3CHTO   C21 1175   6.334   0.152   1.555 -0.6038 -0.2879  0.4006
    3CHTO   H49 1176   6.410   0.108   1.491 -0.0691 -0.1963  0.9747
    3CHTO    N4 1177   6.196   0.130   1.507  0.2182 -0.1364 -0.0299
    3CHTO   H41 1178   6.200   0.090   1.407 -1.6127  1.6274 -0.8416
    3CHTO   H42 1179   6.153   0.229   1.505  0.2504 -0.1200  0.1082
    3CHTO   C22 1180   6.371   0.301   1.567 -0.0365  0.1470 -0.6657
    3CHTO   H50 1181   6.299   0.345   1.635 -2.4209 -1.0471 -2.3595
    3CHTO   O14 1182   6.512   0.317   1.599 -0.5060  0.5901  0.1294
    3CHTO   C23 1183   6.541   0.285   1.737  0.7872  0.5073  1.6087
    3CHTO   H51 1184   6.498   0.358   1.807  0.5958  3.1346 -1.1035
    3CHTO   C34 1185   6.691   0.296   1.756 -0.2436 -0.2619 -0.3996
    3CHTO   O23 1186   6.768   0.244   1.649  0.0243  0.3358  0.0462
    3CHTO   H38 1187   6.806   0.163   1.680 -1.7819 -0.8607 -0.8183
    3CHTO   O16 1188   6.362   0.366   1.438 -0.5499 -0.2187 -0.8449
    3CHTO   C24 1189   6.286   0.530   1.477  0.6357 -0.4507 -0.4305
    3CHTO   H52 1190   6.294   0.558   1.582 -1.6063 -0.4986 -0.2333
    3CHTO   C26 1191   6.135   0.531   1.448 -0.6449  0.2413  0.0826
    3CHTO   H54 1192   6.113   0.492   1.346  1.5397  3.2182 -1.6112
    3CHTO   O20 1193   6.068   0.442   1.536 -0.6316  0.0584 -0.5872
    3CHTO   H36 1194   6.117   0.436   1.616  0.0635 -1.2729 -1.0945
    3CHTO   C30 1195   6.079   0.676   1.447 -0.1791  0.0607  0.2546
    3CHTO   H58 1196   6.078   0.723   1.547 -1.5244 -0.2474  0.3943
    3CHTO    N6 1197   5.940   0.687   1.390 -0.1005 -0.8689 -0.4674
    3CHTO   H45 1198   5.937   0.752   1.304 -2.7870  0.1060  0.3202
    3CHTO   H46 1199   5.894   0.593   1.363 -1.2603 -0.1559 -1.0222
    3CHTO   C33 1200   6.173   0.752   1.352  0.1056 -0.1913 -0.5352
    3CHTO   H61 1201   6.180   0.703   1.253 -1.3522  2.5976 -2.1009
    3CHTO   O18 1202   6.300   0.754   1.408 -0.2901  0.2502  0.3352
    3CHTO   C28 1203   6.364   0.632   1.392  0.0828 -0.3007  0.1609
    3CHTO   H56 1204   6.373   0.595   1.289  0.8701 -2.0543  0.8319
    3CHTO   C35 1205   6.507   0.636   1.445 -0.4796  0.6593 -0.3639
    3CHTO   O24 1206   6.592   0.716   1.358 -0.7315 -0.0915  0.0145
    3CHTO   H39 1207   6.577   0.802   1.394 -1.4784 -0.3461  0.3254
    3CHTO    O9 1208   6.134   0.888   1.316 -0.5423  0.0896  0.1650
    3CHTO   C13 1209   6.131   0.916   1.155 -0.3748 -0.3899  0.0671
    3CHTO   H26 1210   6.074   0.831   1.111 -3.2767  0.4700  2.0029
    3CHTO   C11 1211   6.276   0.928   1.095  0.0592  0.2699  0.1018
    3CHTO   H24 1212   6.319   0.827   1.093 -0.1676  0.1920 -1.5614
    3CHTO    O8 1213   6.353   1.004   1.184  0.1691 -0.7038  0.1960
    3CHTO    H3 1214   6.308   1.051   1.252 -0.2099 -0.5848 -0.1345
    3CHTO    C9 1215   6.282   0.985   0.950  0.5648 -0.8665  0.0685
    3CHTO   H22 1216   6.221   0.911   0.895 -3.2918 -0.0826  3.0618
    3CHTO    N2 1217   6.420   0.985   0.894  1.0954  0.1064  0.4482
    3CHTO   H10 1218   6.423   0.924   0.804  0.4628  1.0416 -0.2277
    3CHTO   H11 1219   6.443   1.087   0.865  0.4139 -0.4749 -2.3916
    3CHTO    C7 1220   6.208   1.127   0.952 -0.9593  0.1676  0.0998
    3CHTO   H20 1221   6.194   1.152   0.845 -0.0762  2.1093  0.4120
    3CHTO    O4 1222   6.079   1.114   1.012 -0.1779 -0.4856  0.1472
    3CHTO   C14 1223   6.049   1.044   1.133  0.0473 -0.7089 -0.3940
    3CHTO   H27 1224   5.940   1.025   1.127 -0.7859  3.9152 -1.8804
    3CHTO   C18 1225   6.068   1.149   1.240 -0.4244  0.5282  0.0916
    3CHTO   O13 1226   5.973   1.259   1.230 -0.3294 -0.1418 -0.3817
    3CHTO    H7 1227   6.000   1.324   1.291 -1.0431 -0.3924  0.2150
    3CHTO    O2 1228   6.293   1.256   1.037  0.1628 -0.4893  0.0848
    3CHTO    C1 1229   6.321   1.363   0.944  0.5583 -0.4857 -0.0278
    3CHTO   H14 1230   6.271   1.341   0.848  1.7121  0.0250 -0.7593
    3CHTO    C2 1231   6.474   1.396   0.917 -0.3496  0.3724 -0.8230
    3CHTO   H15 1232   6.525   1.388   1.014 -1.9105  0.3230 -0.0050
    3CHTO    O6 1233   6.524   1.299   0.828  0.0978 -0.3218 -0.3595
    3CHTO    H1 1234   6.618   1.297   0.830  0.1090  0.6107  1.1929
    3CHTO    C3 1235   6.486   1.546   0.857 -0.1387  0.6015  0.3473
    3CHTO   H16 1236   6.448   1.541   0.754  1.3583 -1.9690 -0.1207
    3CHTO    N1 1237   6.630   1.597   0.848  0.0793  0.3543  0.1992
    3CHTO    H8 1238   6.711   1.533   0.879  0.0153  0.6336  0.9498
    3CHTO    H9 1239   6.658   1.625   0.747 -0.0954 -0.8886 -0.1955
    3CHTO    C4 1240   6.399   1.653   0.927 -0.0014 -0.1463  0.5768
    3CHTO   H17 1241   6.438   1.679   1.026 -0.4884  0.9184  0.5034
    3CHTO    O1 1242   6.264   1.601   0.932 -0.2092 -0.4750  0.0740
    3CHTO    C5 1243   6.244   1.488   1.015 -0.0464 -0.0987  0.5372
    3CHTO   H18 1244   6.297   1.501   1.109  2.4358 -0.0906 -0.8063
    3CHTO   C16 1245   6.091   1.472   1.042  0.1294  0.4768 -0.3942
    3CHTO   O11 1246   6.038   1.405   0.925 -0.5349 -0.5848  0.1160
    3CHTO    H5 1247   6.035   1.464   0.852  3.4470 -1.1650 -0.6518
    3CHTO    O3 1248   6.385   1.778   0.861 -0.3856 -0.4033 -0.5348
    3CHTO    C6 1249   6.334   1.885   0.945  0.5392 -0.0190 -0.2531
    3CHTO   H19 1250   6.281   1.850   1.034 -1.8030  4.3182  0.2063
    3CHTO    C8 1251   6.465   1.972   0.989 -0.0944 -0.5793 -0.3823
    3CHTO   H21 1252   6.528   1.985   0.901  1.7293 -3.1006  0.5078
    3CHTO    O7 1253   6.537   1.910   1.092 -0.3056 -0.3481 -0.6476
    3CHTO    H2 1254   6.543   1.818   1.072  0.4926 -0.2297 -0.9903
    3CHTO   C12 1255   6.418   2.124   1.038 -0.8172 -0.8120  0.1337
    3CHTO   H25 1256   6.391   2.109   1.145 -2.4331 -1.8929 -0.4204
    3CHTO    N3 1257   6.535   2.219   1.032 -0.2001  0.1813 -0.7484
    3CHTO   H12 1258   6.562   2.239   0.929 -0.2564  1.7437 -0.4727
    3CHTO   H13 1259   6.530   2.313   1.085 -0.8716 -0.4195  0.2536
    3CHTO   C15 1260   6.295   2.174   0.970 -0.1834  0.4502  0.3861
    3CHTO   H28 1261   6.318   2.210   0.870  0.1213  1.4030  0.7972
    3CHTO   O10 1262   6.217   2.264   1.045 -0.1963 -0.2560 -0.0126
    3CHTO    H4 1263   6.147   2.298   0.994 -0.5193 -2.4938 -1.1248
    3CHTO    O5 1264   6.190   2.070   0.958 -0.4598  0.0256 -0.1265
    3CHTO   C10 1265   6.231   1.969   0.865  0.3105  0.0488 -0.1785
    3CHTO   H23 1266   6.282   2.008   0.777 -1.4537  2.0554 -0.3555
    3CHTO   C17 1267   6.116   1.887   0.810 -0.0919  0.1669 -0.1329
    3CHTO   O12 1268   6.030   1.970   0.727  0.2799  0.1973  0.0886
    3CHTO    H6 1269   6.056   2.058   0.706 -2.4566  1.3600  1.2446
    4CHTO  H203 1270   6.255   5.856   0.508  0.2031 -0.4417 -0.0085
    4CHTO   O82 1271   6.204   5.854   0.587  0.1449  0.5478 -0.0078
    4CHTO  C123 1272   6.129   5.974   0.593 -0.1167  0.4634  0.2668
    4CHTO  H227 1273   6.056   5.961   0.675 -2.6316  2.0470 -1.6593
    4CHTO   O77 1274   6.218   6.083   0.646  0.0655  0.1371  0.2841
    4CHTO  C118 1275   6.153   6.207   0.680  0.1617  0.5241  0.5598
    4CHTO  H222 1276   6.067   6.181   0.743 -1.2880  2.6784 -0.4719
    4CHTO  C125 1277   6.252   6.302   0.761 -0.0815 -0.2400  0.2756
    4CHTO   O84 1278   6.265   6.244   0.891 -0.1344 -0.0609  0.1390
    4CHTO  H205 1279   6.297   6.308   0.951 -0.9686  0.1728  0.3513
    4CHTO  C114 1280   6.114   6.266   0.544  0.1370  0.3946  0.2142
    4CHTO  H218 1281   6.211   6.275   0.494  0.2779  1.1876  0.6255
    4CHTO  C116 1282   6.015   6.171   0.461 -0.2428  0.0725 -0.0609
    4CHTO  H220 1283   5.915   6.179   0.508 -0.1618  0.9632 -0.0340
    4CHTO   O79 1284   6.002   6.231   0.332 -0.4264  0.0473 -0.3252
    4CHTO  H201 1285   6.085   6.237   0.289  0.5240 -0.2675  1.4340
    4CHTO  C120 1286   6.064   6.018   0.457 -0.5678  0.3278  0.6850
    4CHTO  H224 1287   6.136   6.028   0.373 -0.8837  2.3835  0.6233
    4CHTO   N21 1288   5.967   5.917   0.410  0.0303  0.5467 -0.2776
    4CHTO  H211 1289   5.980   5.898   0.305  0.0191  0.8749 -0.3380
    4CHTO  H212 1290   5.866   5.937   0.443  1.0376 -0.5511  3.8184
    4CHTO   O75 1291   6.055   6.394   0.570  0.2123  0.0946  0.2602
    4CHTO  C112 1292   6.111   6.518   0.464 -0.0832 -0.5271  0.0454
    4CHTO  H216 1293   6.141   6.466   0.372 -0.4090 -0.8739  0.1315
    4CHTO   O73 1294   6.224   6.579   0.528  0.2269  0.3290  0.5512
    4CHTO  C113 1295   6.280   6.691   0.463 -0.2940 -0.1938  0.2417
    4CHTO  H217 1296   6.333   6.678   0.366 -1.8171  1.3364 -0.8336
    4CHTO  C124 1297   6.379   6.732   0.571 -0.5073 -0.4748 -0.0082
    4CHTO   O83 1298   6.468   6.835   0.535  0.0240 -0.2892 -0.8003
    4CHTO  H204 1299   6.417   6.914   0.530  0.5283 -0.0050 -1.4438
    4CHTO  C109 1300   6.175   6.804   0.425 -0.7988 -0.1442  0.1457
    4CHTO  H213 1301   6.149   6.858   0.517  2.4083  1.5826  0.0815
    4CHTO  C110 1302   6.049   6.747   0.354 -0.1326  0.7222  0.1202
    4CHTO  H214 1303   6.062   6.724   0.248  1.0064  1.8242  0.0055
    4CHTO   O78 1304   5.948   6.853   0.349 -0.7391 -0.5015  0.0150
    4CHTO  H200 1305   5.922   6.875   0.437  0.3620  0.7075  0.0455
    4CHTO  C111 1306   6.000   6.621   0.433 -0.5610  0.9094  0.3525
    4CHTO  H215 1307   5.958   6.651   0.530  0.8358  0.3438  1.1342
    4CHTO   N19 1308   5.889   6.550   0.361 -0.7640 -0.2768  0.0790
    4CHTO  H207 1309   5.892   6.559   0.254  1.2499  1.2063  0.2391
    4CHTO  H208 1310   5.885   6.445   0.387 -1.2498  0.1210  1.6326
    4CHTO   O74 1311   6.247   6.896   0.338  0.0235 -0.9298  0.5976
    4CHTO  C115 1312   6.229   7.040   0.377  0.0585 -0.2465  0.9315
    4CHTO  H219 1313   6.153   7.048   0.455 -0.2531 -1.7140  0.7878
    4CHTO   O76 1314   6.357   7.108   0.434 -0.3055  0.0924  0.5724
    4CHTO  C122 1315   6.463   7.094   0.334 -0.0468  0.5812 -0.3987
    4CHTO  H226 1316   6.497   6.990   0.343 -0.2737  0.4167 -1.3838
    4CHTO  C126 1317   6.578   7.178   0.374  0.0760  0.2700 -0.1550
    4CHTO   O85 1318   6.644   7.128   0.486  0.1374 -0.5212 -0.2344
    4CHTO  H206 1319   6.584   7.094   0.549 -0.4846  0.4841 -0.2707
    4CHTO  C121 1320   6.425   7.112   0.188  1.3722  0.1783  0.0271
    4CHTO  H225 1321   6.502   7.163   0.128 -0.0451  2.6490  0.2518
    4CHTO   O81 1322   6.402   6.989   0.114  0.1253  0.0026 -0.6927
    4CHTO  H202 1323   6.476   6.932   0.114 -0.4253 -0.7190  0.0216
    4CHTO  C119 1324   6.290   7.193   0.182 -0.7081  0.3692 -0.4288
    4CHTO  H223 1325   6.311   7.284   0.238 -0.4080 -0.9808  1.6874
    4CHTO  C117 1326   6.173   7.116   0.248  0.5679 -0.0816 -0.9406
    4CHTO  H221 1327   6.133   7.034   0.189 -0.2569  0.4719 -1.1564
    4CHTO   N20 1328   6.053   7.200   0.286 -0.5989  0.1072 -0.4239
    4CHTO  H209 1329   5.975   7.138   0.325 -2.7732  0.4601 -4.0103
    4CHTO  H210 1330   6.070   7.283   0.354 -2.8322  0.1791  0.0844
    4CHTO   O80 1331   6.245   7.252   0.027 -0.0346  0.0519  0.8502
    4CHTO  C103 1332   6.295   7.411  -0.005 -0.3848  0.2569 -0.3427
    4CHTO  H190 1333   6.215   7.479   0.023 -0.0862  0.1423  0.7963
    4CHTO  C101 1334   6.430   7.467   0.066 -0.5124  0.3529  0.3618
    4CHTO  H188 1335   6.506   7.390   0.057  2.1553  2.8851  0.2711
    4CHTO   O68 1336   6.412   7.482   0.223  0.5747 -0.2337 -0.4714
    4CHTO  H168 1337   6.494   7.486   0.268  0.7115 -1.8428 -0.5757
    4CHTO   C99 1338   6.487   7.598   0.003  0.3385  0.1775 -0.7007
    4CHTO  H186 1339   6.418   7.684   0.021 -0.4632  0.2922 -4.0303
    4CHTO   N17 1340   6.618   7.646   0.064  0.4700  0.2957  0.4760
    4CHTO  H174 1341   6.601   7.657   0.170  0.0868  2.6300  0.1876
    4CHTO  H175 1342   6.680   7.559   0.046  0.5261  0.6632 -1.1820
    4CHTO   C97 1343   6.485   7.578  -0.154  0.5621 -0.0650 -0.2370
    4CHTO  H184 1344   6.558   7.499  -0.175  1.4462  0.9300 -0.9684
    4CHTO   O64 1345   6.352   7.545  -0.205  0.4841 -1.0825  0.3041
    4CHTO  C104 1346   6.307   7.412  -0.171 -0.1337 -0.2751  0.0819
    4CHTO  H191 1347   6.379   7.338  -0.206 -0.6953 -0.6574 -0.2699
    4CHTO  C108 1348   6.174   7.381  -0.249 -0.0909  0.2000  0.0087
    4CHTO   O71 1349   6.089   7.494  -0.245  0.9895 -1.1001  0.2192
    4CHTO  H171 1350   6.008   7.478  -0.291  0.4258  0.9032  0.4736
    4CHTO   O62 1351   6.518   7.703  -0.215  0.4755 -0.7301 -0.2787
    4CHTO   C91 1352   6.604   7.685  -0.326 -0.3620 -0.1797  0.3686
    4CHTO  H178 1353   6.589   7.589  -0.375 -1.2348  0.2650 -0.2524
    4CHTO   C92 1354   6.756   7.708  -0.286 -0.5330 -0.6307 -0.2170
    4CHTO  H179 1355   6.755   7.809  -0.243 -1.4991 -1.3733  1.5601
    4CHTO   O66 1356   6.799   7.619  -0.183  0.7164 -0.1300  0.2485
    4CHTO  H166 1357   6.751   7.634  -0.104  0.4999 -1.4659  0.3875
    4CHTO   C93 1358   6.857   7.692  -0.407 -0.3593 -0.1729 -0.3775
    4CHTO  H180 1359   6.885   7.586  -0.405  1.4210  0.2188 -2.0689
    4CHTO   N16 1360   6.993   7.753  -0.396  0.5950  0.0989 -0.9475
    4CHTO  H172 1361   7.003   7.825  -0.476 -0.9460 -1.4618 -2.5823
    4CHTO  H173 1362   6.997   7.806  -0.302 -2.1956 -1.0924 -0.1201
    4CHTO   C94 1363   6.786   7.731  -0.549 -0.1883 -0.2421 -1.4679
    4CHTO  H181 1364   6.859   7.778  -0.615  1.0730  2.1895  1.5423
    4CHTO   O61 1365   6.679   7.826  -0.529  0.5001  0.0946 -0.2990
    4CHTO   C95 1366   6.574   7.796  -0.439  0.0288 -0.0894 -0.2936
    4CHTO  H182 1367   6.550   7.886  -0.381  0.8660  0.2385 -0.4495
    4CHTO  C106 1368   6.441   7.759  -0.520 -0.3118 -0.2662 -0.3641
    4CHTO   O69 1369   6.338   7.727  -0.430 -0.1618  0.1931  0.3009
    4CHTO  H169 1370   6.341   7.635  -0.415  1.4713 -0.3967 -3.0011
    4CHTO   O63 1371   6.717   7.600  -0.614 -0.5471 -0.2629  0.1874
    4CHTO   C96 1372   6.818   7.524  -0.708  0.0700  0.1557 -0.5956
    4CHTO  H183 1373   6.769   7.429  -0.734 -0.7860  0.2627  0.5688
    4CHTO   C98 1374   6.958   7.479  -0.651 -0.3361  0.1249  0.2010
    4CHTO  H185 1375   7.016   7.561  -0.607 -0.3309  0.6732 -0.7962
    4CHTO   O67 1376   6.925   7.395  -0.540 -0.0526  0.3316  0.1137
    4CHTO  H167 1377   6.876   7.452  -0.484  0.8835 -0.0581  1.3595
    4CHTO  C102 1378   7.034   7.386  -0.759  0.1918  0.5276  1.1124
    4CHTO  H189 1379   6.985   7.288  -0.750  0.0968  0.6841  2.5226
    4CHTO   N18 1380   7.173   7.362  -0.720  0.4973 -0.0983 -0.6621
    4CHTO  H176 1381   7.191   7.320  -0.622 -0.8218  1.6534  0.3539
    4CHTO  H177 1382   7.227   7.303  -0.793 -1.8540 -0.2278 -2.3145
    4CHTO  C105 1383   7.028   7.458  -0.900  0.3749 -0.4848 -0.5758
    4CHTO  H192 1384   7.090   7.548  -0.907 -2.3927  1.4497 -0.9133
    4CHTO   O65 1385   6.897   7.502  -0.939  0.6098  0.4850  0.2993
    4CHTO  C100 1386   6.836   7.594  -0.850 -0.2871  1.0524 -0.5241
    4CHTO  H187 1387   6.902   7.682  -0.847  0.6498  0.3164  1.2473
    4CHTO  C107 1388   6.707   7.632  -0.909  0.2064  0.2541  0.4884
    4CHTO   O70 1389   6.672   7.757  -0.844  0.5979 -0.4125  0.8236
    4CHTO  H170 1390   6.586   7.780  -0.873  0.5028 -2.6468 -0.7804
    4CHTO   O57 1391   7.067   7.341  -1.006 -0.0958 -0.0791 -0.0948
    4CHTO   C85 1392   7.130   7.390  -1.123  0.5219  0.0065 -0.4297
    4CHTO  H157 1393   7.196   7.473  -1.091 -2.9060  1.8202  2.3228
    4CHTO   C83 1394   7.031   7.454  -1.220 -0.3607  0.1747 -0.5258
    4CHTO  H155 1395   6.988   7.543  -1.173  0.3236  1.8675 -3.0101
    4CHTO   O56 1396   6.930   7.353  -1.240  0.4132  0.1582 -0.5538
    4CHTO  H135 1397   6.860   7.366  -1.179 -0.1657  0.5245 -1.2986
    4CHTO   C81 1398   7.103   7.505  -1.348 -0.5845 -0.7737  0.2656
    4CHTO  H153 1399   7.179   7.576  -1.312  0.3581 -3.2741  3.4607
    4CHTO   N14 1400   7.006   7.572  -1.436  0.0536 -0.5127 -0.2329
    4CHTO  H141 1401   7.068   7.655  -1.465 -0.0738 -0.9428 -1.7651
    4CHTO  H142 1402   6.928   7.606  -1.372  0.4847  0.0220  0.0124
    4CHTO   C79 1403   7.169   7.385  -1.424  0.7168  0.6531  0.1590
    4CHTO  H151 1404   7.229   7.430  -1.503 -0.1027  0.2818 -0.6829
    4CHTO   O52 1405   7.258   7.305  -1.338 -0.2896 -0.1752 -0.0263
    4CHTO   C86 1406   7.206   7.271  -1.204 -0.3130  0.6762 -0.2685
    4CHTO  H158 1407   7.133   7.189  -1.220  0.3381 -0.1781  1.0476
    4CHTO   C90 1408   7.323   7.197  -1.125  0.2280  0.1747 -0.4299
    4CHTO   O60 1409   7.457   7.247  -1.131 -0.0277  0.3108 -0.2297
    4CHTO  H138 1410   7.456   7.325  -1.080 -1.6080 -0.3173  0.7212
    4CHTO   O50 1411   7.071   7.295  -1.484 -0.1957 -0.1464  0.2498
    4CHTO   C73 1412   7.051   7.216  -1.596 -0.1863  1.5346 -0.5190
    4CHTO  H145 1413   7.094   7.261  -1.686 -0.0557  0.1194 -1.1760
    4CHTO   C74 1414   6.899   7.192  -1.624 -0.5842 -0.4981 -0.0942
    4CHTO  H146 1415   6.850   7.285  -1.658 -1.1747 -1.1278 -0.9782
    4CHTO   O54 1416   6.879   7.107  -1.743  0.4346 -0.1297 -0.4191
    4CHTO  H133 1417   6.892   7.015  -1.736 -3.1861 -0.5108  2.5647
    4CHTO   C75 1418   6.830   7.126  -1.497 -0.0803 -1.0437  0.2974
    4CHTO  H147 1419   6.822   7.203  -1.419  1.9722  0.6174 -1.0663
    4CHTO   N13 1420   6.690   7.075  -1.521 -0.2577  0.4302  0.4838
    4CHTO  H139 1421   6.627   7.123  -1.447  2.4335  3.3518  0.9951
    4CHTO  H140 1422   6.673   6.969  -1.507  2.0594  0.1408  1.2415
    4CHTO   C76 1423   6.915   6.998  -1.448  0.1706 -0.4387 -0.2259
    4CHTO  H148 1424   6.887   6.906  -1.500 -1.2763 -0.7197  1.0209
    4CHTO   O49 1425   7.060   7.014  -1.455 -0.1292  0.0074 -0.2971
    4CHTO   C77 1426   7.110   7.076  -1.575 -0.3435  0.7105  0.3512
    4CHTO  H149 1427   7.088   7.010  -1.658 -0.6509 -1.6434  2.2343
    4CHTO   C88 1428   7.265   7.079  -1.580 -0.3518  0.1537  0.5758
    4CHTO   O58 1429   7.325   6.951  -1.562 -0.4756 -0.1641 -0.2121
    4CHTO  H136 1430   7.352   6.923  -1.648 -0.2683  2.8712 -1.2132
    4CHTO   O51 1431   6.899   6.977  -1.292 -0.3564 -0.3464  0.8215
    4CHTO   C78 1432   6.902   6.813  -1.244 -0.3858 -0.5835 -0.2830
    4CHTO  H150 1433   6.905   6.812  -1.133  0.3165 -1.5497 -0.3065
    4CHTO   C80 1434   7.035   6.762  -1.297 -0.2777  0.7161  0.6904
    4CHTO  H152 1435   7.029   6.765  -1.407  0.3995  0.9800  0.6557
    4CHTO   O55 1436   7.139   6.852  -1.239  0.0393  0.2030  0.4695
    4CHTO  H134 1437   7.228   6.830  -1.259  0.0718  0.1322  0.6878
    4CHTO   C84 1438   7.057   6.614  -1.255  0.1338  0.7587 -0.2827
    4CHTO  H156 1439   7.050   6.601  -1.147  0.5127 -1.4336 -0.5008
    4CHTO   N15 1440   7.190   6.553  -1.289 -0.1567  0.2233  0.4462
    4CHTO  H143 1441   7.253   6.536  -1.204 -1.2281 -1.1967  0.9733
    4CHTO  H144 1442   7.192   6.467  -1.353  1.5175  1.4244 -1.1920
    4CHTO   C87 1443   6.939   6.529  -1.307 -0.1887  0.0979 -0.2580
    4CHTO  H159 1444   6.940   6.519  -1.415  0.9952  0.4931 -0.2826
    4CHTO   O53 1445   6.807   6.589  -1.263  0.0308 -0.0852 -0.1493
    4CHTO   C82 1446   6.792   6.725  -1.309  0.4941  0.4868 -0.2486
    4CHTO  H154 1447   6.803   6.733  -1.417  2.4126  3.7299  0.1219
    4CHTO   C89 1448   6.653   6.781  -1.270 -0.0106  0.0717  0.5585
    4CHTO   O59 1449   6.626   6.774  -1.128 -0.4755  0.5091 -0.1249
    4CHTO  H137 1450   6.558   6.836  -1.111 -0.3625  0.4907  0.3733
    4CHTO   O45 1451   6.941   6.378  -1.250  0.1448 -0.6429 -0.1638
    4CHTO   C67 1452   6.849   6.285  -1.304  0.1110 -0.0179 -0.0830
    4CHTO  H124 1453   6.801   6.322  -1.395 -0.5058 -1.1852 -0.2495
    4CHTO   C65 1454   6.933   6.154  -1.336 -0.0381  0.1799  0.1275
    4CHTO  H122 1455   7.026   6.187  -1.382  0.4190 -0.8841  0.2978
    4CHTO   O44 1456   6.852   6.066  -1.422  0.0995  0.2503  0.9846
    4CHTO  H102 1457   6.905   5.990  -1.439 -1.2461 -0.1696 -1.6563
    4CHTO   C63 1458   6.976   6.097  -1.200 -0.2633  0.0997 -0.0335
    4CHTO  H120 1459   7.026   6.174  -1.141  0.3120  1.7954 -2.6433
    4CHTO   N11 1460   7.088   5.992  -1.206 -0.3837 -0.4526 -0.0899
    4CHTO  H108 1461   7.078   5.932  -1.295  0.2466 -0.3645 -0.2211
    4CHTO  H109 1462   7.100   5.945  -1.111  0.3717 -1.9528 -0.9021
    4CHTO   C61 1463   6.860   6.053  -1.109 -0.2926 -0.3380 -0.0460
    4CHTO  H118 1464   6.906   6.045  -1.010  0.4465 -1.9027 -0.4996
    4CHTO   O40 1465   6.752   6.155  -1.101 -0.4086 -0.4122  0.4816
    4CHTO   C68 1466   6.726   6.255  -1.207 -0.1508 -0.2891 -0.0441
    4CHTO  H125 1467   6.703   6.345  -1.145  0.9651  0.3647 -0.5800
    4CHTO   C72 1468   6.597   6.213  -1.281  0.1845  0.1372  0.5563
    4CHTO   O48 1469   6.561   6.299  -1.392 -0.1467  0.0738 -0.2212
    4CHTO  H105 1470   6.472   6.285  -1.417 -0.1079  1.1954 -1.0137
    4CHTO   O38 1471   6.798   5.928  -1.153 -0.1852 -0.0043 -0.0863
    4CHTO   C55 1472   6.730   5.862  -1.044  0.2316 -0.0399 -0.1375
    4CHTO  H112 1473   6.693   5.934  -0.969  1.5234  0.3976  0.0943
    4CHTO   C56 1474   6.827   5.750  -0.975  0.2428 -0.1342  0.0621
    4CHTO  H113 1475   6.859   5.674  -1.048  0.9198  1.3676 -1.2425
    4CHTO   O42 1476   6.951   5.812  -0.936 -0.6065  0.3733 -0.0304
    4CHTO  H100 1477   6.986   5.869  -1.002 -1.7518  1.7367  0.4899
    4CHTO   C57 1478   6.755   5.685  -0.853 -0.0822 -0.4112 -0.1072
    4CHTO  H114 1479   6.734   5.771  -0.790 -1.8842 -0.5702 -0.4637
    4CHTO   N10 1480   6.837   5.587  -0.777  0.1237  0.5031 -0.3161
    4CHTO  H106 1481   6.930   5.570  -0.830  1.1918  1.3160  1.2649
    4CHTO  H107 1482   6.859   5.626  -0.679 -0.2153 -0.4250  0.1346
    4CHTO   C58 1483   6.621   5.631  -0.900  0.8448  0.4674 -0.0924
    4CHTO  H115 1484   6.645   5.538  -0.956  0.5193 -0.1051  0.7187
    4CHTO   O37 1485   6.538   5.727  -0.980  0.1558  0.3225  0.0550
    4CHTO   C59 1486   6.607   5.779  -1.095  0.5260  0.3687  0.5080
    4CHTO  H116 1487   6.621   5.702  -1.170 -0.4443  1.0604 -0.4015
    4CHTO   C70 1488   6.502   5.865  -1.155  0.5212 -0.0436  0.2737
    4CHTO   O46 1489   6.406   5.802  -1.239  0.6380  0.4855  0.3190
    4CHTO  H103 1490   6.451   5.755  -1.307  2.0477  1.1700  0.7631
    4CHTO   O39 1491   6.537   5.599  -0.760  0.2115  0.2735 -0.3293
    4CHTO   C60 1492   6.470   5.470  -0.767  0.4216  0.2441 -0.2855
    4CHTO  H117 1493   6.437   5.431  -0.864  0.3035 -0.3088 -0.0259
    4CHTO   C62 1494   6.565   5.355  -0.709  0.0604  0.0597  0.3210
    4CHTO  H119 1495   6.652   5.348  -0.777 -0.6071  1.5398 -0.7006
    4CHTO   O43 1496   6.608   5.412  -0.584  0.6028  0.3786 -0.3651
    4CHTO  H101 1497   6.657   5.348  -0.536  1.0338  2.0288  1.4558
    4CHTO   C66 1498   6.486   5.210  -0.697  0.3919 -0.5020 -0.7399
    4CHTO  H123 1499   6.466   5.172  -0.797  1.3950 -1.2817 -0.6482
    4CHTO   N12 1500   6.581   5.108  -0.645 -0.3883  0.4368 -0.0677
    4CHTO  H110 1501   6.647   5.087  -0.728  1.3196  0.0886  1.3376
    4CHTO  H111 1502   6.537   5.016  -0.612  1.6574 -0.1308  1.1400
    4CHTO   C69 1503   6.361   5.229  -0.607 -0.1043  0.3629  0.2660
    4CHTO  H126 1504   6.386   5.242  -0.500  1.1783  1.5267 -0.1535
    4CHTO   O41 1505   6.275   5.367  -0.676 -0.5937 -0.2466  0.9145
    4CHTO   C64 1506   6.344   5.486  -0.678 -0.1525  0.0304  0.3331
    4CHTO  H121 1507   6.367   5.512  -0.573  1.2144 -0.4013  0.1515
    4CHTO   C71 1508   6.255   5.606  -0.729  0.2849  0.2623 -0.2637
    4CHTO   O47 1509   6.140   5.620  -0.639  0.6957 -0.1665  0.0496
    4CHTO  H104 1510   6.077   5.668  -0.689  0.7800 -0.3949 -0.2715
    4CHTO   O34 1511   6.287   5.120  -0.617 -0.1164  0.1751  0.2246
    4CHTO   C49 1512   6.148   5.074  -0.594 -0.6723 -0.0159 -0.5115
    4CHTO   H91 1513   6.100   5.109  -0.502  0.2148  0.9627 -0.4105
    4CHTO   C47 1514   6.149   4.917  -0.597  0.0935 -0.5968 -0.5933
    4CHTO   H89 1515   6.042   4.901  -0.572  0.2933 -1.4431 -0.2564
    4CHTO   O33 1516   6.229   4.857  -0.494  0.0943  0.0581  0.5225
    4CHTO   H70 1517   6.173   4.808  -0.436 -1.0829 -0.6194 -1.1502
    4CHTO   C45 1518   6.188   4.864  -0.746 -0.0932  0.0763 -0.1627
    4CHTO   H87 1519   6.293   4.833  -0.756 -0.9724 -2.4210 -2.2919
    4CHTO    N8 1520   6.101   4.747  -0.770 -0.0011 -0.4687  0.0920
    4CHTO   H75 1521   6.019   4.752  -0.840 -1.4403 -0.3534  1.7383
    4CHTO   H76 1522   6.169   4.667  -0.794  1.1229 -0.0373  1.7461
    4CHTO   C43 1523   6.174   4.985  -0.851  0.6134  0.5596 -0.0657
    4CHTO   H85 1524   6.263   5.048  -0.844 -0.2696  2.0035 -1.6906
    4CHTO   O29 1525   6.056   5.062  -0.834 -0.0015  0.1087  0.0868
    4CHTO   C50 1526   6.054   5.127  -0.710 -0.0364 -0.1717  0.4556
    4CHTO   H92 1527   6.086   5.229  -0.736  1.4314 -0.2346  1.8987
    4CHTO   C54 1528   5.905   5.144  -0.669  0.1737 -0.0815  0.4574
    4CHTO   O36 1529   5.823   5.028  -0.692  0.6576  0.1393 -0.0666
    4CHTO   H72 1530   5.732   5.050  -0.703  0.9978  2.3301  1.3411
    4CHTO   O27 1531   6.195   4.946  -0.987  0.1038 -0.2845 -0.0415
    4CHTO   C37 1532   6.290   4.968  -1.094 -0.2284 -0.0279 -0.2060
    4CHTO   H79 1533   6.288   4.882  -1.162 -0.3822  0.3424 -0.6645
    4CHTO   C38 1534   6.250   5.093  -1.175 -0.0194  0.1025 -0.8139
    4CHTO   H80 1535   6.221   5.176  -1.109 -0.1933 -0.3846 -0.2764
    4CHTO   O31 1536   6.137   5.045  -1.249 -0.5528 -0.3458  0.1964
    4CHTO   H68 1537   6.137   5.061  -1.342 -1.1045 -0.4905  0.1724
    4CHTO   C39 1538   6.374   5.133  -1.267 -0.3551 -0.7993 -0.2707
    4CHTO   H81 1539   6.378   5.062  -1.350 -0.0578  0.1195 -1.0664
    4CHTO    N7 1540   6.353   5.263  -1.329  0.2327  0.1867  0.0321
    4CHTO   H73 1541   6.396   5.342  -1.270  1.1200 -1.2885  1.3848
    4CHTO   H74 1542   6.250   5.295  -1.329 -0.5977 -2.3855  0.4622
    4CHTO   C40 1543   6.509   5.130  -1.186 -0.0848 -0.0113 -0.1878
    4CHTO   H82 1544   6.512   5.206  -1.108  0.1609 -1.5926  1.3734
    4CHTO   O26 1545   6.527   4.998  -1.133 -0.1032  0.1658 -0.2940
    4CHTO   C41 1546   6.431   4.978  -1.031  0.5158 -0.1352 -0.2748
    4CHTO   H83 1547   6.441   5.058  -0.956  1.4916 -2.2144  1.8658
    4CHTO   C52 1548   6.475   4.849  -0.958 -0.4658  0.0407 -0.1140
    4CHTO   O35 1549   6.499   4.716  -1.038  0.2623 -0.6092  0.2708
    4CHTO   H71 1550   6.447   4.720  -1.116 -1.1158 -2.0113  1.0995
    4CHTO   O28 1551   6.627   5.148  -1.270  0.3552 -0.1800 -0.0542
    4CHTO   C42 1552   6.765   5.160  -1.220 -0.1835 -0.4989 -0.1760
    4CHTO   H84 1553   6.822   5.171  -1.312  0.3954  0.0287  0.2404
    4CHTO   C44 1554   6.826   5.032  -1.143  1.0170  0.0660  0.0584
    4CHTO   H86 1555   6.766   5.018  -1.053 -1.4385 -1.4306 -1.7394
    4CHTO   O32 1556   6.814   4.919  -1.231  0.1197  0.7208  0.3922
    4CHTO   H69 1557   6.866   4.843  -1.210  0.7220  0.9343 -0.3089
    4CHTO   C48 1558   6.970   5.059  -1.092 -0.1119  0.9336 -0.3579
    4CHTO   H90 1559   7.045   5.059  -1.172 -1.8934  4.4827 -2.1156
    4CHTO    N9 1560   7.023   4.940  -1.013  0.4417 -0.5372  0.0168
    4CHTO   H77 1561   7.119   4.906  -1.049  1.1222  0.0883  1.2123
    4CHTO   H78 1562   6.956   4.857  -0.991  0.3298 -0.2156  0.9310
    4CHTO   C51 1563   6.987   5.193  -1.012 -0.0830 -0.1506  0.1150
    4CHTO   H93 1564   6.927   5.194  -0.921 -1.0434  0.1568 -0.5098
    4CHTO   O30 1565   6.940   5.294  -1.103 -0.0731 -0.2422  0.1250
    4CHTO   C46 1566   6.783   5.293  -1.135  0.5100  0.6579 -0.6928
    4CHTO   H88 1567   6.726   5.294  -1.041  0.3839 -0.9491 -0.7386
    4CHTO   C53 1568   6.749   5.424  -1.215 -0.3726 -0.2705  0.0345
    4CHTO   O72 1569   6.613   5.445  -1.233  0.1688  0.6988  0.6742
    4CHTO  H199 1570   6.582   5.521  -1.188 -1.7253  1.1934 -1.3513
    4CHTO   O22 1571   7.128   5.225  -0.979  0.3827 -0.4262 -0.0551
    4CHTO   C31 1572   7.163   5.287  -0.850 -0.3536 -0.2344  0.1739
    4CHTO   H59 1573   7.069   5.330  -0.810  0.9449  3.6706 -0.7008
    4CHTO   C29 1574   7.216   5.181  -0.747  0.2467  0.1442  0.4996
    4CHTO   H57 1575   7.307   5.138  -0.792  1.4885  1.5847  1.5727
    4CHTO   O21 1576   7.117   5.080  -0.718 -0.1878  0.2261  0.0951
    4CHTO   H37 1577   7.146   5.022  -0.650 -1.4187 -0.1475  0.3205
    4CHTO   C27 1578   7.252   5.237  -0.605  0.0253  0.0778  0.4209
    4CHTO   H55 1579   7.163   5.277  -0.553  1.6686  2.9783  1.0949
    4CHTO    N5 1580   7.321   5.139  -0.512 -0.3377  0.1379 -0.0673
    4CHTO   H43 1581   7.274   5.128  -0.415  1.3408 -2.4919  0.5037
    4CHTO   H44 1582   7.349   5.042  -0.548  0.1660 -0.0925  0.9110
    4CHTO   C25 1583   7.333   5.369  -0.621 -0.6081  0.0692 -0.5289
    4CHTO   H53 1584   7.434   5.333  -0.646 -0.9487  0.5040 -2.6541
    4CHTO   O17 1585   7.288   5.460  -0.724  0.3536  0.1188 -0.0323
    4CHTO   C32 1586   7.264   5.405  -0.858 -0.1857 -0.1534 -0.1437
    4CHTO   H60 1587   7.361   5.361  -0.876 -1.1652 -1.5022 -2.2534
    4CHTO   C36 1588   7.241   5.530  -0.939 -0.5993  0.0619 -0.1364
    4CHTO   O25 1589   7.193   5.526  -1.077 -0.1362  0.1225  0.1827
    4CHTO   H40 1590   7.250   5.572  -1.136 -0.3286 -0.9354 -0.8491
    4CHTO   O15 1591   7.329   5.456  -0.488  0.1442 -0.4310 -0.5729
    4CHTO   C19 1592   7.402   5.492  -0.373 -0.3459  0.0826 -0.7465
    4CHTO   H47 1593   7.441   5.400  -0.328  1.2416  0.4474 -1.3056
    4CHTO   C20 1594   7.531   5.584  -0.380 -0.2598 -0.0901  0.3098
    4CHTO   H48 1595   7.508   5.683  -0.423  1.9222  0.6922  0.8269
    4CHTO   O19 1596   7.617   5.511  -0.473 -0.8890 -0.5025  0.2433
    4CHTO   H35 1597   7.702   5.541  -0.445 -0.6882  0.8865 -1.6700
    4CHTO   C21 1598   7.586   5.616  -0.238 -0.6210  0.3816  0.5251
    4CHTO   H49 1599   7.626   5.525  -0.193  1.5192  0.3950 -1.2385
    4CHTO    N4 1600   7.707   5.698  -0.246  0.1886  0.2285 -0.5359
    4CHTO   H41 1601   7.701   5.806  -0.246  0.5029  0.2530  1.1652
    4CHTO   H42 1602   7.788   5.672  -0.180  0.2892  2.3737  0.2299
    4CHTO   C22 1603   7.482   5.672  -0.134 -0.3126 -0.5678 -0.7083
    4CHTO   H50 1604   7.472   5.778  -0.157  0.2522 -0.6072 -1.1451
    4CHTO   O14 1605   7.361   5.604  -0.147  0.1969  0.4149  0.1973
    4CHTO   C23 1606   7.304   5.562  -0.271  0.0723 -0.4943 -0.1886
    4CHTO   H51 1607   7.258   5.653  -0.311  0.9600  1.1940  2.4917
    4CHTO   C34 1608   7.192   5.464  -0.224 -0.3525 -0.3629 -0.1010
    4CHTO   O23 1609   7.087   5.457  -0.322  0.2256  0.0973 -0.0977
    4CHTO   H38 1610   7.102   5.512  -0.396  2.1095  0.0129  0.1973
    4CHTO   O16 1611   7.517   5.667  -0.001 -0.0326  0.3116 -0.1167
    4CHTO   C24 1612   7.422   5.736   0.109  0.3458 -0.7334 -0.1414
    4CHTO   H52 1613   7.318   5.743   0.078  1.0003  3.9703 -1.5939
    4CHTO   C26 1614   7.463   5.879   0.145  0.5109  0.2420  1.2796
    4CHTO   H54 1615   7.570   5.882   0.175  1.5323 -0.6040 -1.9916
    4CHTO   O20 1616   7.451   5.967   0.028 -0.7186 -0.3251  0.1700
    4CHTO   H36 1617   7.517   6.033   0.023 -1.4808  0.4512  0.1869
    4CHTO   C30 1618   7.383   5.936   0.266  0.7246  0.1975 -0.2720
    4CHTO   H58 1619   7.276   5.950   0.241  0.2809  3.4209  3.0797
    4CHTO    N6 1620   7.447   6.061   0.303 -0.8390 -0.0175 -0.2546
    4CHTO   H45 1621   7.379   6.145   0.305 -1.0617 -0.2218  0.7083
    4CHTO   H46 1622   7.533   6.089   0.244 -0.0984 -2.1080 -0.2394
    4CHTO   C33 1623   7.378   5.835   0.390 -0.4975 -0.2511  0.6751
    4CHTO   H61 1624   7.478   5.827   0.436  1.3637  0.0861 -3.1104
    4CHTO   O18 1625   7.347   5.700   0.340 -0.4270  0.0265  0.0264
    4CHTO   C28 1626   7.434   5.652   0.236 -0.2819  0.2304 -0.6504
    4CHTO   H56 1627   7.537   5.663   0.270 -0.8652  3.0043  0.2792
    4CHTO   C35 1628   7.392   5.502   0.204 -0.1840 -0.1148 -0.0366
    4CHTO   O24 1629   7.390   5.414   0.316  0.3063 -1.0334 -0.2992
    4CHTO   H39 1630   7.303   5.394   0.344  0.5244  0.0098  1.1483
    4CHTO    O9 1631   7.285   5.875   0.494  0.0569 -0.3598  0.0011
    4CHTO   C13 1632   7.358   5.903   0.652  0.2378 -0.5095 -0.3379
    4CHTO   H26 1633   7.397   6.007   0.653 -0.7320 -0.1500  1.1038
    4CHTO   C11 1634   7.467   5.801   0.685 -1.0767 -0.1538  0.1578
    4CHTO   H24 1635   7.557   5.821   0.624  1.0437 -0.4937  3.0585
    4CHTO    O8 1636   7.425   5.666   0.652 -0.4740 -0.6693  0.2409
    4CHTO    H3 1637   7.487   5.607   0.690 -1.6859 -1.9007  0.3451
    4CHTO    C9 1638   7.517   5.819   0.829 -0.4187  0.6882  0.0319
    4CHTO   H22 1639   7.540   5.925   0.843  2.7256  0.0745 -0.2444
    4CHTO    N2 1640   7.643   5.753   0.860  0.2893 -0.7223  0.5368
    4CHTO   H10 1641   7.688   5.808   0.940 -1.4373 -0.7175  1.5274
    4CHTO   H11 1642   7.709   5.753   0.774  1.0494 -0.3088  1.1139
    4CHTO    C7 1643   7.397   5.790   0.925  0.0507 -0.0655 -0.0251
    4CHTO   H20 1644   7.433   5.822   1.025  3.3152 -1.2605 -0.7869
    4CHTO    O4 1645   7.282   5.877   0.896 -0.1570  0.0182  0.1947
    4CHTO   C14 1646   7.245   5.896   0.757 -0.2292  0.7208  0.3083
    4CHTO   H27 1647   7.199   5.997   0.751 -0.9346  0.4727  1.3002
    4CHTO   C18 1648   7.131   5.784   0.731 -0.3564  0.2317 -0.0519
    4CHTO   O13 1649   7.003   5.817   0.788  0.5049  0.6747 -0.1712
    4CHTO    H7 1650   6.996   5.788   0.876 -0.3959 -1.4085 -0.9118
    4CHTO    O2 1651   7.335   5.636   0.923 -0.1068 -0.2173  0.2203
    4CHTO    C1 1652   7.398   5.536   1.004  0.1166  0.8255 -0.0134
    4CHTO   H14 1653   7.502   5.560   1.036 -0.3328 -0.6980  2.7236
    4CHTO    C2 1654   7.408   5.393   0.925  0.2436 -0.0585  0.2149
    4CHTO   H15 1655   7.307   5.353   0.905 -0.2416 -0.1022  2.5460
    4CHTO    O6 1656   7.483   5.409   0.805 -0.0406  0.1720  0.6845
    4CHTO    H1 1657   7.481   5.331   0.753  1.9920 -0.1300  1.0291
    4CHTO    C3 1658   7.490   5.282   1.014 -0.0999  0.7573  0.3657
    4CHTO   H16 1659   7.590   5.325   1.027 -0.1365  1.5661 -1.9504
    4CHTO    N1 1660   7.505   5.147   0.950  0.3564  0.6386 -0.5866
    4CHTO    H8 1661   7.597   5.137   0.894  0.0112 -1.2073 -0.8584
    4CHTO    H9 1662   7.499   5.064   1.019  0.3073  0.1120 -1.2210
    4CHTO    C4 1663   7.424   5.276   1.164 -0.1624  0.5538  0.2387
    4CHTO   H17 1664   7.336   5.213   1.154  0.4230  0.0263 -1.9110
    4CHTO    O1 1665   7.383   5.406   1.212  0.1986 -0.3099 -0.3755
    4CHTO    C5 1666   7.320   5.510   1.130  0.3837  0.5556 -0.5373
    4CHTO   H18 1667   7.220   5.482   1.096 -0.4397  3.3479 -0.6252
    4CHTO   C16 1668   7.314   5.635   1.218  0.3589  0.2862 -0.3953
    4CHTO   O11 1669   7.237   5.605   1.340 -0.0012  0.5891  0.0210
    4CHTO    H5 1670   7.296   5.564   1.400 -0.4256 -2.5895 -1.6234
    4CHTO    O3 1671   7.508   5.202   1.254 -0.1147 -0.2401 -0.1475
    4CHTO    C6 1672   7.482   5.215   1.396  0.6224 -0.6485  0.1349
    4CHTO   H19 1673   7.399   5.278   1.430 -0.8818 -1.8439 -1.2595
    4CHTO    C8 1674   7.447   5.076   1.465 -0.9003  0.4369 -0.0386
    4CHTO   H21 1675   7.523   5.001   1.440 -0.6028  0.7564 -0.0866
    4CHTO    O7 1676   7.325   5.030   1.407 -0.4095 -0.2084  0.1585
    4CHTO    H2 1677   7.340   4.941   1.379  0.5459 -0.2419  0.7478
    4CHTO   C12 1678   7.438   5.090   1.619 -0.1176 -0.6799  0.3694
    4CHTO   H25 1679   7.349   5.156   1.628  1.1369  1.0822  0.2745
    4CHTO    N3 1680   7.407   4.963   1.687  0.5352 -0.4539  0.2900
    4CHTO   H12 1681   7.458   4.881   1.639  0.2974 -0.5416  0.1863
    4CHTO   H13 1682   7.300   4.948   1.689  0.2253  1.6806  1.0024
    4CHTO   C15 1683   7.565   5.170   1.671  0.0365 -0.5369  0.9858
    4CHTO   H28 1684   7.659   5.114   1.671 -0.1741 -0.9034  1.7923
    4CHTO   O10 1685   7.543   5.215   1.812  0.2500  0.2518 -0.1577
    4CHTO    H4 1686   7.580   5.158   1.876  0.7986 -0.5223 -1.1459
    4CHTO    O5 1687   7.600   5.290   1.600 -0.1316  0.3031 -0.2763
    4CHTO   C10 1688   7.613   5.272   1.459 -0.4804  0.5003 -0.1139
    4CHTO   H23 1689   7.688   5.194   1.448 -1.1409 -0.4639  1.8908
    4CHTO   C17 1690   7.670   5.398   1.396  0.4726 -0.2376  0.9083
    4CHTO   O12 1691   7.585   5.514   1.398  0.0286 -0.0611 -0.5968
    4CHTO    H6 1692   7.575   5.536   1.489  1.5104 -0.0546 -0.4312
    5CHTO  H203 1693   6.658   3.259   2.581 -0.3266 -1.0965  1.9633
    5CHTO   O82 1694   6.571   3.287   2.561  0.4681  0.0615 -0.0434
    5CHTO  C123 1695   6.479   3.238   2.658  0.4401 -0.5373  0.0446
    5CHTO  H227 1696   6.466   3.318   2.733 -1.5893 -0.8735  0.0859
    5CHTO   O77 1697   6.347   3.215   2.597 -0.2871  0.0602  0.2473
    5CHTO  C118 1698   6.245   3.218   2.696  0.4175  0.0923 -0.1636
    5CHTO  H222 1699   6.256   3.304   2.764 -4.1246  0.8482 -0.2152
    5CHTO  C125 1700   6.100   3.227   2.619  0.2395  0.6778  0.1473
    5CHTO   O84 1701   6.072   3.136   2.511 -0.0212 -0.1576 -0.2184
    5CHTO  H205 1702   6.141   3.135   2.448 -0.0185 -1.7319 -0.2160
    5CHTO  C114 1703   6.258   3.083   2.770  0.1746  0.9936  0.2714
    5CHTO  H218 1704   6.251   3.003   2.696  0.8217 -0.4833  1.7749
    5CHTO  C116 1705   6.398   3.070   2.837  0.5472  0.3656 -0.0548
    5CHTO  H220 1706   6.401   3.140   2.923 -2.1837 -0.4622  0.7621
    5CHTO   O79 1707   6.400   2.934   2.889 -0.1606 -0.8717  0.2481
    5CHTO  H201 1708   6.484   2.892   2.883 -0.5411 -1.5715 -0.0987
    5CHTO  C120 1709   6.516   3.105   2.743 -0.4022 -0.3514  0.8818
    5CHTO  H224 1710   6.516   3.022   2.669  2.0536 -0.7101  1.2379
    5CHTO   N21 1711   6.642   3.107   2.822 -0.1820 -0.6213  0.0371
    5CHTO  H211 1712   6.675   3.205   2.854  1.8491 -1.5907  1.0406
    5CHTO  H212 1713   6.721   3.061   2.764 -1.9453 -1.5653 -1.6907
    5CHTO   O75 1714   6.150   3.077   2.861  0.8446 -0.8779  0.2754
    5CHTO  C112 1715   6.059   2.939   2.853 -0.3851  0.2642 -0.5527
    5CHTO  H216 1716   6.124   2.858   2.889 -2.0149 -0.9683 -0.3062
    5CHTO   O73 1717   6.013   2.909   2.720 -0.0886  0.4664  0.4735
    5CHTO  C113 1718   5.937   2.784   2.705  0.4552  0.4258 -0.3950
    5CHTO  H217 1719   5.997   2.702   2.750  0.5703 -0.5171 -2.2226
    5CHTO  C124 1720   5.912   2.753   2.553  0.1593  0.4926 -0.6630
    5CHTO   O83 1721   6.025   2.701   2.484  0.1648 -0.0024  0.4530
    5CHTO  H204 1722   6.041   2.728   2.395 -2.1913  1.7143  0.5216
    5CHTO  C109 1723   5.803   2.789   2.784  0.1965  0.4959  0.2709
    5CHTO  H213 1724   5.738   2.867   2.741  0.9491  0.0739 -1.6726
    5CHTO  C110 1725   5.837   2.824   2.927  0.4963  0.9815  0.1740
    5CHTO  H214 1726   5.874   2.736   2.979  0.1393 -0.4067 -1.8806
    5CHTO   O78 1727   5.701   2.852   2.976  0.2069 -0.3167 -0.5212
    5CHTO  H200 1728   5.639   2.783   2.965 -1.7479  1.4292 -0.6109
    5CHTO  C111 1729   5.924   2.947   2.936 -0.5595 -0.5761 -0.3000
    5CHTO  H215 1730   5.873   3.032   2.889 -0.1762 -1.1963 -1.8898
    5CHTO   N19 1731   5.966   2.988   3.074 -0.6281 -0.5751  0.1042
    5CHTO  H207 1732   5.957   3.095   3.076 -2.8551 -0.7192 -0.7490
    5CHTO  H208 1733   5.900   2.941   3.146 -1.5755 -0.6278 -0.7706
    5CHTO   O74 1734   5.736   2.658   2.785 -0.6400  0.1233 -0.1065
    5CHTO  C115 1735   5.597   2.648   2.679 -1.1826  0.0630  0.2763
    5CHTO  H219 1736   5.542   2.742   2.670  1.1468  1.5912  1.4787
    5CHTO   O76 1737   5.637   2.614   2.542  0.1917  0.0058 -0.2272
    5CHTO  C122 1738   5.533   2.603   2.444 -0.0361 -0.4741  0.2111
    5CHTO  H226 1739   5.574   2.555   2.355  3.0020 -1.4569  2.0740
    5CHTO  C126 1740   5.492   2.745   2.406 -0.3125 -0.5827 -0.9027
    5CHTO   O85 1741   5.408   2.745   2.297 -0.4774 -0.0770  0.2153
    5CHTO  H206 1742   5.443   2.792   2.224  0.8011  0.7535  1.3349
    5CHTO  C121 1743   5.409   2.522   2.489  0.5346  0.2523  0.3223
    5CHTO  H225 1744   5.328   2.550   2.419 -0.7570  1.4198  2.2446
    5CHTO   O81 1745   5.445   2.391   2.460 -0.1402 -0.1688 -0.1176
    5CHTO  H202 1746   5.383   2.342   2.409  0.4538  0.1829 -1.2034
    5CHTO  C119 1747   5.361   2.548   2.636 -0.5396 -0.3342  0.9947
    5CHTO  H223 1748   5.334   2.653   2.628 -1.6649 -0.6535  0.4616
    5CHTO  C117 1749   5.495   2.538   2.732 -0.2768 -0.5299 -0.4511
    5CHTO  H221 1750   5.547   2.443   2.736  1.4688  0.3982 -0.7220
    5CHTO   N20 1751   5.449   2.559   2.871  0.4081  0.5400 -0.7231
    5CHTO  H209 1752   5.382   2.483   2.908  1.0236 -0.1274 -0.9623
    5CHTO  H210 1753   5.403   2.656   2.883  1.5899  1.1471 -0.9584
    5CHTO   O80 1754   5.228   2.481   2.679  0.5207  0.6281  0.5639
    5CHTO  C103 1755   5.207   2.319   2.677  0.2815 -0.0707  0.7768
    5CHTO  H190 1756   5.236   2.278   2.580  0.4547  0.3331  0.6556
    5CHTO  C101 1757   5.282   2.237   2.791  0.4221  0.3149  0.3908
    5CHTO  H188 1758   5.286   2.285   2.889  0.9518  1.0952 -0.0129
    5CHTO   O68 1759   5.439   2.233   2.751  0.0996  0.5544 -0.2107
    5CHTO  H168 1760   5.455   2.224   2.659  2.7143  0.6678  0.1818
    5CHTO   C99 1761   5.225   2.086   2.803  0.2923  0.7239 -0.3464
    5CHTO  H186 1762   5.224   2.029   2.708 -1.4216  4.0506 -2.4280
    5CHTO   N17 1763   5.291   1.995   2.902 -0.2811 -0.1048 -0.8036
    5CHTO  H174 1764   5.343   1.924   2.840  1.6645  0.9613 -0.4234
    5CHTO  H175 1765   5.359   2.035   2.976 -2.7675 -1.4916  2.3461
    5CHTO   C97 1766   5.073   2.097   2.838 -0.2320  0.5014 -0.5459
    5CHTO  H184 1767   5.065   2.152   2.933 -2.0169 -0.6292 -0.0152
    5CHTO   O64 1768   5.008   2.166   2.727 -0.1317 -0.4012 -0.9699
    5CHTO  C104 1769   5.050   2.299   2.691 -0.6533 -0.5521  1.0383
    5CHTO  H191 1770   5.018   2.374   2.764 -1.3724 -1.3029  1.5134
    5CHTO  C108 1771   4.973   2.336   2.561 -0.5190  0.7246 -0.1230
    5CHTO   O71 1772   4.973   2.474   2.543 -0.0514 -0.1293 -0.1766
    5CHTO  H171 1773   4.929   2.512   2.617  0.3593 -1.8412  0.9685
    5CHTO   O62 1774   4.999   1.976   2.829  0.4380  0.4494 -0.2930
    5CHTO   C91 1775   4.897   1.971   2.930 -0.2551  0.2591 -0.4495
    5CHTO  H178 1776   4.943   1.992   3.027  0.9659  0.7540 -1.1165
    5CHTO   C92 1777   4.859   1.820   2.953  0.3281 -0.3678 -0.2825
    5CHTO  H179 1778   4.950   1.761   2.973  0.8233  1.1915  2.1740
    5CHTO   O66 1779   4.786   1.812   3.074  0.3142  0.0831  0.1684
    5CHTO  H166 1780   4.707   1.863   3.067  2.0164  2.8426  0.6165
    5CHTO   C93 1781   4.777   1.764   2.824  0.0304 -0.6809 -0.1853
    5CHTO  H180 1782   4.734   1.668   2.854  1.0424 -0.5555  1.7673
    5CHTO   N16 1783   4.864   1.726   2.715  0.4777 -0.2497 -0.2376
    5CHTO  H172 1784   4.938   1.656   2.751  1.4432  0.8564 -0.0218
    5CHTO  H173 1785   4.905   1.816   2.672  1.0678  0.8561  2.5383
    5CHTO   C94 1786   4.659   1.872   2.795 -0.3066  0.2233  0.1406
    5CHTO  H181 1787   4.669   1.918   2.697 -3.0781  0.8371  0.0952
    5CHTO   O61 1788   4.652   1.981   2.892  0.1952  0.1782  0.0404
    5CHTO   C95 1789   4.771   2.059   2.894  0.0057 -0.1468  0.3154
    5CHTO  H182 1790   4.787   2.106   2.797  1.4737 -0.0089  0.6164
    5CHTO  C106 1791   4.761   2.183   2.996 -0.2220 -0.5240 -0.4607
    5CHTO   O69 1792   4.876   2.264   2.993 -0.1335  0.1915 -1.1717
    5CHTO  H169 1793   4.916   2.256   3.077 -1.3826 -0.2929 -0.6131
    5CHTO   O63 1794   4.521   1.789   2.798  0.0076  0.2333 -0.0301
    5CHTO   C96 1795   4.470   1.758   2.659  0.4860 -0.0983 -0.4648
    5CHTO  H183 1796   4.556   1.756   2.592  0.5255  1.2742 -0.4640
    5CHTO   C98 1797   4.367   1.866   2.601 -0.1342  0.3420 -0.4026
    5CHTO  H185 1798   4.287   1.884   2.675 -0.5560 -0.2910 -0.6963
    5CHTO   O67 1799   4.442   1.988   2.588  0.5763  0.1651  0.1555
    5CHTO  H167 1800   4.535   1.977   2.580  0.3272 -2.7467  0.8924
    5CHTO  C102 1801   4.323   1.821   2.457 -0.1124  0.2827  0.5257
    5CHTO  H189 1802   4.408   1.848   2.393 -0.6122 -0.5794 -0.5025
    5CHTO   N18 1803   4.208   1.897   2.404 -0.1771  0.0185  0.0892
    5CHTO  H176 1804   4.235   2.001   2.397  0.7141 -0.1734  0.6121
    5CHTO  H177 1805   4.129   1.903   2.477 -0.3355 -0.2449 -0.0602
    5CHTO  C105 1806   4.304   1.665   2.447 -0.4053 -1.2354 -0.1291
    5CHTO  H192 1807   4.200   1.640   2.469 -1.1407  2.0027  0.3229
    5CHTO   O65 1808   4.387   1.583   2.518  0.0410  0.4144  0.0701
    5CHTO  C100 1809   4.408   1.614   2.656 -0.0865 -0.2647 -0.4157
    5CHTO  H187 1810   4.306   1.626   2.696  0.3598  1.5297  0.2215
    5CHTO  C107 1811   4.497   1.505   2.726  0.2923 -0.1659 -0.4422
    5CHTO   O70 1812   4.626   1.486   2.660 -0.1861 -0.3920  0.0482
    5CHTO  H170 1813   4.675   1.425   2.713 -0.9016  0.6342  1.9342
    5CHTO   O57 1814   4.334   1.646   2.284 -0.3690 -0.4656 -0.3916
    5CHTO   C85 1815   4.348   1.505   2.239 -0.1697  0.3871 -0.3868
    5CHTO  H157 1816   4.271   1.447   2.294  0.0479  1.0316  0.6102
    5CHTO   C83 1817   4.482   1.439   2.276  0.0072  0.0131 -0.6041
    5CHTO  H155 1818   4.498   1.436   2.384  1.0155  0.3229 -0.7436
    5CHTO   O56 1819   4.580   1.534   2.220 -0.1453 -0.1405 -0.3531
    5CHTO  H135 1820   4.603   1.600   2.283 -0.7321 -0.4558  0.1839
    5CHTO   C81 1821   4.497   1.295   2.221 -0.3048 -0.1283 -0.6962
    5CHTO  H153 1822   4.417   1.234   2.263  1.2996 -1.4715  0.4841
    5CHTO   N14 1823   4.615   1.224   2.269  0.2698 -0.0773 -0.1727
    5CHTO  H141 1824   4.600   1.142   2.336  0.8747 -1.3607 -1.5822
    5CHTO  H142 1825   4.687   1.295   2.305  0.7862 -0.9052  0.4353
    5CHTO   C79 1826   4.481   1.294   2.066 -0.6117 -0.2003 -0.5294
    5CHTO  H151 1827   4.480   1.191   2.031  0.2956  0.2421 -1.8926
    5CHTO   O52 1828   4.349   1.355   2.035 -0.2224  0.0472  0.5590
    5CHTO   C86 1829   4.332   1.489   2.079  0.1057 -0.0287  0.2014
    5CHTO  H158 1830   4.405   1.550   2.022 -0.8162  0.2973 -0.6406
    5CHTO   C90 1831   4.190   1.537   2.038 -0.3736 -0.4972 -0.3630
    5CHTO   O60 1832   4.076   1.470   2.100  0.3361 -0.0880  0.7009
    5CHTO  H138 1833   4.101   1.421   2.176  1.3422 -0.6683 -0.0028
    5CHTO   O50 1834   4.586   1.357   2.001 -0.6616  0.1567  0.0977
    5CHTO   C73 1835   4.642   1.363   1.866  0.1719 -0.1527  0.2040
    5CHTO  H145 1836   4.559   1.371   1.794  0.9602  0.7277 -0.6188
    5CHTO   C74 1837   4.731   1.241   1.828  0.3247  0.0519  0.0139
    5CHTO  H146 1838   4.677   1.145   1.831  1.0952 -0.4302 -1.2191
    5CHTO   O54 1839   4.769   1.249   1.691 -0.6185  0.1988 -0.5482
    5CHTO  H133 1840   4.754   1.168   1.647  0.1105  0.2304 -0.8535
    5CHTO   C75 1841   4.860   1.238   1.922 -0.4607 -0.3392  0.5345
    5CHTO  H147 1842   4.824   1.213   2.023 -0.5255 -2.1448  0.0914
    5CHTO   N13 1843   4.952   1.123   1.896  0.3302 -0.2794  0.0769
    5CHTO  H139 1844   5.040   1.144   1.954  0.3932  0.6495 -0.3511
    5CHTO  H140 1845   4.915   1.024   1.920 -1.2736  0.2020 -0.2971
    5CHTO   C76 1846   4.931   1.376   1.918  0.2508 -0.0363 -0.2331
    5CHTO  H148 1847   4.963   1.388   1.814 -0.5425 -2.8377 -0.8341
    5CHTO   O49 1848   4.841   1.485   1.943 -0.1135 -0.2764  0.1956
    5CHTO   C77 1849   4.730   1.494   1.856 -0.3120 -0.4537 -0.4050
    5CHTO  H149 1850   4.767   1.504   1.754  2.2250  1.4923  0.6172
    5CHTO   C88 1851   4.660   1.623   1.896  0.5688 -0.4130  0.3592
    5CHTO   O58 1852   4.734   1.750   1.801 -0.1959  0.3677  0.2361
    5CHTO  H136 1853   4.811   1.776   1.847 -1.2544 -0.2295  2.3862
    5CHTO   O51 1854   5.036   1.396   2.028 -0.2571  0.2824 -0.5846
    5CHTO   C78 1855   5.114   1.540   2.042  0.7535  0.1393 -0.8683
    5CHTO  H150 1856   5.050   1.620   2.001 -0.3862  1.0168  2.4732
    5CHTO   C80 1857   5.244   1.539   1.963  0.0710  0.1754 -1.2830
    5CHTO  H152 1858   5.295   1.443   1.987 -1.1049 -0.1820 -0.1703
    5CHTO   O55 1859   5.208   1.551   1.824  0.1361 -0.0875 -0.0473
    5CHTO  H134 1860   5.144   1.496   1.782 -3.6582  2.6801  1.7921
    5CHTO   C84 1861   5.340   1.667   1.981 -0.3663 -0.6086 -0.2230
    5CHTO  H156 1862   5.286   1.756   1.950  2.6139  1.5856  0.6528
    5CHTO   N15 1863   5.463   1.648   1.899  0.0792 -0.0300 -0.4683
    5CHTO  H143 1864   5.448   1.576   1.822  3.8007 -0.4627 -0.8996
    5CHTO  H144 1865   5.508   1.737   1.859 -1.3744  0.6945 -0.5015
    5CHTO   C87 1866   5.359   1.691   2.131  0.1083  0.1816 -0.0317
    5CHTO  H159 1867   5.436   1.629   2.177  1.5298 -0.0346 -2.5894
    5CHTO   O53 1868   5.231   1.680   2.204 -0.4157 -0.0898  0.0968
    5CHTO   C82 1869   5.154   1.562   2.193  0.4930 -0.3116 -0.2913
    5CHTO  H154 1870   5.204   1.470   2.226  0.2524 -0.5482 -0.5822
    5CHTO   C89 1871   5.033   1.579   2.284  0.5320  0.4117 -0.2909
    5CHTO   O59 1872   4.968   1.460   2.303  0.2483 -0.2117  0.0535
    5CHTO  H137 1873   5.032   1.408   2.349  0.2642 -0.8889 -0.7330
    5CHTO   O45 1874   5.388   1.840   2.140  0.3428 -1.2351  0.0832
    5CHTO   C67 1875   5.473   1.870   2.260 -0.4238  0.2005  0.1563
    5CHTO  H124 1876   5.471   1.788   2.331  1.4235 -0.7308 -0.8233
    5CHTO   C65 1877   5.623   1.899   2.210 -0.5516 -0.2532 -0.2709
    5CHTO  H122 1878   5.634   1.854   2.111 -0.0975 -2.3488  0.6924
    5CHTO   O44 1879   5.716   1.830   2.301  0.4393  0.1369 -0.7570
    5CHTO  H102 1880   5.740   1.892   2.368  0.7016  0.4287 -1.1191
    5CHTO   C63 1881   5.643   2.051   2.197 -0.4246  0.0048  0.4589
    5CHTO  H120 1882   5.569   2.095   2.130  1.6644  1.4055 -0.9987
    5CHTO   N11 1883   5.769   2.100   2.136 -0.2167  0.0389  0.1282
    5CHTO  H108 1884   5.782   2.206   2.140 -1.7849  0.3683 -2.5859
    5CHTO  H109 1885   5.765   2.074   2.032 -1.2389 -1.4093  0.5130
    5CHTO   C61 1886   5.610   2.108   2.343 -0.2624 -0.6506 -0.0869
    5CHTO  H118 1887   5.600   2.217   2.331 -0.0132 -0.7596 -1.4498
    5CHTO   O40 1888   5.483   2.070   2.405  0.1052 -0.0964  0.0574
    5CHTO   C68 1889   5.397   1.988   2.322  0.4915 -0.5141 -0.1216
    5CHTO  H125 1890   5.357   2.050   2.238  0.3430 -0.2027  0.1803
    5CHTO   C72 1891   5.271   1.960   2.414 -0.1531 -0.4769  0.4350
    5CHTO   O48 1892   5.294   1.870   2.527  0.2961  0.1951 -0.3814
    5CHTO  H105 1893   5.214   1.851   2.572  0.0934 -1.8608 -1.5146
    5CHTO   O38 1894   5.714   2.066   2.432 -0.1796  0.1648 -0.3662
    5CHTO   C55 1895   5.707   2.139   2.556  0.3508 -0.2925  0.2579
    5CHTO  H112 1896   5.607   2.182   2.572  0.7423  0.3786  0.9209
    5CHTO   C56 1897   5.825   2.254   2.560 -0.1808 -0.6538 -0.7905
    5CHTO  H113 1898   5.914   2.203   2.520  0.0822  0.7305 -2.0027
    5CHTO   O42 1899   5.793   2.360   2.469 -0.4815 -0.4161  0.1422
    5CHTO  H100 1900   5.853   2.367   2.398 -1.1540 -0.0003 -0.3947
    5CHTO   C57 1901   5.841   2.324   2.701 -0.2307  1.1436 -0.6527
    5CHTO  H114 1902   5.755   2.389   2.716 -1.2720  0.4263 -3.2588
    5CHTO   N10 1903   5.963   2.411   2.721  0.7321 -0.1086 -0.0773
    5CHTO  H106 1904   5.979   2.460   2.626  3.3687  1.1646  0.9818
    5CHTO  H107 1905   5.939   2.488   2.792 -2.1389 -0.3671 -0.7087
    5CHTO   C58 1906   5.846   2.210   2.814 -0.1028 -0.2978 -0.2729
    5CHTO  H115 1907   5.937   2.150   2.796 -0.8471 -1.9845  1.4861
    5CHTO   O37 1908   5.733   2.119   2.803 -0.4148 -0.3545  0.0323
    5CHTO   C59 1909   5.732   2.044   2.678  0.3907 -0.1315 -0.2829
    5CHTO  H116 1910   5.827   1.990   2.675 -0.2344 -1.2488  0.0857
    5CHTO   C70 1911   5.622   1.938   2.688 -0.5543  0.1672  0.5920
    5CHTO   O46 1912   5.650   1.825   2.772 -0.1127 -0.0712 -0.6700
    5CHTO  H103 1913   5.610   1.836   2.856  1.6178 -3.0342  0.6163
    5CHTO   O39 1914   5.844   2.275   2.985  0.2454 -0.6734  0.3930
    5CHTO   C60 1915   5.727   2.257   3.071 -0.1585  0.0443  0.3717
    5CHTO  H117 1916   5.637   2.280   3.014 -0.4940 -1.5666  0.2256
    5CHTO   C62 1917   5.713   2.107   3.115 -0.0440  0.4471 -0.3644
    5CHTO  H119 1918   5.703   2.047   3.023 -0.6759 -0.1866  0.1163
    5CHTO   O43 1919   5.834   2.065   3.184 -0.0382 -0.0671 -0.2852
    5CHTO  H101 1920   5.817   2.004   3.253  0.5862  1.6132  1.3989
    5CHTO   C66 1921   5.575   2.095   3.193 -0.1319  0.7372 -0.2237
    5CHTO  H123 1922   5.494   2.130   3.128 -1.3551 -0.7182  0.4918
    5CHTO   N12 1923   5.535   1.960   3.218 -0.3169  0.4528  0.1095
    5CHTO  H110 1924   5.508   1.909   3.127  0.4412  2.4347 -1.2428
    5CHTO  H111 1925   5.611   1.912   3.279 -0.1823  0.0333 -0.3838
    5CHTO   C69 1926   5.557   2.184   3.319 -0.2123  0.4283  0.5574
    5CHTO  H126 1927   5.632   2.151   3.394 -1.8777 -1.9789  1.2224
    5CHTO   O41 1928   5.588   2.337   3.282  0.4295  0.4570  0.4273
    5CHTO   C64 1929   5.738   2.349   3.193 -0.4359  0.6552 -0.2457
    5CHTO  H121 1930   5.815   2.320   3.267 -0.0484 -1.3308 -1.3998
    5CHTO   C71 1931   5.749   2.496   3.148  0.3325 -0.2865 -0.5279
    5CHTO   O47 1932   5.879   2.530   3.105 -0.1563  0.7421  0.1426
    5CHTO  H104 1933   5.874   2.622   3.086  2.7912  1.1047  0.8329
    5CHTO   O34 1934   5.406   2.173   3.389  0.1007 -0.5424  0.2660
    5CHTO   C49 1935   5.253   2.166   3.380  0.7130 -0.1249  0.2292
    5CHTO   H91 1936   5.225   2.069   3.338  0.1620 -0.3940  1.2076
    5CHTO   C47 1937   5.204   2.284   3.293  0.1572  0.1011 -0.4355
    5CHTO   H89 1938   5.095   2.267   3.279 -0.2889  1.6783  0.9373
    5CHTO   O33 1939   5.267   2.274   3.167 -0.2628  0.4564  0.3781
    5CHTO   H70 1940   5.359   2.269   3.187 -0.2028  0.0758  0.0054
    5CHTO   C45 1941   5.229   2.423   3.365 -0.3845  0.2234 -0.3493
    5CHTO   H87 1942   5.334   2.434   3.395 -0.0849  2.7548 -2.2263
    5CHTO    N8 1943   5.194   2.540   3.285  0.4960  0.3837  0.0314
    5CHTO   H75 1944   5.277   2.574   3.224  0.3521 -0.4615 -0.6385
    5CHTO   H76 1945   5.107   2.513   3.227  0.7844 -1.5297  0.4690
    5CHTO   C43 1946   5.151   2.428   3.509  0.7418 -0.1832 -0.4783
    5CHTO   H85 1947   5.188   2.518   3.559 -0.4281  1.7453 -2.9789
    5CHTO   O29 1948   5.179   2.307   3.582  0.1742  0.3340  0.0046
    5CHTO   C50 1949   5.175   2.179   3.515 -1.2205  0.0531  0.2906
    5CHTO   H92 1950   5.231   2.112   3.581 -1.6071  0.8439  1.4434
    5CHTO   C54 1951   5.040   2.112   3.501  0.0086  0.2817 -0.0681
    5CHTO   O36 1952   4.993   2.065   3.626  0.3897  0.1342 -1.0532
    5CHTO   H72 1953   4.900   2.080   3.632  0.5679  0.4667  1.0260
    5CHTO   O27 1954   5.004   2.444   3.496 -0.4443  0.0461 -0.4385
    5CHTO   C37 1955   4.892   2.423   3.588 -0.4948 -0.5060  0.4796
    5CHTO   H79 1956   4.910   2.325   3.635  0.6035 -0.6800 -0.3073
    5CHTO   C38 1957   4.890   2.534   3.705 -0.5407 -0.5287 -0.0979
    5CHTO   H80 1958   4.903   2.632   3.656 -0.0853  0.5661  2.1366
    5CHTO   O31 1959   5.004   2.509   3.795  0.3716  0.2832 -0.1635
    5CHTO   H68 1960   5.018   2.597   3.824 -2.6367  0.7438  0.0564
    5CHTO   C39 1961   4.753   2.527   3.784 -0.3891  0.7773  0.0779
    5CHTO   H81 1962   4.761   2.452   3.862 -2.2146 -0.3831 -0.8232
    5CHTO    N7 1963   4.723   2.656   3.859 -0.4087 -0.3947 -0.3589
    5CHTO   H73 1964   4.807   2.705   3.906 -1.8079  0.2385  1.5302
    5CHTO   H74 1965   4.667   2.731   3.805  0.5557  2.0270  1.9377
    5CHTO   C40 1966   4.628   2.497   3.688 -0.4794  0.0722  0.6176
    5CHTO   H82 1967   4.570   2.575   3.639 -0.2420  0.1175  0.4115
    5CHTO   O26 1968   4.654   2.383   3.602  0.4851  0.2510  0.2508
    5CHTO   C41 1969   4.760   2.417   3.501  0.6538 -0.4102  0.4960
    5CHTO   H83 1970   4.746   2.519   3.464  1.1983 -0.9721 -1.2808
    5CHTO   C52 1971   4.759   2.322   3.380  0.2614  0.1461  0.2722
    5CHTO   O35 1972   4.854   2.382   3.259 -0.1038  0.3296 -0.2371
    5CHTO   H71 1973   4.940   2.410   3.284 -0.7029 -0.0344  2.2963
    5CHTO   O28 1974   4.537   2.425   3.764  0.0859  0.2172  0.6149
    5CHTO   C42 1975   4.398   2.433   3.745  0.0513  0.3880  1.0646
    5CHTO   H84 1976   4.371   2.538   3.742 -1.7212 -0.0251  2.0893
    5CHTO   C44 1977   4.321   2.377   3.872  0.0539  0.1723 -0.0981
    5CHTO   H86 1978   4.356   2.432   3.959 -0.5873 -0.9877  0.9175
    5CHTO   O32 1979   4.175   2.399   3.867  0.4404 -1.0618 -0.1614
    5CHTO   H69 1980   4.135   2.394   3.952 -0.3884 -0.9442 -0.5397
    5CHTO   C48 1981   4.340   2.224   3.895  0.0538  0.1528  0.1964
    5CHTO   H90 1982   4.247   2.183   3.935 -0.0392  0.4582  0.2915
    5CHTO    N9 1983   4.440   2.188   4.003  0.3090  0.2719  0.4424
    5CHTO   H77 1984   4.516   2.265   4.004  1.7854 -1.1277 -0.6065
    5CHTO   H78 1985   4.393   2.188   4.100 -0.2987 -2.7882  0.2089
    5CHTO   C51 1986   4.368   2.145   3.761 -0.1108  0.5913  0.4427
    5CHTO   H93 1987   4.475   2.131   3.746 -0.1500 -2.5125  2.6173
    5CHTO   O30 1988   4.304   2.206   3.648 -0.2452 -0.2522 -0.3518
    5CHTO   C46 1989   4.345   2.371   3.618  0.3347  0.1943 -0.5777
    5CHTO   H88 1990   4.418   2.379   3.538  0.5046 -0.8881 -0.5306
    5CHTO   C53 1991   4.212   2.434   3.559  1.0438 -0.2745  0.5156
    5CHTO   O72 1992   4.207   2.576   3.571 -0.1029 -0.3332 -0.1776
    5CHTO  H199 1993   4.273   2.602   3.633  0.7158 -2.0854 -0.3084
    5CHTO   O22 1994   4.316   2.012   3.759  0.7182  0.3138 -0.1603
    5CHTO   C31 1995   4.387   1.899   3.701 -0.1819 -0.1045  0.0698
    5CHTO   H59 1996   4.319   1.812   3.715 -0.0923 -0.5040 -1.7503
    5CHTO   C29 1997   4.404   1.911   3.549  0.6337 -0.6078  0.3563
    5CHTO   H57 1998   4.436   2.014   3.530  1.8588 -1.2647 -1.3038
    5CHTO   O21 1999   4.271   1.909   3.497  0.4255  0.2396 -0.1836
    5CHTO   H37 2000   4.227   1.830   3.520 -0.8894  0.5482 -1.5959
    5CHTO   C27 2001   4.511   1.816   3.483 -0.4405 -0.0964 -0.1777
    5CHTO   H55 2002   4.472   1.714   3.469  1.7942 -0.7267 -2.2071
    5CHTO    N5 2003   4.560   1.864   3.347 -0.0425  0.1131  0.4349
    5CHTO   H43 2004   4.648   1.814   3.308 -0.0036  0.5684 -0.0714
    5CHTO   H44 2005   4.578   1.971   3.342  1.4958 -0.0783  1.5511
    5CHTO   C25 2006   4.633   1.786   3.575  0.0461  0.1578 -0.0970
    5CHTO   H53 2007   4.708   1.867   3.572  1.2308 -0.7554  2.9910
    5CHTO   O17 2008   4.584   1.754   3.710  0.5360  0.1374 -0.2887
    5CHTO   C32 2009   4.518   1.866   3.779 -0.3184  0.4065 -0.5773
    5CHTO   H60 2010   4.586   1.951   3.774  0.4833 -0.1190  1.2127
    5CHTO   C36 2011   4.489   1.825   3.926 -0.1067 -0.1319 -0.5331
    5CHTO   O25 2012   4.398   1.721   3.927  0.5089 -0.4046  0.3351
    5CHTO   H40 2013   4.358   1.709   4.011  1.6695  0.4050  1.0064
    5CHTO   O15 2014   4.717   1.651   3.517 -0.0453 -0.4685 -0.0416
    5CHTO   C19 2015   4.849   1.642   3.571 -0.6087  0.4689 -0.3269
    5CHTO   H47 2016   4.862   1.741   3.617 -0.8282  0.1764  0.3685
    5CHTO   C20 2017   4.870   1.534   3.678 -0.6056  0.4105 -0.0518
    5CHTO   H48 2018   4.842   1.435   3.639 -0.3916  0.0961  0.5880
    5CHTO   O19 2019   4.782   1.563   3.794  0.3988 -0.3629 -0.6817
    5CHTO   H35 2020   4.693   1.544   3.769  0.5936  1.1220 -2.6500
    5CHTO   C21 2021   5.022   1.520   3.737  0.1608 -0.1859  0.1670
    5CHTO   H49 2022   5.042   1.606   3.801 -0.1304  0.6618 -0.8562
    5CHTO    N4 2023   5.042   1.400   3.823  0.3300 -0.5190 -0.4021
    5CHTO   H41 2024   4.956   1.394   3.888  1.8755 -1.2600  1.6684
    5CHTO   H42 2025   5.041   1.313   3.759  1.6328  0.4423 -1.7627
    5CHTO   C22 2026   5.124   1.532   3.628  0.6170 -0.0788  0.0629
    5CHTO   H50 2027   5.131   1.435   3.579 -0.5234 -0.1057 -0.0444
    5CHTO   O14 2028   5.089   1.637   3.531  0.5845  0.0083 -0.0270
    5CHTO   C23 2029   4.961   1.628   3.466 -0.3148  0.3130  0.5665
    5CHTO   H51 2030   4.955   1.532   3.414  0.8058  1.1446 -1.1240
    5CHTO   C34 2031   4.946   1.744   3.364  0.5663  0.2152 -0.0099
    5CHTO   O23 2032   5.014   1.726   3.240  0.3171  0.0177 -0.0989
    5CHTO   H38 2033   5.053   1.640   3.235 -2.2995 -1.4273  2.8715
    5CHTO   O16 2034   5.252   1.577   3.679  0.0860 -0.7683 -0.1835
    5CHTO   C24 2035   5.370   1.521   3.582  0.5166  0.3951 -0.1506
    5CHTO   H52 2036   5.333   1.501   3.482 -0.8722 -0.4798  0.5228
    5CHTO   C26 2037   5.432   1.394   3.650 -0.2364  0.1126 -0.3413
    5CHTO   H54 2038   5.457   1.414   3.756 -0.1807 -1.0492 -0.1202
    5CHTO   O20 2039   5.336   1.289   3.639  0.0108  0.3069 -0.6105
    5CHTO   H36 2040   5.308   1.265   3.725 -0.0601  0.9797 -0.4498
    5CHTO   C30 2041   5.569   1.349   3.579 -0.2121 -0.5070 -0.2582
    5CHTO   H58 2042   5.544   1.321   3.476 -3.1659  0.3018  0.2007
    5CHTO    N6 2043   5.639   1.230   3.639  0.7710 -0.4693  0.0158
    5CHTO   H45 2044   5.662   1.163   3.557 -1.7754  0.4133 -1.4806
    5CHTO   H46 2045   5.729   1.256   3.692  0.3565  1.0041  0.0290
    5CHTO   C33 2046   5.661   1.479   3.577  0.1939  0.4745 -0.5854
    5CHTO   H61 2047   5.678   1.502   3.683  0.3518 -0.3358 -0.4342
    5CHTO   O18 2048   5.599   1.593   3.514  0.3379  0.1426  0.4510
    5CHTO   C28 2049   5.476   1.635   3.569 -0.0755  0.5898 -0.4549
    5CHTO   H56 2050   5.489   1.681   3.667 -1.1460  0.7027 -0.3645
    5CHTO   C35 2051   5.427   1.737   3.476  0.9945 -0.1974  0.1882
    5CHTO   O24 2052   5.318   1.816   3.530 -0.8054 -0.4217 -0.0493
    5CHTO   H39 2053   5.362   1.882   3.578 -0.5484  0.0025 -0.8508
    5CHTO    O9 2054   5.791   1.455   3.518 -0.4673  0.7195  0.4724
    5CHTO   C13 2055   5.777   1.417   3.359  0.1055  0.4119 -0.4513
    5CHTO   H26 2056   5.677   1.375   3.334  1.8782 -3.1354 -1.8153
    5CHTO   C11 2057   5.891   1.316   3.318  0.3659 -0.6852 -0.2430
    5CHTO   H24 2058   5.884   1.232   3.389  2.5911 -1.8645 -1.3512
    5CHTO    O8 2059   6.024   1.375   3.335 -0.8655 -0.9157 -0.4807
    5CHTO    H3 2060   6.096   1.324   3.301 -1.0365  0.0797 -2.3990
    5CHTO    C9 2061   5.865   1.279   3.168  0.2397 -0.2984 -0.5736
    5CHTO   H22 2062   5.763   1.236   3.166 -1.3741  3.3335 -0.9435
    5CHTO    N2 2063   5.955   1.175   3.113 -0.6704 -0.2433 -0.1107
    5CHTO   H10 2064   5.965   1.098   3.189 -0.9284 -0.9662 -0.7961
    5CHTO   H11 2065   5.895   1.133   3.033 -0.7048  0.6714 -0.5769
    5CHTO    C7 2066   5.856   1.413   3.076 -0.3827 -0.5806  0.2832
    5CHTO   H20 2067   5.821   1.374   2.978  3.8918 -1.3065 -1.0972
    5CHTO    O4 2068   5.771   1.514   3.133  0.2289  0.5378 -0.2363
    5CHTO   C14 2069   5.769   1.543   3.270  0.4193  0.6001 -0.1633
    5CHTO   H27 2070   5.669   1.590   3.279 -0.1487 -0.2707 -1.7070
    5CHTO   C18 2071   5.874   1.645   3.317  0.0187 -0.0985 -0.1004
    5CHTO   O13 2072   5.826   1.772   3.317  0.0253 -0.1658  0.7865
    5CHTO    H7 2073   5.835   1.802   3.406 -0.0288 -2.7216  1.6948
    5CHTO    O2 2074   6.013   1.487   3.048  0.1286 -0.3179 -0.5947
    5CHTO    C1 2075   6.038   1.538   2.910  0.4414 -0.0012  0.0463
    5CHTO   H14 2076   5.943   1.540   2.854  0.1539 -2.7812  0.3653
    5CHTO    C2 2077   6.136   1.442   2.832  0.4998 -0.8607  0.4105
    5CHTO   H15 2078   6.215   1.423   2.905  1.3186 -2.4375 -0.8467
    5CHTO    O6 2079   6.075   1.316   2.798  0.9395  0.2722  0.2445
    5CHTO    H1 2080   6.134   1.253   2.761  1.9608  0.2691  1.8339
    5CHTO    C3 2081   6.194   1.507   2.700 -0.1983 -0.3843  0.0828
    5CHTO   H16 2082   6.101   1.519   2.642 -2.0500 -0.1005  3.0261
    5CHTO    N1 2083   6.300   1.421   2.635 -0.0618 -0.1823  0.4425
    5CHTO    H8 2084   6.279   1.387   2.535  0.4989  0.4431  0.1021
    5CHTO    H9 2085   6.394   1.475   2.630  0.4365 -1.0077  0.7275
    5CHTO    C4 2086   6.244   1.648   2.733 -0.4544  0.3104  0.8872
    5CHTO   H17 2087   6.325   1.641   2.806  0.1162 -0.3093  0.2021
    5CHTO    O1 2088   6.135   1.734   2.781 -0.2165 -0.3635  0.4235
    5CHTO    C5 2089   6.090   1.687   2.910 -0.4339  0.0469 -0.0483
    5CHTO   H18 2090   6.176   1.686   2.976 -0.1099 -2.4958 -0.4610
    5CHTO   C16 2091   5.989   1.781   2.976 -0.0037  0.1180  0.1318
    5CHTO   O11 2092   6.030   1.922   2.978  0.4190  0.4803  0.3265
    5CHTO    H5 2093   5.965   1.966   3.030 -0.5692 -2.7253  1.9623
    5CHTO    O3 2094   6.303   1.712   2.616 -0.3607 -0.5009 -0.1257
    5CHTO    C6 2095   6.364   1.849   2.622 -0.3409  0.7491 -1.2135
    5CHTO   H19 2096   6.339   1.898   2.717  0.3814  1.8861 -1.6044
    5CHTO    C8 2097   6.518   1.844   2.586 -0.1686  0.7931 -0.4846
    5CHTO   H21 2098   6.536   1.813   2.483  1.6788  0.7004 -0.1568
    5CHTO    O7 2099   6.576   1.747   2.676  0.2413  0.0613  0.0619
    5CHTO    H2 2100   6.653   1.789   2.708 -0.1651 -0.0693  1.2570
    5CHTO   C12 2101   6.569   1.991   2.600  0.2117  0.3246  0.1893
    5CHTO   H25 2102   6.531   2.023   2.699  0.9637  1.0459  0.2539
    5CHTO    N3 2103   6.716   2.013   2.592 -0.3082 -0.5204 -0.2698
    5CHTO   H12 2104   6.730   2.037   2.488 -2.8669  3.8451  0.2682
    5CHTO   H13 2105   6.785   1.939   2.630 -0.6919 -0.4043  0.6624
    5CHTO   C15 2106   6.484   2.079   2.496  0.3388  0.3031 -0.5596
    5CHTO   H28 2107   6.535   2.058   2.401 -2.2548 -2.3958 -1.4183
    5CHTO   O10 2108   6.496   2.232   2.516 -0.4153 -0.0366  0.7706
    5CHTO    H4 2109   6.587   2.253   2.526 -0.6458  0.2647  2.3645
    5CHTO    O5 2110   6.344   2.057   2.506  0.4065  0.0223 -0.9425
    5CHTO   C10 2111   6.299   1.923   2.512 -0.0491 -0.5827  0.5660
    5CHTO   H23 2112   6.327   1.883   2.415  0.8795  1.6229 -0.1028
    5CHTO   C17 2113   6.148   1.928   2.528 -1.1070 -0.3033  0.1800
    5CHTO   O12 2114   6.086   1.977   2.404 -0.5614  0.0619 -0.2798
    5CHTO    H6 2115   6.130   2.052   2.369  0.2679 -1.5105 -2.6876
    6CHTO  H203 2116   3.907   3.939   0.431 -0.2786  1.0842  0.8801
    6CHTO   O82 2117   3.994   3.935   0.464 -0.0903 -0.1826  0.2560
    6CHTO  C123 2118   4.024   3.832   0.562 -0.7275 -0.5539  0.1156
    6CHTO  H227 2119   4.010   3.733   0.515 -0.1928 -1.0352  0.9699
    6CHTO   O77 2120   4.153   3.851   0.593  0.0609  0.8477 -0.6020
    6CHTO  C118 2121   4.207   3.751   0.682 -0.6212  0.5101 -0.4977
    6CHTO  H222 2122   4.184   3.650   0.646  0.6902 -0.1196  0.4023
    6CHTO  C125 2123   4.362   3.768   0.688 -0.0901 -0.5194  0.1084
    6CHTO   O84 2124   4.430   3.898   0.674 -0.2259 -0.2929 -0.4380
    6CHTO  H205 2125   4.406   3.948   0.598 -3.1784 -0.3108  0.4229
    6CHTO  C114 2126   4.141   3.772   0.820  0.1205  0.3322 -0.3145
    6CHTO  H218 2127   4.146   3.877   0.849  3.4754 -0.3893  2.0648
    6CHTO  C116 2128   3.987   3.758   0.801 -0.2541  0.7885 -0.5437
    6CHTO  H220 2129   3.962   3.652   0.777  0.4402 -0.0182  2.1004
    6CHTO   O79 2130   3.924   3.779   0.928  0.3196 -0.2642  0.2700
    6CHTO  H201 2131   3.955   3.863   0.956 -1.9315  1.2980 -1.6682
    6CHTO  C120 2132   3.933   3.851   0.688  0.7311 -0.2996  0.0048
    6CHTO  H224 2133   3.951   3.957   0.715 -1.1688  0.4088 -1.3978
    6CHTO   N21 2134   3.787   3.831   0.662 -0.2016 -0.1608  0.8191
    6CHTO  H211 2135   3.762   3.848   0.558  1.4752 -1.3249  0.2153
    6CHTO  H212 2136   3.733   3.912   0.709 -2.1124  0.3949 -2.1625
    6CHTO   O75 2137   4.212   3.681   0.910  0.4180 -0.0496 -0.6719
    6CHTO  C112 2138   4.239   3.751   1.061  0.2453  0.2720  1.0529
    6CHTO  H216 2139   4.137   3.774   1.096  0.5042  2.0827  0.6407
    6CHTO   O73 2140   4.318   3.867   1.047  0.1550 -0.5125  0.2616
    6CHTO  C113 2141   4.341   3.943   1.164  0.1701  0.0075 -0.1356
    6CHTO  H217 2142   4.238   3.962   1.200 -0.5578 -2.0966 -0.9674
    6CHTO  C124 2143   4.405   4.077   1.147 -0.0288 -0.0893 -0.3209
    6CHTO   O83 2144   4.322   4.146   1.050  0.0682 -0.6285  0.0374
    6CHTO  H204 2145   4.361   4.226   1.018 -1.1289 -0.5450 -1.2717
    6CHTO  C109 2146   4.427   3.857   1.264 -0.2026  0.3098 -0.0825
    6CHTO  H213 2147   4.522   3.837   1.213 -0.3955 -1.9401  0.4110
    6CHTO  C110 2148   4.347   3.722   1.290  0.1220 -0.8309 -0.3035
    6CHTO  H214 2149   4.255   3.747   1.341  1.6088  0.5713  1.7866
    6CHTO   O78 2150   4.424   3.653   1.386 -0.1111 -0.1770  0.4099
    6CHTO  H200 2151   4.377   3.611   1.455  1.5044 -1.8818  0.5443
    6CHTO  C111 2152   4.310   3.644   1.156  0.3301 -0.0016  0.0155
    6CHTO  H215 2153   4.403   3.627   1.100  0.2536  1.0466 -0.4494
    6CHTO   N19 2154   4.240   3.516   1.176  0.2722  0.3872 -0.1291
    6CHTO  H207 2155   4.159   3.530   1.245 -0.4356 -0.6251 -0.7385
    6CHTO  H208 2156   4.294   3.431   1.216  0.6440  0.6138 -0.1464
    6CHTO   O74 2157   4.447   3.926   1.394 -0.3541 -0.4403  0.6037
    6CHTO  C115 2158   4.593   3.931   1.440  0.0280  0.5385  0.0827
    6CHTO  H219 2159   4.654   3.862   1.383 -1.9586 -0.5094 -0.8384
    6CHTO   O76 2160   4.657   4.070   1.418 -0.2079  0.4118  0.2138
    6CHTO  C122 2161   4.569   4.171   1.471  0.6330 -0.0018  0.5681
    6CHTO  H226 2162   4.467   4.163   1.434  1.0546  0.4772 -0.7508
    6CHTO  C126 2163   4.618   4.304   1.434  0.2834 -0.5399  0.2325
    6CHTO   O85 2164   4.593   4.334   1.296 -0.0275  0.3029  0.1745
    6CHTO  H206 2165   4.627   4.420   1.279 -0.6868  0.7146  0.9004
    6CHTO  C121 2166   4.565   4.147   1.628  0.6451  0.3839  1.0125
    6CHTO  H225 2167   4.612   4.237   1.674  0.2632  1.2929 -0.3454
    6CHTO   O81 2168   4.426   4.155   1.671 -0.4396 -0.1267  0.4941
    6CHTO  H202 2169   4.408   4.096   1.742  1.0795  0.9048  1.7522
    6CHTO  C119 2170   4.637   4.017   1.671  0.3287 -0.5069  0.0659
    6CHTO  H223 2171   4.744   4.032   1.654 -0.0018  2.3528  0.3830
    6CHTO  C117 2172   4.587   3.886   1.593 -0.4593 -0.0895 -0.2160
    6CHTO  H221 2173   4.482   3.858   1.608 -1.0229  0.5983 -2.5883
    6CHTO   N20 2174   4.664   3.761   1.613 -0.0827 -0.5478 -0.0281
    6CHTO  H209 2175   4.764   3.771   1.574  0.4924  1.7494  1.9006
    6CHTO  H210 2176   4.618   3.676   1.565 -0.9365  0.3129 -0.7456
    6CHTO   O80 2177   4.631   4.013   1.823  0.2055  0.3392  0.4965
    6CHTO  C103 2178   4.754   3.955   1.900 -0.6416  0.0944 -0.2523
    6CHTO  H190 2179   4.797   3.868   1.851  1.8213 -0.7499  3.2530
    6CHTO  C101 2180   4.859   4.066   1.932 -0.1286 -0.1622 -0.7094
    6CHTO  H188 2181   4.797   4.146   1.972  0.0381  0.2429 -1.2642
    6CHTO   O68 2182   4.911   4.102   1.807  0.0621  0.1591 -0.8265
    6CHTO  H168 2183   4.950   4.186   1.820  1.4734 -0.5174 -0.6766
    6CHTO   C99 2184   4.958   4.017   2.047 -0.4788 -0.8254  0.3636
    6CHTO  H186 2185   5.008   3.927   2.005 -0.7548 -0.5620 -0.5444
    6CHTO   N17 2186   5.063   4.115   2.082 -0.3608  0.5868 -0.6280
    6CHTO  H174 2187   5.060   4.188   2.002  0.9612  0.1972 -1.0489
    6CHTO  H175 2188   5.160   4.070   2.097 -0.1948  0.9277 -0.6818
    6CHTO   C97 2189   4.879   3.968   2.165 -0.5409  0.5715 -0.0861
    6CHTO  H184 2190   4.820   4.051   2.207 -0.8025  0.5223 -0.3541
    6CHTO   O64 2191   4.795   3.856   2.123 -0.7120  0.3422  0.1933
    6CHTO  C104 2192   4.690   3.901   2.035  0.2950 -0.1333  0.0375
    6CHTO  H191 2193   4.635   3.978   2.088 -0.5461  0.7746 -2.1100
    6CHTO  C108 2194   4.590   3.785   2.008  0.9255 -0.6095 -0.0345
    6CHTO   O71 2195   4.655   3.656   2.001  0.2013  0.1740 -0.1285
    6CHTO  H171 2196   4.587   3.592   1.995  0.3043 -0.0810  1.3504
    6CHTO   O62 2197   4.959   3.902   2.268 -0.0039  0.2253 -0.7689
    6CHTO   C91 2198   4.906   3.912   2.405 -0.0630 -0.2248 -0.6869
    6CHTO  H178 2199   4.924   4.014   2.440  1.0259 -0.7215  0.2055
    6CHTO   C92 2200   4.997   3.808   2.486  0.1863 -0.3023  0.0640
    6CHTO  H179 2201   5.100   3.844   2.479  0.2337 -0.7930 -1.9680
    6CHTO   O66 2202   4.969   3.805   2.629  0.1909 -0.7667 -0.1704
    6CHTO  H166 2203   4.990   3.889   2.664 -0.3179 -0.9208  0.5025
    6CHTO   C93 2204   4.972   3.658   2.440 -1.1599  0.0855 -0.0541
    6CHTO  H180 2205   4.991   3.596   2.529  1.1953  1.2995  0.3166
    6CHTO   N16 2206   5.066   3.614   2.333  0.5486 -0.3977 -0.7873
    6CHTO  H172 2207   5.040   3.519   2.289  1.3373 -0.7912 -0.4099
    6CHTO  H173 2208   5.171   3.611   2.358  0.2842  1.4978  0.6313
    6CHTO   C94 2209   4.824   3.642   2.399  0.3015  0.1926  0.0588
    6CHTO  H181 2210   4.812   3.654   2.292  0.4368 -1.7050 -0.1957
    6CHTO   O61 2211   4.737   3.741   2.461  0.2398  0.5153 -0.0879
    6CHTO   C95 2212   4.749   3.881   2.424 -0.3383  1.0203  0.4341
    6CHTO  H182 2213   4.692   3.907   2.335 -2.1999 -3.7836  0.0706
    6CHTO  C106 2214   4.699   3.964   2.549  0.0571  0.7119  0.1567
    6CHTO   O69 2215   4.557   3.952   2.575  0.4241  0.2106 -0.4954
    6CHTO  H169 2216   4.533   3.879   2.629 -0.2248 -0.1963 -1.3308
    6CHTO   O63 2217   4.769   3.498   2.445  0.1443 -0.2363 -0.5925
    6CHTO   C96 2218   4.672   3.416   2.350  0.4539 -0.1009 -0.1768
    6CHTO  H183 2219   4.647   3.469   2.258 -0.0280  0.0766  0.0584
    6CHTO   C98 2220   4.538   3.379   2.416 -0.0853  0.2925  0.3488
    6CHTO  H185 2221   4.557   3.330   2.512  1.8497 -0.3830 -0.3521
    6CHTO   O67 2222   4.480   3.502   2.449 -0.1972  0.3615  0.2134
    6CHTO  H167 2223   4.422   3.490   2.522 -1.6937  2.9830 -0.5044
    6CHTO  C102 2224   4.447   3.291   2.312 -0.7061 -0.0809  0.2267
    6CHTO  H189 2225   4.413   3.365   2.239  2.0300 -0.5977 -1.6541
    6CHTO   N18 2226   4.316   3.236   2.370  0.0459  0.8583 -0.3315
    6CHTO  H176 2227   4.332   3.164   2.448 -0.5643 -0.3923 -1.3289
    6CHTO  H177 2228   4.258   3.317   2.412 -1.4111  0.0898 -0.8261
    6CHTO  C105 2229   4.520   3.186   2.222  0.8672  0.0164 -0.1092
    6CHTO  H192 2230   4.528   3.089   2.271 -2.1422 -1.0150 -1.5234
    6CHTO   O65 2231   4.647   3.241   2.173 -0.8427 -0.3923  0.0012
    6CHTO  C100 2232   4.736   3.278   2.287 -0.2490  0.1326 -0.3595
    6CHTO  H187 2233   4.719   3.200   2.362  0.2519  0.4959  0.1369
    6CHTO  C107 2234   4.876   3.283   2.232  0.4060  0.5067 -0.4391
    6CHTO   O70 2235   4.983   3.254   2.312  0.2843 -0.2752  0.4270
    6CHTO  H170 2236   4.997   3.161   2.321  0.4668 -0.8092 -4.0604
    6CHTO   O57 2237   4.442   3.164   2.104 -0.5159  0.8645  0.3102
    6CHTO   C85 2238   4.459   3.058   2.009 -0.9264 -0.4008  0.5023
    6CHTO  H157 2239   4.501   2.971   2.063 -0.1410 -0.2935  0.0628
    6CHTO   C83 2240   4.565   3.092   1.902  0.0272 -0.2902 -0.4248
    6CHTO  H155 2241   4.657   3.097   1.960  1.2492 -3.9741 -1.8493
    6CHTO   O56 2242   4.547   3.230   1.864  0.2657 -0.2021  0.3409
    6CHTO  H135 2243   4.626   3.274   1.839  0.5893 -0.6703  0.5300
    6CHTO   C81 2244   4.581   2.995   1.782 -0.1705  0.3597  0.7926
    6CHTO  H153 2245   4.612   2.901   1.828  0.2881 -0.5517 -1.3021
    6CHTO   N14 2246   4.688   3.029   1.681  0.7034 -0.1088  0.3828
    6CHTO  H141 2247   4.719   2.942   1.627 -1.0184  0.5555 -1.7258
    6CHTO  H142 2248   4.652   3.101   1.612  0.8139 -1.4735 -1.1268
    6CHTO   C79 2249   4.440   2.970   1.715  0.4937 -0.3709  0.2537
    6CHTO  H151 2250   4.453   2.896   1.637 -0.7670  0.1296 -0.4434
    6CHTO   O52 2251   4.341   2.932   1.817  0.2346 -0.3294  0.3000
    6CHTO   C86 2252   4.326   3.024   1.938 -0.4790  0.2698  0.2432
    6CHTO  H158 2253   4.282   3.120   1.903  0.5420  0.6205 -0.0873
    6CHTO   C90 2254   4.223   2.960   2.029  0.0619  0.2128  0.1553
    6CHTO   O60 2255   4.103   2.916   1.957  0.2297 -0.0128 -0.0584
    6CHTO  H138 2256   4.121   2.839   1.907 -1.1569  0.0969 -0.7489
    6CHTO   O50 2257   4.400   3.091   1.658 -0.0506  0.1530 -0.4696
    6CHTO   C73 2258   4.311   3.147   1.562  0.5274 -0.0949  0.4484
    6CHTO  H145 2259   4.206   3.140   1.595 -0.0006  0.1557 -1.1240
    6CHTO   C74 2260   4.322   3.064   1.432 -0.4510 -0.0110 -0.0437
    6CHTO  H146 2261   4.295   2.963   1.464 -0.0801  0.1243  0.6973
    6CHTO   O54 2262   4.212   3.100   1.349  0.0360 -0.3133 -0.3653
    6CHTO  H133 2263   4.124   3.087   1.380 -0.2777 -0.2353 -1.2072
    6CHTO   C75 2264   4.464   3.073   1.375 -1.3321  0.2098  0.3003
    6CHTO  H147 2265   4.531   3.041   1.456  0.4377  3.4887  0.2398
    6CHTO   N13 2266   4.485   3.001   1.254 -0.1797 -0.3931 -0.1047
    6CHTO  H139 2267   4.580   3.020   1.207 -0.9502 -0.3543 -1.6645
    6CHTO  H140 2268   4.409   3.028   1.183  1.8364 -0.2131 -2.2500
    6CHTO   C76 2269   4.504   3.228   1.355  0.1219 -0.9854 -0.4408
    6CHTO  H148 2270   4.430   3.260   1.282  0.4508 -0.6253 -0.6207
    6CHTO   O49 2271   4.493   3.296   1.480  0.3157  0.2132 -0.2299
    6CHTO   C77 2272   4.357   3.299   1.525  0.1443 -0.2513  0.2504
    6CHTO  H149 2273   4.294   3.342   1.447  1.3364  0.2429 -0.4541
    6CHTO   C88 2274   4.332   3.391   1.644  0.2454  0.1726  0.2811
    6CHTO   O58 2275   4.417   3.531   1.628 -0.2257 -0.0773 -0.3131
    6CHTO  H136 2276   4.486   3.525   1.691 -0.0358  2.3894 -0.2529
    6CHTO   O51 2277   4.659   3.251   1.312 -0.1559  0.1409  0.2332
    6CHTO   C78 2278   4.724   3.412   1.331 -0.5576 -0.0029  0.2919
    6CHTO  H150 2279   4.658   3.474   1.394  1.8571  1.5073  1.4171
    6CHTO   C80 2280   4.730   3.476   1.189  0.0438  0.1905 -0.4091
    6CHTO  H152 2281   4.795   3.414   1.125 -0.5388  1.4377 -2.2434
    6CHTO   O55 2282   4.591   3.460   1.147 -0.3316 -0.1734  0.1190
    6CHTO  H134 2283   4.579   3.508   1.067  1.5383  1.1602  0.5784
    6CHTO   C84 2284   4.784   3.620   1.200 -0.3715 -0.1351 -0.1741
    6CHTO  H156 2285   4.711   3.682   1.252 -1.1340 -0.8038 -0.4376
    6CHTO   N15 2286   4.811   3.675   1.060  0.4642  0.0450 -0.6830
    6CHTO  H143 2287   4.848   3.592   1.002  2.4472  0.5692 -0.1924
    6CHTO  H144 2288   4.734   3.719   1.000  1.0998 -0.6094 -2.0193
    6CHTO   C87 2289   4.914   3.623   1.288  0.7290 -0.1708 -0.1877
    6CHTO  H159 2290   5.002   3.597   1.231  0.1751 -0.7730 -0.7745
    6CHTO   O53 2291   4.914   3.541   1.421  1.2479  0.6122 -0.2831
    6CHTO   C82 2292   4.860   3.412   1.410 -0.4543 -0.1566  0.0984
    6CHTO  H154 2293   4.932   3.351   1.355 -0.2642  0.9164 -0.8654
    6CHTO   C89 2294   4.861   3.357   1.555 -0.4479 -0.4499 -0.3374
    6CHTO   O59 2295   4.765   3.410   1.645 -0.1976 -0.1831  0.3220
    6CHTO  H137 2296   4.801   3.396   1.731  0.3599 -0.0609  0.1142
    6CHTO   O45 2297   4.943   3.768   1.336  0.0734 -1.0515  0.8720
    6CHTO   C67 2298   5.073   3.818   1.295 -0.2000 -0.3920 -0.2868
    6CHTO  H124 2299   5.092   3.796   1.190  0.7794 -0.0232 -0.1952
    6CHTO   C65 2300   5.075   3.973   1.330  0.1499  0.2627  0.7815
    6CHTO  H122 2301   4.985   4.011   1.283  1.1273 -2.2197 -3.3028
    6CHTO   O44 2302   5.185   4.026   1.257 -0.0091 -0.8274  0.0515
    6CHTO  H102 2303   5.164   4.110   1.221 -0.5772 -0.4398  1.2535
    6CHTO   C63 2304   5.067   3.991   1.486 -1.1480 -0.1467  0.7310
    6CHTO  H120 2305   4.980   3.935   1.521 -0.2649 -1.0170  1.5472
    6CHTO   N11 2306   5.032   4.129   1.534 -0.4672 -0.5226 -0.0750
    6CHTO  H108 2307   5.046   4.134   1.640  0.4315  1.9765 -0.2598
    6CHTO  H109 2308   4.931   4.140   1.501  1.0589  1.7032 -4.4196
    6CHTO   C61 2309   5.192   3.922   1.546  0.2416 -0.3838 -0.3997
    6CHTO  H118 2310   5.177   3.925   1.655 -0.1963 -2.6431 -0.3618
    6CHTO   O40 2311   5.192   3.780   1.515  0.2515 -0.2822  0.0208
    6CHTO   C68 2312   5.186   3.733   1.374 -1.2197  0.2445 -0.0747
    6CHTO  H125 2313   5.161   3.625   1.371 -2.3347  0.4667  0.8373
    6CHTO   C72 2314   5.322   3.748   1.305  0.5236  0.6114 -0.3460
    6CHTO   O48 2315   5.431   3.668   1.350  0.0017  0.6374  0.6865
    6CHTO  H105 2316   5.420   3.626   1.433  2.3899 -1.0593  0.2079
    6CHTO   O38 2317   5.308   3.986   1.494  0.5025 -0.8109 -0.4570
    6CHTO   C55 2318   5.393   4.054   1.582 -0.3881  0.0917 -0.0141
    6CHTO  H112 2319   5.350   4.070   1.682  2.0845  0.8715  0.9622
    6CHTO   C56 2320   5.440   4.191   1.509 -0.1824 -0.4179 -0.1118
    6CHTO  H113 2321   5.495   4.163   1.417  4.0292  0.2716  2.0392
    6CHTO   O42 2322   5.324   4.268   1.483  0.0770  0.1411 -0.0037
    6CHTO  H100 2323   5.346   4.351   1.446  0.6101  0.7761  1.7132
    6CHTO   C57 2324   5.540   4.268   1.604 -0.4855 -0.0571  0.0201
    6CHTO  H114 2325   5.482   4.300   1.690 -0.4668 -1.9367  0.7650
    6CHTO   N10 2326   5.599   4.385   1.536  0.0675 -0.6164  0.4120
    6CHTO  H106 2327   5.690   4.372   1.479 -0.6725 -0.7148 -0.7670
    6CHTO  H107 2328   5.620   4.453   1.618 -0.6316 -0.6958  0.6596
    6CHTO   C58 2329   5.653   4.174   1.651  0.1900  0.2203  0.4979
    6CHTO  H115 2330   5.724   4.151   1.568 -0.2667 -0.8584  0.3870
    6CHTO   O37 2331   5.605   4.050   1.707 -0.2338  0.2701  0.4540
    6CHTO   C59 2332   5.512   3.971   1.623 -0.1406 -0.0627 -0.2818
    6CHTO  H116 2333   5.562   3.931   1.535 -0.9622  0.0963 -0.8272
    6CHTO   C70 2334   5.471   3.855   1.712 -0.0328 -0.5006  0.0597
    6CHTO   O46 2335   5.575   3.758   1.742  0.4996 -0.4731  0.3064
    6CHTO  H103 2336   5.532   3.697   1.798 -1.4886 -0.8317 -1.5177
    6CHTO   O39 2337   5.739   4.245   1.767  0.1894 -0.6297  0.3167
    6CHTO   C60 2338   5.881   4.236   1.750 -0.4891  0.5154  1.1862
    6CHTO  H117 2339   5.903   4.166   1.670 -0.3986  0.0971  1.5753
    6CHTO   C62 2340   5.946   4.369   1.696  0.2016 -0.1543 -0.4874
    6CHTO  H119 2341   5.891   4.386   1.601  1.1127 -1.1098 -1.2041
    6CHTO   O43 2342   5.933   4.469   1.801  0.2938 -0.2431  0.2320
    6CHTO  H101 2343   5.841   4.487   1.801  0.3681  0.2304  1.6945
    6CHTO   C66 2344   6.104   4.333   1.653  0.2654  0.0757  0.3421
    6CHTO  H123 2345   6.106   4.250   1.583 -0.2004 -0.0175  0.4382
    6CHTO   N12 2346   6.160   4.453   1.574  0.7852  0.5556  0.0445
    6CHTO  H110 2347   6.148   4.535   1.643  0.7505 -0.1385  0.8640
    6CHTO  H111 2348   6.261   4.439   1.538  0.2217 -3.2419 -0.3210
    6CHTO   C69 2349   6.185   4.303   1.783 -0.8843  0.2043 -0.2223
    6CHTO  H126 2350   6.177   4.390   1.851  1.3130  0.6161 -0.4642
    6CHTO   O41 2351   6.114   4.158   1.840  0.6734 -0.4228 -0.4666
    6CHTO   C64 2352   5.962   4.178   1.877  0.6835 -0.0997 -0.0030
    6CHTO  H121 2353   5.948   4.249   1.961  2.4453  3.0759 -2.2882
    6CHTO   C71 2354   5.908   4.042   1.920  0.9953  0.4320 -0.0406
    6CHTO   O47 2355   5.910   3.953   1.808  0.2359 -0.0170 -0.0278
    6CHTO  H104 2356   5.880   3.866   1.829 -0.7330  0.7980  2.0520
    6CHTO   O34 2357   6.342   4.287   1.759  0.1138  0.0172  0.5096
    6CHTO   C49 2358   6.448   4.418   1.793 -0.1661 -0.0816 -0.5077
    6CHTO   H91 2359   6.391   4.507   1.767  1.4215  0.1529 -3.4601
    6CHTO   C47 2360   6.570   4.391   1.698  0.6251  0.3163  0.2541
    6CHTO   H89 2361   6.643   4.475   1.704 -1.0242  1.7162  1.1469
    6CHTO   O33 2362   6.523   4.382   1.560  0.1579  0.4124 -0.4030
    6CHTO   H70 2363   6.479   4.305   1.531 -0.1957  0.2131  0.6412
    6CHTO   C45 2364   6.649   4.260   1.747 -0.2006 -0.8938 -0.2199
    6CHTO   H87 2365   6.578   4.176   1.751  0.5766 -1.5339  0.2454
    6CHTO    N8 2366   6.760   4.220   1.652  0.1427  0.5161 -0.3167
    6CHTO   H75 2367   6.794   4.312   1.607  4.1560 -1.1428 -0.8348
    6CHTO   H76 2368   6.720   4.151   1.579 -0.7858 -0.5322  1.1581
    6CHTO   C43 2369   6.695   4.283   1.900  0.2864 -0.7114  0.9343
    6CHTO   H85 2370   6.746   4.194   1.939  2.1555  0.6146  1.5688
    6CHTO   O29 2371   6.587   4.321   1.984 -0.0322 -0.3168  0.1099
    6CHTO   C50 2372   6.488   4.419   1.945  0.2396 -1.4815  0.4448
    6CHTO   H92 2373   6.398   4.405   2.007 -1.9960  4.0698 -1.2286
    6CHTO   C54 2374   6.529   4.563   1.983  0.2657 -0.2447 -0.5797
    6CHTO   O36 2375   6.528   4.583   2.126 -0.2467  0.2340  0.2892
    6CHTO   H72 2376   6.585   4.656   2.140 -0.3493  0.2154  0.8304
    6CHTO   O27 2377   6.806   4.379   1.902  0.3105  0.1750 -0.1021
    6CHTO   C37 2378   6.934   4.402   1.968 -0.4801  0.0615  0.6895
    6CHTO   H79 2379   6.981   4.304   1.983  2.1438  0.9347 -1.3682
    6CHTO   C38 2380   7.025   4.495   1.885  0.5915  0.0215  0.4130
    6CHTO   H80 2381   6.962   4.573   1.839  0.7124  0.1768  0.5091
    6CHTO   O31 2382   7.063   4.408   1.773 -0.2908  0.3931  0.0089
    6CHTO   H68 2383   7.151   4.377   1.782 -0.6914 -0.6108  0.5121
    6CHTO   C39 2384   7.150   4.554   1.963  0.7770 -0.3912 -0.0707
    6CHTO   H81 2385   7.216   4.469   1.980 -0.0447 -0.8326  1.0208
    6CHTO    N7 2386   7.247   4.641   1.888 -0.2456  0.3919 -0.1950
    6CHTO   H73 2387   7.249   4.621   1.782  0.9391  2.5775 -0.6118
    6CHTO   H74 2388   7.217   4.743   1.905 -0.1042  0.6585 -1.5449
    6CHTO   C40 2389   7.108   4.610   2.094 -0.5531  0.2694  0.1291
    6CHTO   H82 2390   7.061   4.707   2.079  2.5365  1.6798 -0.9651
    6CHTO   O26 2391   7.028   4.517   2.165 -0.3743  0.1107 -0.1363
    6CHTO   C41 2392   6.905   4.470   2.099  0.1643 -0.0017  0.4395
    6CHTO   H83 2393   6.827   4.546   2.084 -1.8297 -2.2172 -0.6326
    6CHTO   C52 2394   6.836   4.378   2.195  0.1851  0.2428 -0.1895
    6CHTO   O35 2395   6.781   4.437   2.321 -0.4041 -0.5240  0.4102
    6CHTO   H71 2396   6.791   4.529   2.331 -0.4529 -0.6198  1.3484
    6CHTO   O28 2397   7.214   4.616   2.192 -0.3722 -0.1941 -0.3298
    6CHTO   C42 2398   7.249   4.740   2.260  0.1214  0.4544 -0.2101
    6CHTO   H84 2399   7.252   4.820   2.186  0.1382  0.6854  0.0408
    6CHTO   C44 2400   7.397   4.738   2.321  0.2690  0.0908 -0.1126
    6CHTO   H86 2401   7.404   4.646   2.380 -0.8318  1.2505  1.8714
    6CHTO   O32 2402   7.483   4.736   2.202  0.4418  0.2164  0.0014
    6CHTO   H69 2403   7.493   4.814   2.151 -0.9439  0.2245 -0.2725
    6CHTO   C48 2404   7.434   4.856   2.420  0.4688 -0.1773  0.5762
    6CHTO   H90 2405   7.451   4.952   2.370 -0.3977 -0.5786 -0.5065
    6CHTO    N9 2406   7.567   4.823   2.478  0.0043  0.5759  0.2997
    6CHTO   H77 2407   7.631   4.826   2.391 -1.3751 -1.1981 -0.8142
    6CHTO   H78 2408   7.563   4.727   2.527 -0.3372  0.1896 -0.4767
    6CHTO   C51 2409   7.324   4.871   2.522  0.8838 -0.2392  0.5284
    6CHTO   H93 2410   7.307   4.785   2.586  1.0223 -0.3008  0.4818
    6CHTO   O30 2411   7.205   4.904   2.448 -0.0841 -0.3207 -0.3922
    6CHTO   C46 2412   7.143   4.786   2.369  0.1358 -0.6997 -0.3998
    6CHTO   H88 2413   7.103   4.703   2.427 -2.5381  2.9663  3.3208
    6CHTO   C53 2414   7.017   4.862   2.316  0.7207  0.4143  0.0711
    6CHTO   O72 2415   6.908   4.778   2.281  0.4927 -0.0093 -0.1430
    6CHTO  H199 2416   6.828   4.825   2.269 -0.0154 -0.8432 -0.0487
    6CHTO   O22 2417   7.356   4.981   2.607 -0.6624 -0.6646 -0.3655
    6CHTO   C31 2418   7.281   4.989   2.728  0.4825 -0.0470 -0.0606
    6CHTO   H59 2419   7.202   4.913   2.717  1.1447 -0.2200 -4.9306
    6CHTO   C29 2420   7.360   4.960   2.853 -0.0286  0.2543 -0.3137
    6CHTO   H57 2421   7.430   5.042   2.874  0.2637  0.2677 -1.3050
    6CHTO   O21 2422   7.434   4.840   2.825  0.3064  0.4066 -0.3027
    6CHTO   H37 2423   7.526   4.844   2.845 -0.1238 -0.8040  2.1072
    6CHTO   C27 2424   7.268   4.945   2.974  0.4943 -0.0086  0.1063
    6CHTO   H55 2425   7.194   4.870   2.943  0.2293  0.0815  0.5169
    6CHTO    N5 2426   7.336   4.896   3.090  0.5392  0.2597  0.7892
    6CHTO   H43 2427   7.390   4.808   3.058 -0.8035 -0.0199 -0.8155
    6CHTO   H44 2428   7.258   4.874   3.161 -1.4618  1.2584 -1.0557
    6CHTO   C25 2429   7.181   5.069   2.991  0.3634 -0.1784 -0.1312
    6CHTO   H53 2430   7.242   5.147   3.039 -1.1862  1.3487 -0.5988
    6CHTO   O17 2431   7.122   5.130   2.868  0.0330  0.0836 -0.1514
    6CHTO   C32 2432   7.207   5.126   2.746  0.4521  0.1914 -0.2795
    6CHTO   H60 2433   7.280   5.206   2.756  0.9032 -0.1665 -0.6676
    6CHTO   C36 2434   7.113   5.160   2.624 -0.4520  0.2450  0.0535
    6CHTO   O25 2435   7.014   5.064   2.604  0.0735 -0.1145 -0.0547
    6CHTO   H40 2436   6.989   5.038   2.517  1.1095 -0.4400 -0.2630
    6CHTO   O15 2437   7.072   5.043   3.103 -0.1083  0.2520  0.4657
    6CHTO   C19 2438   6.956   5.112   3.160  0.4627  0.1070 -0.7949
    6CHTO   H47 2439   6.907   5.038   3.225 -0.1913 -0.6072 -2.0868
    6CHTO   C20 2440   6.988   5.243   3.240 -0.7069  0.1718  0.4741
    6CHTO   H48 2441   7.062   5.305   3.186 -1.1284  0.6165  0.4088
    6CHTO   O19 2442   7.058   5.201   3.362 -0.2777  0.1126  0.1971
    6CHTO   H35 2443   6.991   5.173   3.421 -0.4200 -0.5632 -0.2755
    6CHTO   C21 2444   6.864   5.342   3.269 -0.0133  1.4108  0.3183
    6CHTO   H49 2445   6.791   5.284   3.326 -1.0552  1.7550 -0.6618
    6CHTO    N4 2446   6.899   5.471   3.332  0.4254 -0.4928 -0.0861
    6CHTO   H41 2447   6.811   5.504   3.385  0.4558 -0.8831  0.2109
    6CHTO   H42 2448   6.975   5.450   3.405 -1.4017  0.4447  2.1617
    6CHTO   C22 2449   6.788   5.356   3.136  0.1356  0.1911 -0.5100
    6CHTO   H50 2450   6.836   5.415   3.058 -2.7658  0.9093 -1.8314
    6CHTO   O14 2451   6.749   5.220   3.094 -0.8142 -0.0546 -0.3673
    6CHTO   C23 2452   6.855   5.147   3.044 -0.2802  0.2650 -0.9343
    6CHTO   H51 2453   6.905   5.206   2.966  0.3727  0.6175 -0.2675
    6CHTO   C34 2454   6.792   5.021   2.975  0.1901 -0.3351  0.1615
    6CHTO   O23 2455   6.894   4.939   2.912  0.3057  0.0082  0.1013
    6CHTO   H38 2456   6.927   4.886   2.981 -1.0444  1.4593  1.8947
    6CHTO   O16 2457   6.659   5.423   3.161  0.7618  0.1847  0.2091
    6CHTO   C24 2458   6.563   5.456   3.027 -0.7165 -0.9378 -0.1766
    6CHTO   H52 2459   6.590   5.391   2.943 -1.2913 -1.3547 -0.0360
    6CHTO   C26 2460   6.570   5.610   2.993 -0.1726 -0.2594 -0.5463
    6CHTO   H54 2461   6.534   5.666   3.083  0.0399  0.0913 -0.6780
    6CHTO   O20 2462   6.709   5.645   2.972  0.5453  0.0197  0.2873
    6CHTO   H36 2463   6.726   5.701   3.045 -0.2147 -0.1350  0.5850
    6CHTO   C30 2464   6.472   5.625   2.878 -0.0842 -0.5352 -0.2972
    6CHTO   H58 2465   6.509   5.567   2.792  1.3861  2.3304 -1.6409
    6CHTO    N6 2466   6.473   5.764   2.839 -0.4412 -0.2107  0.1928
    6CHTO   H45 2467   6.399   5.777   2.762  2.6908  0.3121 -2.8705
    6CHTO   H46 2468   6.569   5.800   2.805  0.8759 -1.7700  2.1522
    6CHTO   C33 2469   6.327   5.578   2.916  0.3191  0.1317 -0.5170
    6CHTO   H61 2470   6.301   5.639   3.003 -0.5132  0.6013 -1.0929
    6CHTO   O18 2471   6.328   5.442   2.954 -0.0240 -0.2119  0.6649
    6CHTO   C28 2472   6.416   5.423   3.067  0.3791  0.1980 -0.0037
    6CHTO   H56 2473   6.385   5.480   3.155 -0.8884 -1.6712  0.7936
    6CHTO   C35 2474   6.403   5.280   3.126  0.5799  0.1830  0.7095
    6CHTO   O24 2475   6.425   5.183   3.026 -0.5397 -0.5433  0.9044
    6CHTO   H39 2476   6.346   5.150   2.989 -1.1564  0.9195  0.8920
    6CHTO    O9 2477   6.230   5.603   2.811 -0.0527  0.2860 -0.4022
    6CHTO   C13 2478   6.092   5.587   2.849 -0.8300 -0.4311 -0.4229
    6CHTO   H26 2479   6.086   5.613   2.956  0.8059  1.3767 -0.7360
    6CHTO   C11 2480   6.041   5.439   2.829 -0.4796  0.2245  0.4037
    6CHTO   H24 2481   6.100   5.364   2.883 -1.2574 -0.9790 -0.3887
    6CHTO    O8 2482   6.071   5.393   2.697  0.2891  0.1494 -0.0638
    6CHTO    H3 2483   6.006   5.332   2.668  0.3084 -0.6877  1.6015
    6CHTO    C9 2484   5.887   5.429   2.871 -0.4794 -0.1157 -0.2196
    6CHTO   H22 2485   5.887   5.448   2.979 -0.4527 -0.7106 -0.1139
    6CHTO    N2 2486   5.830   5.294   2.851 -0.1571 -0.0622  0.0061
    6CHTO   H10 2487   5.733   5.274   2.893  0.6989 -1.1504  1.4738
    6CHTO   H11 2488   5.830   5.270   2.745  0.6916 -0.6155  0.1295
    6CHTO    C7 2489   5.805   5.552   2.805 -0.5497  0.2128 -0.3249
    6CHTO   H20 2490   5.776   5.622   2.886  2.6694 -0.0739  1.1523
    6CHTO    O4 2491   5.888   5.613   2.711  0.2568  0.0219 -0.2922
    6CHTO   C14 2492   5.995   5.687   2.778 -0.5641 -0.9318 -0.4368
    6CHTO   H27 2493   5.954   5.755   2.856  0.2770 -2.0790  1.0103
    6CHTO   C18 2494   6.060   5.773   2.667 -0.2550  0.0285 -0.1782
    6CHTO   O13 2495   5.983   5.879   2.615 -0.4205 -0.3024  0.3395
    6CHTO    H7 2496   6.032   5.920   2.546  1.0157 -2.0466  0.2814
    6CHTO    O2 2497   5.676   5.504   2.724 -0.0810  0.3572 -0.6886
    6CHTO    C1 2498   5.585   5.607   2.690  0.1069  0.4831  1.2873
    6CHTO   H14 2499   5.636   5.689   2.636 -1.3794  0.7470  0.2761
    6CHTO    C2 2500   5.494   5.658   2.814 -0.1928  0.1950  0.2567
    6CHTO   H15 2501   5.473   5.568   2.874 -0.9556 -0.0980 -0.4483
    6CHTO    O6 2502   5.581   5.752   2.885  0.0664  0.1640  0.0618
    6CHTO    H1 2503   5.545   5.751   2.972 -1.6070 -0.0448 -0.6298
    6CHTO    C3 2504   5.364   5.737   2.769  0.0887  0.3341 -0.4840
    6CHTO   H16 2505   5.392   5.831   2.718 -0.1506 -0.6462 -2.4382
    6CHTO    N1 2506   5.273   5.767   2.885  0.1126 -0.2269 -0.5881
    6CHTO    H8 2507   5.315   5.763   2.985  1.6631  2.5208 -1.0858
    6CHTO    H9 2508   5.175   5.722   2.881  0.2109 -1.0797  3.7545
    6CHTO    C4 2509   5.289   5.651   2.658  0.0327  0.5778  0.2850
    6CHTO   H17 2510   5.264   5.552   2.698 -2.8062  0.6501 -1.1508
    6CHTO    O1 2511   5.381   5.632   2.545  0.0903 -0.2657 -0.4477
    6CHTO    C5 2512   5.493   5.541   2.581  0.5072  0.7222 -0.0519
    6CHTO   H18 2513   5.446   5.455   2.630  0.7522 -0.0596 -1.1821
    6CHTO   C16 2514   5.543   5.492   2.440  0.2759  0.0644  0.0244
    6CHTO   O11 2515   5.661   5.410   2.456  0.2701  0.2286  0.6830
    6CHTO    H5 2516   5.639   5.325   2.488  0.1896  0.1424  0.3952
    6CHTO    O3 2517   5.177   5.722   2.594  1.2108 -0.3365  0.5878
    6CHTO    C6 2518   5.047   5.640   2.580  0.5927  0.2073  0.5874
    6CHTO   H19 2519   5.072   5.539   2.550  1.1439  0.3327  0.6180
    6CHTO    C8 2520   4.975   5.633   2.716  0.2742  0.1226  0.1544
    6CHTO   H21 2521   4.973   5.735   2.756 -0.6676  0.3802 -0.5246
    6CHTO    O7 2522   5.043   5.547   2.806 -0.1856 -0.1618 -0.1671
    6CHTO    H2 2523   4.990   5.512   2.875 -0.0013 -0.8933 -0.3983
    6CHTO   C12 2524   4.819   5.582   2.698  0.1203 -0.2031  0.9484
    6CHTO   H25 2525   4.814   5.474   2.673  1.1414  0.1980 -1.0580
    6CHTO    N3 2526   4.748   5.593   2.831 -0.1597 -0.4755  0.1520
    6CHTO   H12 2527   4.820   5.606   2.911  0.0471  2.1232 -0.4245
    6CHTO   H13 2528   4.673   5.671   2.832 -1.4407 -1.6624 -0.9444
    6CHTO   C15 2529   4.752   5.661   2.584 -0.4457 -0.9751  0.4639
    6CHTO   H28 2530   4.728   5.765   2.601  0.7881 -0.1448 -2.5011
    6CHTO   O10 2531   4.616   5.591   2.526 -0.7729  0.5919 -0.3783
    6CHTO    H4 2532   4.573   5.644   2.462  1.4905  1.4754 -1.2111
    6CHTO    O5 2533   4.830   5.650   2.466  0.3483  0.1678  0.1418
    6CHTO   C10 2534   4.963   5.702   2.463  0.3544 -0.7161  0.0036
    6CHTO   H23 2535   4.969   5.810   2.477  0.4600 -1.0323  2.5916
    6CHTO   C17 2536   5.047   5.672   2.338 -0.2200 -0.5026  0.3079
    6CHTO   O12 2537   4.974   5.654   2.220  0.4247 -0.2978  0.0677
    6CHTO    H6 2538   5.023   5.649   2.140 -0.0522 -0.1964 -0.2305
    7CHTO  H203 2539   4.073   0.860   0.347 -0.7689  1.4233 -0.0829
    7CHTO   O82 2540   4.149   0.907   0.377 -0.2268  0.5807 -0.1134
    7CHTO  C123 2541   4.231   0.959   0.275  0.2498  0.2446  0.0561
    7CHTO  H227 2542   4.166   1.004   0.199  0.1019  0.6694  0.4313
    7CHTO   O77 2543   4.316   1.054   0.351  0.0496 -0.2577  0.5556
    7CHTO  C118 2544   4.406   1.134   0.276 -0.1982 -0.2878  0.2773
    7CHTO  H222 2545   4.346   1.201   0.213 -0.2900 -0.6535 -0.0213
    7CHTO  C125 2546   4.481   1.221   0.387  0.2172 -0.3092  0.8399
    7CHTO   O84 2547   4.573   1.321   0.336 -0.1676 -0.3419 -0.2722
    7CHTO  H205 2548   4.563   1.339   0.245  0.5878 -4.1172 -1.1801
    7CHTO  C114 2549   4.493   1.042   0.195 -0.4927 -0.5233  0.1562
    7CHTO  H218 2550   4.558   0.991   0.265  0.5009 -2.1700 -1.9076
    7CHTO  C116 2551   4.421   0.924   0.120 -0.4162  0.6862  0.6643
    7CHTO  H220 2552   4.360   0.960   0.034 -1.1352  0.9621  1.2806
    7CHTO   O79 2553   4.520   0.833   0.066 -0.3267 -0.7501 -0.0210
    7CHTO  H201 2554   4.599   0.879   0.044 -0.5325 -0.5805 -0.4021
    7CHTO  C120 2555   4.328   0.851   0.217 -0.3303  0.5131 -0.0236
    7CHTO  H224 2556   4.390   0.818   0.303 -1.0944 -0.8630  0.0063
    7CHTO   N21 2557   4.267   0.722   0.169 -0.4267 -0.6661 -0.2533
    7CHTO  H211 2558   4.337   0.640   0.176 -0.6395 -0.7894  0.4508
    7CHTO  H212 2559   4.172   0.691   0.209 -1.8129  0.4685 -2.5911
    7CHTO   O75 2560   4.558   1.129   0.103  0.5942  0.1887 -0.7824
    7CHTO  C112 2561   4.731   1.119   0.110  0.1579  0.1758 -0.4202
    7CHTO  H216 2562   4.766   1.020   0.145  0.9144  0.6823  0.2754
    7CHTO   O73 2563   4.781   1.228   0.197 -0.9988  0.1505 -0.3489
    7CHTO  C113 2564   4.924   1.246   0.204 -0.6286 -0.2953 -0.7144
    7CHTO  H217 2565   4.966   1.149   0.238 -0.0268 -0.5338 -2.1079
    7CHTO  C124 2566   4.964   1.350   0.309 -0.1176  0.8673 -0.2750
    7CHTO   O83 2567   4.888   1.473   0.288 -0.3000 -0.0374 -0.5356
    7CHTO  H204 2568   4.796   1.462   0.280 -0.7980  2.6034  0.7585
    7CHTO  C109 2569   4.968   1.280   0.062  0.0696 -0.4560 -0.6934
    7CHTO  H213 2570   4.929   1.379   0.037  1.7931  0.0987 -1.2831
    7CHTO  C110 2571   4.923   1.176  -0.049 -0.0971  0.3169 -0.2446
    7CHTO  H214 2572   4.985   1.087  -0.050 -0.4865  0.0572 -2.1273
    7CHTO   O78 2573   4.952   1.234  -0.180  0.4661 -0.2869 -0.3822
    7CHTO  H200 2574   4.949   1.177  -0.254  0.4676 -1.6473  0.6307
    7CHTO  C111 2575   4.773   1.142  -0.043 -0.7012 -0.3306  0.0569
    7CHTO  H215 2576   4.720   1.226  -0.089  0.5757 -0.3472 -1.4843
    7CHTO   N19 2577   4.748   1.022  -0.130  0.0018 -0.5059  0.1050
    7CHTO  H207 2578   4.700   1.046  -0.224  0.2020 -0.4096  0.0273
    7CHTO  H208 2579   4.838   0.962  -0.139  0.9392  0.8821  0.0969
    7CHTO   O74 2580   5.116   1.292   0.070 -0.5237 -0.4305 -0.1816
    7CHTO  C115 2581   5.177   1.439   0.004 -0.1708  0.0981 -0.3314
    7CHTO  H219 2582   5.101   1.486  -0.058 -0.4641 -1.2624 -1.0343
    7CHTO   O76 2583   5.203   1.534   0.112 -0.4439 -0.3235  0.8431
    7CHTO  C122 2584   5.303   1.496   0.208 -0.3675  0.2412  0.1735
    7CHTO  H226 2585   5.272   1.405   0.258 -2.0311  0.9412  0.4462
    7CHTO  C126 2586   5.317   1.605   0.319 -0.0469 -0.3718  0.2361
    7CHTO   O85 2587   5.392   1.712   0.273  0.4289  0.3973 -0.2334
    7CHTO  H206 2588   5.349   1.749   0.199 -1.1999 -0.8815  0.0507
    7CHTO  C121 2589   5.438   1.469   0.134  0.8234  0.6911  0.4104
    7CHTO  H225 2590   5.454   1.568   0.085  0.0288  0.0562 -1.1757
    7CHTO   O81 2591   5.545   1.432   0.231  0.0788 -0.1755  0.3542
    7CHTO  H202 2592   5.566   1.501   0.290  0.2375 -0.5885  0.7861
    7CHTO  C119 2593   5.416   1.359   0.019 -0.2651 -0.2407 -0.3248
    7CHTO  H223 2594   5.509   1.354  -0.037 -0.2912 -1.4323 -0.2862
    7CHTO  C117 2595   5.302   1.407  -0.082  0.9319  0.0628 -0.3098
    7CHTO  H221 2596   5.270   1.327  -0.148  2.1494 -0.1501 -0.6637
    7CHTO   N20 2597   5.337   1.520  -0.170  0.2090  0.0139  0.1540
    7CHTO  H209 2598   5.297   1.615  -0.137  0.0928 -0.5036  1.5294
    7CHTO  H210 2599   5.444   1.524  -0.182  0.5785  1.8200  3.4152
    7CHTO   O80 2600   5.393   1.203   0.059 -0.1390  0.0890 -0.0708
    7CHTO  C103 2601   5.485   1.102   0.001  0.2253  0.7790  0.3283
    7CHTO  H190 2602   5.486   1.119  -0.107  3.5946 -0.1578  0.1647
    7CHTO  C101 2603   5.638   1.099   0.063 -0.0554 -0.3458 -0.3142
    7CHTO  H188 2604   5.627   1.109   0.171  0.2748  1.7814 -0.4737
    7CHTO   O68 2605   5.723   1.201   0.003  0.4634  0.2030  0.4564
    7CHTO  H168 2606   5.803   1.187   0.049  0.3661 -0.5334  0.4027
    7CHTO   C99 2607   5.699   0.950   0.034  0.3090 -1.0992 -0.5389
    7CHTO  H186 2608   5.717   0.943  -0.076 -0.2587  2.8783 -0.9875
    7CHTO   N17 2609   5.831   0.920   0.102  0.2069  0.6184 -0.6742
    7CHTO  H174 2610   5.909   0.955   0.036 -0.2233  0.5072 -1.2470
    7CHTO  H175 2611   5.849   0.814   0.117 -1.1406  0.6996  1.8667
    7CHTO   C97 2612   5.597   0.832   0.065 -0.4442 -0.2293 -0.0200
    7CHTO  H184 2613   5.571   0.832   0.172  0.3298  0.3131  0.1756
    7CHTO   O64 2614   5.479   0.861  -0.018 -0.3019 -0.4683 -0.1268
    7CHTO  C104 2615   5.405   0.971   0.027 -0.9111 -0.2776  0.2298
    7CHTO  H191 2616   5.372   0.976   0.131 -1.2891  1.0609  0.0617
    7CHTO  C108 2617   5.269   0.978  -0.052  0.3385  0.0108 -0.4732
    7CHTO   O71 2618   5.185   0.862  -0.027  0.0902 -0.1371 -0.0817
    7CHTO  H171 2619   5.132   0.860   0.051 -1.5781  2.7679 -1.0665
    7CHTO   O62 2620   5.649   0.702   0.028  0.3645  0.5586 -0.2001
    7CHTO   C91 2621   5.704   0.657  -0.097  0.0352  0.0786  0.0293
    7CHTO  H178 2622   5.749   0.744  -0.146 -0.0764 -0.4533 -1.0348
    7CHTO   C92 2623   5.585   0.615  -0.193  0.3743  0.0960  0.1190
    7CHTO  H179 2624   5.527   0.704  -0.220  1.4880  0.9821  0.5743
    7CHTO   O66 2625   5.649   0.597  -0.318 -0.5285  0.7834 -0.5176
    7CHTO  H166 2626   5.586   0.593  -0.388 -1.0478 -2.2588  0.0308
    7CHTO   C93 2627   5.517   0.472  -0.151 -0.4038  0.4099  0.4134
    7CHTO  H180 2628   5.499   0.423  -0.247  1.9883  1.8621 -0.8343
    7CHTO   N16 2629   5.386   0.497  -0.088  0.7921  0.0479 -0.6888
    7CHTO  H172 2630   5.309   0.468  -0.157  1.3301  1.0180 -1.7149
    7CHTO  H173 2631   5.379   0.441   0.004  1.7020  0.2663 -0.4721
    7CHTO   C94 2632   5.610   0.390  -0.059  0.7419 -0.4071 -0.2893
    7CHTO  H181 2633   5.599   0.418   0.046 -2.0220 -0.9155 -0.4109
    7CHTO   O61 2634   5.741   0.415  -0.098 -0.0588  0.3195 -0.0608
    7CHTO   C95 2635   5.799   0.543  -0.064 -0.2166 -0.2735 -0.5638
    7CHTO  H182 2636   5.809   0.548   0.044 -0.3606 -0.2790 -0.5504
    7CHTO  C106 2637   5.943   0.540  -0.135 -0.1111 -0.5855 -0.3244
    7CHTO   O69 2638   6.007   0.666  -0.130  0.1338 -0.0240  0.2007
    7CHTO  H169 2639   6.099   0.652  -0.143  0.4833  0.5776  1.9324
    7CHTO   O63 2640   5.587   0.233  -0.066  0.4011 -0.2527  1.0205
    7CHTO   C96 2641   5.468   0.159   0.010  0.4356 -0.2889  0.5079
    7CHTO  H183 2642   5.373   0.182  -0.039  0.4155 -0.1227  0.6217
    7CHTO   C98 2643   5.469   0.193   0.164  0.6168  0.2786  0.6674
    7CHTO  H185 2644   5.476   0.302   0.179 -0.3128  0.3712  0.4834
    7CHTO   O67 2645   5.346   0.159   0.217  0.3798 -0.2694  0.2756
    7CHTO  H167 2646   5.297   0.238   0.226 -0.9731 -0.7279 -2.3602
    7CHTO  C102 2647   5.587   0.111   0.239  0.2884 -0.2523  0.1268
    7CHTO  H189 2648   5.567   0.112   0.348  2.7320 -1.4812  0.6218
    7CHTO   N18 2649   5.723   0.161   0.225 -0.1134 -0.2450 -0.4378
    7CHTO  H176 2650   5.776   0.134   0.135 -1.1052  0.0520 -1.1178
    7CHTO  H177 2651   5.786   0.168   0.312  0.2251  0.2502 -0.7235
    7CHTO  C105 2652   5.583  -0.034   0.193 -0.4924  0.2279 -0.3824
    7CHTO  H192 2653   5.668  -0.086   0.238  0.0241 -0.1516 -1.7890
    7CHTO   O65 2654   5.587  -0.057   0.047  0.1025  0.0951  0.0407
    7CHTO  C100 2655   5.489   0.005  -0.026 -0.3285 -0.2368 -0.8513
    7CHTO  H187 2656   5.530   0.007  -0.127  0.9097 -1.2518 -0.3874
    7CHTO  C107 2657   5.361  -0.081  -0.029 -0.2439  0.0894 -0.0705
    7CHTO   O70 2658   5.388  -0.219  -0.057  0.1008 -0.1536  0.0764
    7CHTO  H170 2659   5.311  -0.262  -0.089  0.2895 -1.3739  1.2067
    7CHTO   O57 2660   5.466  -0.099   0.273 -0.0404 -0.2571 -0.5582
    7CHTO   C85 2661   5.498  -0.207   0.368 -0.3315  0.2627 -0.5914
    7CHTO  H157 2662   5.590  -0.164   0.414 -0.9658  3.0451 -1.8566
    7CHTO   C83 2663   5.534  -0.345   0.300 -0.1713 -0.6352  0.4018
    7CHTO  H155 2664   5.625  -0.337   0.242  0.6519  1.0733  1.8660
    7CHTO   O56 2665   5.430  -0.356   0.198 -0.3071 -0.6643 -0.7935
    7CHTO  H135 2666   5.429  -0.446   0.170 -0.6758 -0.4824 -1.3750
    7CHTO   C81 2667   5.559  -0.453   0.405 -0.0638  0.5061  0.0726
    7CHTO  H153 2668   5.633  -0.416   0.476 -1.0538  1.3588  0.6589
    7CHTO   N14 2669   5.629  -0.571   0.348 -0.0900 -0.0805  0.4072
    7CHTO  H141 2670   5.601  -0.657   0.404 -0.1118 -1.6342 -1.9348
    7CHTO  H142 2671   5.736  -0.563   0.351  0.1770 -2.4669 -1.2858
    7CHTO   C79 2672   5.425  -0.479   0.485 -0.2660  0.0737 -0.2145
    7CHTO  H151 2673   5.448  -0.560   0.554 -0.8358  0.2845  0.2316
    7CHTO   O52 2674   5.388  -0.355   0.558  0.1170  0.7123  0.3946
    7CHTO   C86 2675   5.383  -0.235   0.479 -0.8641  0.3435 -0.1409
    7CHTO  H158 2676   5.282  -0.243   0.433 -0.3629 -0.7789 -1.0712
    7CHTO   C90 2677   5.367  -0.114   0.574 -0.1706 -0.0757  0.3799
    7CHTO   O60 2678   5.477  -0.097   0.664 -0.7658  0.5356 -0.2100
    7CHTO  H138 2679   5.455  -0.116   0.754  2.2757 -2.0233  0.0940
    7CHTO   O50 2680   5.317  -0.522   0.405  0.2803  0.7165  0.5502
    7CHTO   C73 2681   5.199  -0.560   0.336 -0.2606  0.3138 -0.0425
    7CHTO  H145 2682   5.224  -0.591   0.234 -2.2243  2.0320 -1.0878
    7CHTO   C74 2683   5.108  -0.438   0.325  0.1026  0.0597  0.4967
    7CHTO  H146 2684   5.156  -0.354   0.274 -3.0417 -1.4732 -5.5335
    7CHTO   O54 2685   5.003  -0.474   0.236  0.2432  1.2684  0.2847
    7CHTO  H133 2686   4.981  -0.398   0.185  1.8926  0.8071 -1.1603
    7CHTO   C75 2687   5.053  -0.398   0.468  0.7596 -0.5451  0.3867
    7CHTO  H147 2688   5.140  -0.365   0.526 -0.6910 -0.0196  2.3294
    7CHTO   N13 2689   4.943  -0.294   0.471 -0.3443  0.0483  0.3542
    7CHTO  H139 2690   4.932  -0.244   0.566  0.1493  1.7951 -0.4888
    7CHTO  H140 2691   4.953  -0.210   0.403  1.0673  0.1506  0.6718
    7CHTO   C76 2692   4.994  -0.531   0.540 -0.1431 -0.4351 -0.6709
    7CHTO  H148 2693   4.916  -0.567   0.472 -0.9540 -1.0513  0.5628
    7CHTO   O49 2694   5.100  -0.631   0.535 -0.2638 -0.1240  0.1002
    7CHTO   C77 2695   5.134  -0.673   0.407  0.2116  0.5617 -0.3688
    7CHTO  H149 2696   5.045  -0.716   0.362  1.3073 -2.4603  0.2602
    7CHTO   C88 2697   5.226  -0.797   0.424  0.3965  0.3055  0.3345
    7CHTO   O58 2698   5.156  -0.895   0.492 -0.3890 -0.3940 -0.0830
    7CHTO  H136 2699   5.114  -0.955   0.434  0.9840 -0.0290 -1.4849
    7CHTO   O51 2700   4.952  -0.496   0.693 -0.0071  0.1204  0.0521
    7CHTO   C78 2701   5.040  -0.561   0.803  0.3724  0.1798  0.2346
    7CHTO  H150 2702   5.143  -0.590   0.773  0.4132  1.1495 -0.5686
    7CHTO   C80 2703   4.971  -0.686   0.866 -0.4324  0.1231  1.1107
    7CHTO  H152 2704   4.865  -0.659   0.882 -0.2107  1.3765  0.5472
    7CHTO   O55 2705   4.981  -0.796   0.785 -0.1116  0.2945  0.2373
    7CHTO  H134 2706   4.911  -0.855   0.806 -0.1449  0.3230  0.2069
    7CHTO   C84 2707   5.021  -0.718   1.012 -0.5321 -0.1171 -0.5396
    7CHTO  H156 2708   5.112  -0.778   1.001 -0.8881 -0.5114 -1.3544
    7CHTO   N15 2709   4.939  -0.821   1.087  0.0307  0.6758 -0.9763
    7CHTO  H143 2710   4.835  -0.793   1.085 -0.2602  0.2524  2.8469
    7CHTO  H144 2711   4.968  -0.835   1.189 -0.0864 -1.3253 -1.1921
    7CHTO   C87 2712   5.057  -0.599   1.106  0.1024  0.0185  0.0893
    7CHTO  H159 2713   4.957  -0.561   1.128  0.0295  1.0026 -1.7937
    7CHTO   O53 2714   5.130  -0.498   1.022 -0.6662 -0.4378 -0.2220
    7CHTO   C82 2715   5.058  -0.452   0.907  0.3735  0.1840  0.5259
    7CHTO  H154 2716   4.965  -0.405   0.940  1.0253  1.0050  1.2207
    7CHTO   C89 2717   5.150  -0.339   0.856  0.4303  0.1973 -0.1218
    7CHTO   O59 2718   5.169  -0.236   0.946 -0.5830 -0.3837  0.1736
    7CHTO  H137 2719   5.194  -0.269   1.030  2.2284  0.9349 -0.0876
    7CHTO   O45 2720   5.150  -0.646   1.233 -0.3553  0.1689  0.3144
    7CHTO   C67 2721   5.193  -0.531   1.307 -0.0392 -0.3399  0.0446
    7CHTO  H124 2722   5.172  -0.440   1.250 -2.0460 -0.5053  0.4769
    7CHTO   C65 2723   5.111  -0.515   1.444 -0.2844  0.1611  0.1190
    7CHTO  H122 2724   5.077  -0.616   1.469 -0.3098  0.5487  1.6449
    7CHTO   O44 2725   4.995  -0.441   1.406  0.6679  0.1659 -0.2589
    7CHTO  H102 2726   4.977  -0.434   1.315 -1.0336 -2.2541 -0.1505
    7CHTO   C63 2727   5.191  -0.471   1.569  0.4125  0.0006  0.4849
    7CHTO  H120 2728   5.252  -0.553   1.607 -0.7850 -0.3046  1.8129
    7CHTO   N11 2729   5.112  -0.428   1.694  0.1449  0.2894 -0.4154
    7CHTO  H108 2730   5.172  -0.412   1.781  0.5529  1.3056 -0.8742
    7CHTO  H109 2731   5.041  -0.505   1.715 -0.8458  0.3560 -3.2796
    7CHTO   C61 2732   5.293  -0.356   1.523 -0.0858  0.5426  0.1589
    7CHTO  H118 2733   5.354  -0.339   1.613  1.9980 -1.2152 -0.8877
    7CHTO   O40 2734   5.385  -0.413   1.429 -0.0341 -0.2376  0.5083
    7CHTO   C68 2735   5.338  -0.523   1.340  0.6014  0.5058 -0.7518
    7CHTO  H125 2736   5.356  -0.608   1.410 -1.2421  1.4471  0.9354
    7CHTO   C72 2737   5.430  -0.525   1.213 -0.1572  0.5369  0.0621
    7CHTO   O48 2738   5.422  -0.649   1.137  0.3834  0.0356 -0.7121
    7CHTO  H105 2739   5.372  -0.630   1.060 -0.4846 -1.9341 -0.6718
    7CHTO   O38 2740   5.231  -0.233   1.469  0.0297 -0.3906 -0.0274
    7CHTO   C55 2741   5.334  -0.129   1.464 -0.0843 -0.4117 -0.9303
    7CHTO  H112 2742   5.433  -0.175   1.479  0.5649  1.2308  0.0081
    7CHTO   C56 2743   5.301  -0.030   1.589 -0.4926 -0.8729 -0.4411
    7CHTO  H113 2744   5.194  -0.008   1.579 -0.6733 -2.5700 -2.9834
    7CHTO   O42 2745   5.301  -0.091   1.717  0.4035  0.9459 -0.1946
    7CHTO  H100 2746   5.389  -0.117   1.736  0.5800  2.6686  1.5363
    7CHTO   C57 2747   5.392   0.099   1.586 -0.4935  0.0024  0.4833
    7CHTO  H114 2748   5.488   0.054   1.612 -0.7972 -0.2283  1.2109
    7CHTO   N10 2749   5.357   0.205   1.688 -0.0594  0.5439 -0.0462
    7CHTO  H106 2750   5.429   0.217   1.768  0.5373 -1.0097 -0.3271
    7CHTO  H107 2751   5.256   0.194   1.724 -1.4390  1.1631 -3.5499
    7CHTO   C58 2752   5.403   0.161   1.445  0.5599  0.1453 -0.3498
    7CHTO  H115 2753   5.310   0.216   1.419  0.2405 -0.8273 -1.3175
    7CHTO   O37 2754   5.426   0.063   1.345 -0.2618  0.2082 -0.7685
    7CHTO   C59 2755   5.331  -0.047   1.338  0.3003 -1.2101  0.1345
    7CHTO  H116 2756   5.229  -0.009   1.332  0.4857 -0.8022 -0.4362
    7CHTO   C70 2757   5.363  -0.129   1.215 -0.0463  0.1525 -0.1078
    7CHTO   O46 2758   5.497  -0.179   1.220 -0.1555 -0.2327 -0.0469
    7CHTO  H103 2759   5.495  -0.266   1.185 -2.5215  0.5149 -1.9143
    7CHTO   O39 2760   5.521   0.268   1.450  0.0764  0.2629  0.1092
    7CHTO   C60 2761   5.645   0.234   1.390  0.1676  0.0466  1.1161
    7CHTO  H117 2762   5.664   0.127   1.402  3.4266  0.2380 -1.5894
    7CHTO   C62 2763   5.651   0.274   1.241 -0.4819 -0.1260  0.2125
    7CHTO  H119 2764   5.558   0.239   1.193 -0.3461  0.9275 -0.8557
    7CHTO   O43 2765   5.654   0.414   1.210  0.7908  0.2370 -0.0457
    7CHTO  H101 2766   5.735   0.449   1.242  0.9522 -1.7181  1.7650
    7CHTO   C66 2767   5.782   0.200   1.174 -0.5406  0.2471  0.4965
    7CHTO  H123 2768   5.783   0.094   1.202  2.2345  0.5985  1.8964
    7CHTO   N12 2769   5.774   0.199   1.029  0.0256  0.0866  0.0523
    7CHTO  H110 2770   5.870   0.183   0.982  0.0963  1.1104 -0.1843
    7CHTO  H111 2771   5.708   0.270   0.981  0.1597  1.0853  1.2918
    7CHTO   C69 2772   5.911   0.256   1.235 -0.0201 -0.1269  0.3618
    7CHTO  H126 2773   5.932   0.365   1.226  2.1280 -0.6196 -1.3644
    7CHTO   O41 2774   5.902   0.237   1.394 -0.9189  0.3539  0.1370
    7CHTO   C64 2775   5.774   0.302   1.449  0.6101  0.4430 -0.1423
    7CHTO  H121 2776   5.774   0.408   1.414  0.4834  1.3586  2.5408
    7CHTO   C71 2777   5.778   0.300   1.599 -0.3784 -0.2399 -0.7552
    7CHTO   O47 2778   5.774   0.167   1.646 -0.2951 -0.4474 -0.3656
    7CHTO  H104 2779   5.725   0.166   1.726 -1.3649 -2.1443 -1.0009
    7CHTO   O34 2780   6.048   0.178   1.171 -0.6882  0.3918  0.2643
    7CHTO   C49 2781   6.163   0.206   1.077 -0.1191 -0.6739 -0.3429
    7CHTO   H91 2782   6.133   0.284   1.006 -0.1995  1.5608  2.0672
    7CHTO   C47 2783   6.197   0.089   0.987 -0.2284  0.4375 -0.2657
    7CHTO   H89 2784   6.264   0.134   0.911  1.7978  0.2076  1.3460
    7CHTO   O33 2785   6.076   0.044   0.921 -0.0035  0.2541  0.4350
    7CHTO   H70 2786   5.998   0.044   0.974  0.2507 -1.7201  0.8436
    7CHTO   C45 2787   6.273  -0.028   1.075 -0.5579  0.2762 -0.5086
    7CHTO   H87 2788   6.204  -0.067   1.152  0.4929  0.2099  0.4214
    7CHTO    N8 2789   6.306  -0.149   0.987  0.0698 -0.6816 -0.2321
    7CHTO   H75 2790   6.337  -0.227   1.055 -1.3723 -1.8383 -0.8651
    7CHTO   H76 2791   6.386  -0.116   0.923 -2.6636  0.9883 -2.9069
    7CHTO   C43 2792   6.401   0.040   1.150  0.6900 -0.0470 -0.0261
    7CHTO   H85 2793   6.446  -0.037   1.212  3.3359 -1.1905 -3.1850
    7CHTO   O29 2794   6.362   0.162   1.226  0.2145  0.1439  0.1427
    7CHTO   C50 2795   6.284   0.257   1.159  0.8539 -0.1733  0.3716
    7CHTO   H92 2796   6.237   0.314   1.241  0.7064  0.7033 -0.3098
    7CHTO   C54 2797   6.370   0.358   1.074  0.4836  0.0206 -0.2198
    7CHTO   O36 2798   6.293   0.479   1.052  0.1350  0.5938  0.8793
    7CHTO   H72 2799   6.358   0.546   1.039  0.2500  0.5776  1.3462
    7CHTO   O27 2800   6.494   0.074   1.045  0.9261 -0.3411 -0.5096
    7CHTO   C37 2801   6.607   0.043   0.962  0.0681 -0.0948  0.1485
    7CHTO   H79 2802   6.692   0.109   0.987  0.4723 -0.5065 -0.1186
    7CHTO   C38 2803   6.667  -0.100   0.995 -0.0634 -0.2454 -0.7202
    7CHTO   H80 2804   6.583  -0.170   1.010  0.0820 -0.5399 -1.2739
    7CHTO   O31 2805   6.727  -0.084   1.128 -0.0294  0.1634 -0.3953
    7CHTO   H68 2806   6.811  -0.042   1.129  0.4067 -0.6998  0.6819
    7CHTO   C39 2807   6.777  -0.150   0.886  0.2879 -0.3142 -0.4665
    7CHTO   H81 2808   6.869  -0.092   0.893  0.9199 -1.4324  0.6626
    7CHTO    N7 2809   6.817  -0.289   0.912 -0.2079 -0.0355  0.2385
    7CHTO   H73 2810   6.729  -0.345   0.941  0.5398 -1.2941  0.1155
    7CHTO   H74 2811   6.881  -0.288   0.999  0.0608  2.7328  0.0633
    7CHTO   C40 2812   6.720  -0.124   0.741 -0.0595 -0.6083  0.3543
    7CHTO   H82 2813   6.634  -0.188   0.726 -1.4101  1.5632 -1.6163
    7CHTO   O26 2814   6.684   0.017   0.724 -0.7090  0.2791 -0.4982
    7CHTO   C41 2815   6.571   0.050   0.811 -0.5559  0.0116 -0.6956
    7CHTO   H83 2816   6.481  -0.004   0.776  0.0550 -1.7539  0.4243
    7CHTO   C52 2817   6.532   0.198   0.778  0.2247  0.2511 -0.2015
    7CHTO   O35 2818   6.617   0.304   0.803  0.8987 -0.4746  0.4398
    7CHTO   H71 2819   6.668   0.319   0.726  1.0189 -0.9892  0.4184
    7CHTO   O28 2820   6.822  -0.152   0.639  0.2400 -0.0087  0.2981
    7CHTO   C42 2821   6.865  -0.076   0.523  1.0339  0.0488  0.8522
    7CHTO   H84 2822   6.939  -0.145   0.484 -0.4754 -1.4524  0.5766
    7CHTO   C44 2823   6.939   0.066   0.545  0.0391  0.2114  0.9402
    7CHTO   H86 2824   6.868   0.143   0.576 -1.6206 -1.8759  2.6278
    7CHTO   O32 2825   7.035   0.046   0.650  0.1327  0.4020 -0.0595
    7CHTO   H69 2826   7.039   0.126   0.700 -0.4479 -0.1160  0.8345
    7CHTO   C48 2827   7.005   0.119   0.416  0.2426 -0.5263  0.3200
    7CHTO   H90 2828   7.076   0.044   0.382 -0.1454 -1.0926  0.7475
    7CHTO    N9 2829   7.080   0.249   0.432  0.2999 -0.1720 -0.0218
    7CHTO   H77 2830   7.180   0.253   0.391  0.0810  0.1498 -0.5220
    7CHTO   H78 2831   7.096   0.264   0.538 -2.0860  2.0303  0.0639
    7CHTO   C51 2832   6.895   0.138   0.307  0.7960 -0.9693  0.4585
    7CHTO   H93 2833   6.823   0.210   0.346  0.5464 -0.1147 -1.5582
    7CHTO   O30 2834   6.832   0.014   0.275  0.1800  0.4270 -0.3990
    7CHTO   C46 2835   6.763  -0.054   0.411 -0.4490 -0.2111  0.2434
    7CHTO   H88 2836   6.679   0.008   0.443  2.1180  1.4629  4.1739
    7CHTO   C53 2837   6.720  -0.199   0.376 -0.0122 -0.0547  0.1670
    7CHTO   O72 2838   6.604  -0.198   0.286 -0.0603  0.1218  0.6599
    7CHTO  H199 2839   6.613  -0.256   0.212  2.5985  0.5363  0.6289
    7CHTO   O22 2840   6.945   0.184   0.181  0.2182 -0.1363 -0.5061
    7CHTO   C31 2841   6.844   0.240   0.078 -0.0667  0.7126  0.5942
    7CHTO   H59 2842   6.901   0.245  -0.017  1.6686 -0.7222  1.5169
    7CHTO   C29 2843   6.716   0.153   0.052 -0.0443 -0.4902 -0.2351
    7CHTO   H57 2844   6.658   0.145   0.146  2.0083  1.0751  1.2099
    7CHTO   O21 2845   6.752   0.022   0.018  0.5322 -0.2337 -0.5006
    7CHTO   H37 2846   6.798   0.013  -0.063 -0.3332 -1.8923 -0.8359
    7CHTO   C27 2847   6.621   0.221  -0.058  0.3821  0.5656 -0.0462
    7CHTO   H55 2848   6.667   0.208  -0.157 -1.4362 -0.7797 -0.7339
    7CHTO    N5 2849   6.486   0.163  -0.060 -0.1983 -0.4506  0.5068
    7CHTO   H43 2850   6.413   0.223  -0.112 -0.1626 -1.0575 -0.2479
    7CHTO   H44 2851   6.496   0.069  -0.112  0.1222 -0.2803  0.2590
    7CHTO   C25 2852   6.603   0.370  -0.020 -0.0284 -0.6527  0.1271
    7CHTO   H53 2853   6.558   0.385   0.079 -1.5352  1.3723 -0.8163
    7CHTO   O17 2854   6.732   0.445  -0.007 -0.2778 -0.0888 -0.2919
    7CHTO   C32 2855   6.801   0.388   0.108 -0.1734 -0.6935  0.3565
    7CHTO   H60 2856   6.735   0.389   0.195 -0.7925 -0.3784 -0.1225
    7CHTO   C36 2857   6.920   0.483   0.142  0.8503  0.4102 -0.5803
    7CHTO   O25 2858   6.881   0.623   0.144  0.1971  0.2377  0.3522
    7CHTO   H40 2859   6.929   0.684   0.197 -0.3392 -1.0741  2.4018
    7CHTO   O15 2860   6.503   0.461  -0.115 -0.2929 -0.0046 -0.0495
    7CHTO   C19 2861   6.438   0.576  -0.067 -0.4635 -0.3543 -0.2360
    7CHTO   H47 2862   6.379   0.609  -0.154 -1.8102 -1.0166  0.4120
    7CHTO   C20 2863   6.336   0.556   0.051  0.0929  0.1602 -0.4126
    7CHTO   H48 2864   6.387   0.515   0.139 -0.5038 -2.3443 -1.1879
    7CHTO   O19 2865   6.236   0.455   0.015  0.5341 -0.4261 -0.1307
    7CHTO   H35 2866   6.211   0.463  -0.075  0.8487  1.4459 -0.0685
    7CHTO   C21 2867   6.278   0.697   0.101  0.1385 -0.2410 -0.1133
    7CHTO   H49 2868   6.210   0.730   0.021 -0.0198 -0.7472 -0.1898
    7CHTO    N4 2869   6.191   0.684   0.221 -0.0143  0.2729  0.3978
    7CHTO   H41 2870   6.104   0.625   0.194  0.2709  0.2419 -0.4775
    7CHTO   H42 2871   6.249   0.629   0.293  0.9096  0.7203  0.0103
    7CHTO   C22 2872   6.393   0.797   0.120 -0.2895 -0.7475 -0.9894
    7CHTO   H50 2873   6.456   0.763   0.202 -1.7520  3.2553  1.9618
    7CHTO   O14 2874   6.469   0.803  -0.002  0.0661 -0.7569  0.0830
    7CHTO   C23 2875   6.540   0.687  -0.035 -0.3282  0.6607  0.2691
    7CHTO   H51 2876   6.605   0.657   0.048 -0.0795  0.9549  0.1803
    7CHTO   C34 2877   6.632   0.716  -0.154  0.1429 -0.5184  0.2306
    7CHTO   O23 2878   6.745   0.794  -0.122  0.3668  0.5389 -0.3085
    7CHTO   H38 2879   6.789   0.759  -0.047 -1.8977  0.4003  1.0160
    7CHTO   O16 2880   6.343   0.926   0.148 -0.3362 -0.3051  0.3784
    7CHTO   C24 2881   6.436   1.031   0.242 -0.0394  0.5156  0.4313
    7CHTO   H52 2882   6.516   0.982   0.298  0.6149  2.4135  1.1923
    7CHTO   C26 2883   6.343   1.079   0.358 -0.3181  0.3779 -0.6518
    7CHTO   H54 2884   6.256   1.133   0.314 -0.5137  0.7177  0.1332
    7CHTO   O20 2885   6.301   0.965   0.436 -0.2092  0.0368 -0.4326
    7CHTO   H36 2886   6.213   0.977   0.467  0.4687 -0.6956  1.9136
    7CHTO   C30 2887   6.415   1.181   0.451 -0.6348  0.0326 -0.0094
    7CHTO   H58 2888   6.498   1.132   0.505 -0.2897  1.0638  0.3994
    7CHTO    N6 2889   6.323   1.235   0.555  0.0181  0.6763  0.4741
    7CHTO   H45 2890   6.238   1.283   0.509  0.3820  0.8906  0.0245
    7CHTO   H46 2891   6.297   1.164   0.632 -0.1255  0.1274 -0.0788
    7CHTO   C33 2892   6.496   1.285   0.370  0.2879  0.0296  0.5890
    7CHTO   H61 2893   6.417   1.341   0.318 -0.6600  0.9849  2.9957
    7CHTO   O18 2894   6.576   1.220   0.270 -0.2257  0.6565  0.0552
    7CHTO   C28 2895   6.494   1.152   0.170 -0.6515  0.3578  0.0050
    7CHTO   H56 2896   6.410   1.215   0.138  0.8998  1.4388 -2.0757
    7CHTO   C35 2897   6.575   1.110   0.041  0.5883  1.2115 -0.0764
    7CHTO   O24 2898   6.620   1.220  -0.038 -0.1072  0.0892 -0.0699
    7CHTO   H39 2899   6.546   1.261  -0.079 -1.1098 -1.4764  0.1482
    7CHTO    O9 2900   6.566   1.382   0.436 -0.3539  0.5423 -0.1225
    7CHTO   C13 2901   6.589   1.536   0.346 -0.0453 -0.4916 -0.1238
    7CHTO   H26 2902   6.580   1.504   0.240 -1.4454 -2.6029  0.5943
    7CHTO   C11 2903   6.729   1.599   0.373  0.1095  0.4128 -0.2816
    7CHTO   H24 2904   6.806   1.526   0.346 -1.2244 -0.2569 -2.3890
    7CHTO    O8 2905   6.733   1.616   0.515 -0.2484 -0.1401  0.4528
    7CHTO    H3 2906   6.816   1.653   0.538  0.5644 -0.3821 -2.0118
    7CHTO    C9 2907   6.742   1.729   0.289 -0.2591  0.0713 -0.1383
    7CHTO   H22 2908   6.746   1.699   0.183 -1.7325  0.2567 -0.2450
    7CHTO    N2 2909   6.871   1.795   0.305 -0.3129 -0.1447  0.3158
    7CHTO   H10 2910   6.957   1.734   0.280  1.5332  2.0299  1.2139
    7CHTO   H11 2911   6.877   1.823   0.409  0.9175  0.9588 -0.0343
    7CHTO    C7 2912   6.617   1.823   0.307 -0.8233 -0.5093 -0.2733
    7CHTO   H20 2913   6.624   1.884   0.215 -0.6311 -0.2265 -0.0709
    7CHTO    O4 2914   6.494   1.757   0.291  0.3983  0.5690  0.1643
    7CHTO   C14 2915   6.465   1.643   0.370  0.2376 -0.2783  0.4585
    7CHTO   H27 2916   6.374   1.598   0.326  0.0564 -0.0909  0.6373
    7CHTO   C18 2917   6.428   1.679   0.515  0.2968 -0.0741  0.1547
    7CHTO   O13 2918   6.297   1.731   0.531  0.0886  0.3347  0.2485
    7CHTO    H7 2919   6.308   1.822   0.549  1.3827  0.4331 -0.9910
    7CHTO    O2 2920   6.615   1.926   0.451  0.5781  0.4009  0.4140
    7CHTO    C1 2921   6.559   2.058   0.436  0.0511 -0.1202  0.4227
    7CHTO   H14 2922   6.529   2.079   0.541 -1.0846 -0.2651  0.1360
    7CHTO    C2 2923   6.431   2.068   0.348  0.4853  0.2817 -0.4291
    7CHTO   H15 2924   6.456   2.005   0.261 -0.6324 -1.0638  0.2001
    7CHTO    O6 2925   6.316   2.007   0.412  0.4452 -0.7882  0.2841
    7CHTO    H1 2926   6.237   2.025   0.365  1.3818 -0.7260 -1.2905
    7CHTO    C3 2927   6.399   2.212   0.304 -0.9280 -0.4373  0.0047
    7CHTO   H16 2928   6.371   2.266   0.396 -1.0307 -0.7809  0.1742
    7CHTO    N1 2929   6.285   2.225   0.198  0.3701 -0.1050  0.5146
    7CHTO    H8 2930   6.280   2.331   0.176  2.7530 -0.0513  0.0113
    7CHTO    H9 2931   6.314   2.162   0.115  2.5407  0.1004  1.0650
    7CHTO    C4 2932   6.530   2.283   0.252 -0.0592  0.9412 -0.2624
    7CHTO   H17 2933   6.564   2.231   0.163  0.4399 -0.2945  0.6235
    7CHTO    O1 2934   6.634   2.277   0.355 -0.0279 -0.3114  0.3146
    7CHTO    C5 2935   6.677   2.147   0.392  0.3353  0.3612  0.3806
    7CHTO   H18 2936   6.731   2.097   0.312 -1.7516 -1.9932  0.3823
    7CHTO   C16 2937   6.769   2.164   0.515  0.2211 -0.3323 -0.4407
    7CHTO   O11 2938   6.812   2.046   0.582  0.3209 -0.5764  0.2052
    7CHTO    H5 2939   6.869   2.064   0.654  0.0860  0.6299  0.1104
    7CHTO    O3 2940   6.512   2.424   0.235 -0.0617  0.5665  0.3052
    7CHTO    C6 2941   6.594   2.484   0.130  0.0694  0.1772 -0.0472
    7CHTO   H19 2942   6.660   2.418   0.074  0.1778 -0.0250  0.3161
    7CHTO    C8 2943   6.494   2.561   0.032  0.5747 -0.4259  0.2456
    7CHTO   H21 2944   6.432   2.628   0.091  0.4098  0.3727 -0.8159
    7CHTO    O7 2945   6.397   2.463  -0.026 -0.7742 -0.1501  0.6256
    7CHTO    H2 2946   6.385   2.380   0.017  0.6378 -0.9282 -0.4559
    7CHTO   C12 2947   6.576   2.650  -0.081  0.0929 -0.5136  0.3343
    7CHTO   H25 2948   6.631   2.578  -0.145  0.3819  0.5206 -0.5962
    7CHTO    N3 2949   6.476   2.721  -0.168 -0.3785  0.1086  0.2965
    7CHTO   H12 2950   6.410   2.652  -0.219 -3.4206  1.1060  2.7506
    7CHTO   H13 2951   6.517   2.795  -0.235  1.9844 -0.2063  1.3711
    7CHTO   C15 2952   6.685   2.745  -0.014 -0.1609  0.3822  0.2329
    7CHTO   H28 2953   6.640   2.831   0.036  0.0763 -0.2872  1.6345
    7CHTO   O10 2954   6.798   2.795  -0.121  0.0281  0.0551  0.0625
    7CHTO    H4 2955   6.878   2.777  -0.077 -0.6894  0.5434  1.5957
    7CHTO    O5 2956   6.758   2.661   0.076  0.0021 -0.4121 -0.4189
    7CHTO   C10 2957   6.688   2.603   0.189 -0.3609  0.4164 -0.4047
    7CHTO   H23 2958   6.632   2.682   0.238  1.1770  1.0049  0.4344
    7CHTO   C17 2959   6.787   2.533   0.293 -0.4221 -0.3146  0.7579
    7CHTO   O12 2960   6.904   2.613   0.316  0.6818  0.7832  0.0653
    7CHTO    H6 2961   6.889   2.701   0.345 -1.5560  0.7575 -0.8909
    8CHTO  H203 2962   7.152   6.743   2.105 -0.7013  0.1949 -1.8081
    8CHTO   O82 2963   7.066   6.768   2.131 -0.4052 -0.5477 -0.0616
    8CHTO  C123 2964   6.990   6.800   2.018  0.4228  0.7340  0.3822
    8CHTO  H227 2965   6.985   6.715   1.949  1.1181  1.9550 -1.1907
    8CHTO   O77 2966   6.858   6.820   2.073  0.1408 -0.8559 -0.1397
    8CHTO  C118 2967   6.761   6.851   1.974 -0.0671  1.1447  0.5782
    8CHTO  H222 2968   6.763   6.768   1.902 -0.8965  1.4615  0.1828
    8CHTO  C125 2969   6.624   6.862   2.033 -0.0079  0.2741  0.6501
    8CHTO   O84 2970   6.588   6.733   2.093  0.6977 -0.0880 -1.1053
    8CHTO  H205 2971   6.637   6.702   2.167 -3.1954 -0.5953  1.4160
    8CHTO  C114 2972   6.797   6.973   1.895  0.2821 -0.6622  0.3556
    8CHTO  H218 2973   6.805   7.060   1.961 -1.1874 -0.1134 -0.1756
    8CHTO  C116 2974   6.940   6.959   1.839  0.0142 -0.0553 -1.0094
    8CHTO  H220 2975   6.932   6.889   1.754  1.0391 -0.8299 -0.4805
    8CHTO   O79 2976   6.974   7.082   1.774  0.0298  0.2246  0.6687
    8CHTO  H201 2977   6.979   7.163   1.821  1.1265 -0.0463  1.0178
    8CHTO  C120 2978   7.045   6.929   1.943  0.9715  0.2145  0.4624
    8CHTO  H224 2979   7.029   7.015   2.012 -1.5583  0.0779  0.1053
    8CHTO   N21 2980   7.190   6.916   1.897  0.2000  0.5427 -0.8868
    8CHTO  H211 2981   7.190   6.874   1.798  1.6359 -1.0786 -0.2092
    8CHTO  H212 2982   7.242   6.849   1.963  0.3357  0.6393 -0.8953
    8CHTO   O75 2983   6.692   7.000   1.798 -0.2312 -0.3545 -0.1024
    8CHTO  C112 2984   6.636   7.155   1.809 -0.0143 -0.7039  0.2332
    8CHTO  H216 2985   6.721   7.226   1.804  1.2409 -2.2480 -1.0118
    8CHTO   O73 2986   6.559   7.170   1.929  0.1504 -0.0425  0.3900
    8CHTO  C113 2987   6.501   7.302   1.947  0.0428 -0.1263 -0.6049
    8CHTO  H217 2988   6.584   7.376   1.948  1.4338 -1.6460 -0.3764
    8CHTO  C124 2989   6.436   7.288   2.088 -0.5618 -0.6707  0.1246
    8CHTO   O83 2990   6.417   7.408   2.164 -0.1437  0.3898  0.0701
    8CHTO  H204 2991   6.326   7.428   2.175  0.0847  0.6420  1.6988
    8CHTO  C109 2992   6.401   7.338   1.841 -0.5003 -0.1676 -0.2743
    8CHTO  H213 2993   6.312   7.275   1.854 -1.8186  1.6824  0.0211
    8CHTO  C110 2994   6.464   7.312   1.700  0.2496  0.3525  0.5759
    8CHTO  H214 2995   6.527   7.397   1.672  0.0842 -0.2735 -1.7816
    8CHTO   O78 2996   6.363   7.323   1.599 -0.9190  0.2983  0.2144
    8CHTO  H200 2997   6.400   7.361   1.521 -0.9437 -1.4374 -0.6644
    8CHTO  C111 2998   6.545   7.179   1.686 -0.1783  0.2532 -0.4921
    8CHTO  H215 2999   6.480   7.091   1.674 -1.0101  0.8503 -0.3860
    8CHTO   N19 3000   6.626   7.171   1.562  0.0119 -0.2757 -0.2459
    8CHTO  H207 3001   6.721   7.218   1.584 -0.9892  1.5095  0.2941
    8CHTO  H208 3002   6.581   7.230   1.484 -0.1470 -1.3187 -0.9510
    8CHTO   O74 3003   6.364   7.482   1.839 -0.5545  0.0459 -0.6561
    8CHTO  C115 3004   6.230   7.508   1.771  0.0872  0.1207  0.3561
    8CHTO  H219 3005   6.189   7.416   1.728  1.7383 -1.5260  2.1925
    8CHTO   O76 3006   6.113   7.553   1.883 -0.0959 -0.1856 -0.2073
    8CHTO  C122 3007   6.115   7.688   1.936  0.2231 -0.2820  0.2156
    8CHTO  H226 3008   6.204   7.690   1.998 -0.5279  1.7899  1.2678
    8CHTO  C126 3009   5.998   7.700   2.032  0.2193 -0.2063 -0.0588
    8CHTO   O85 3010   6.021   7.631   2.155  0.6811  0.8813  0.0664
    8CHTO  H206 3011   5.971   7.670   2.224 -1.7983  0.0516 -1.1885
    8CHTO  C121 3012   6.104   7.784   1.811  0.2786  0.0300  0.1238
    8CHTO  H225 3013   6.016   7.768   1.746  0.2797 -0.8970  0.3542
    8CHTO   O81 3014   6.088   7.917   1.866 -0.1272  0.2009  0.5192
    8CHTO  H202 3015   6.152   7.935   1.933  1.0530 -0.2871 -0.4548
    8CHTO  C119 3016   6.237   7.766   1.730  0.1005 -0.0776 -0.2465
    8CHTO  H223 3017   6.227   7.832   1.644  3.0057 -0.9436 -1.3369
    8CHTO  C117 3018   6.261   7.621   1.669 -0.0932  0.0969 -0.5982
    8CHTO  H221 3019   6.361   7.597   1.632  0.1563  0.0168  0.1224
    8CHTO   N20 3020   6.181   7.603   1.541 -0.5080 -0.3194  0.0390
    8CHTO  H209 3021   6.111   7.521   1.550  0.4210 -1.1543 -0.2580
    8CHTO  H210 3022   6.131   7.694   1.513  0.2203 -0.1257 -0.6451
    8CHTO   O80 3023   6.377   7.825   1.805  0.5024 -0.1125  0.3447
    8CHTO  C103 3024   6.400   7.988   1.798 -0.2954 -0.5548 -0.2549
    8CHTO  H190 3025   6.318   8.043   1.751  1.3258  0.6898 -1.7044
    8CHTO  C101 3026   6.436   8.066   1.933  0.3402 -0.2156  0.0007
    8CHTO  H188 3027   6.526   8.025   1.979  0.0030 -2.5858 -1.3668
    8CHTO   O68 3028   6.317   8.060   2.027  0.3725 -0.1143  0.2700
    8CHTO  H168 3029   6.316   7.971   2.057  0.9479 -0.3610 -0.4309
    8CHTO   C99 3030   6.468   8.222   1.889  0.4471  0.3084  0.8236
    8CHTO  H186 3031   6.380   8.268   1.837  0.0725 -0.0345  1.1509
    8CHTO   N17 3032   6.507   8.306   2.007 -0.3994  0.3291  0.0225
    8CHTO  H174 3033   6.429   8.306   2.081 -0.4853 -3.2033  0.0365
    8CHTO  H175 3034   6.602   8.273   2.047  0.3301  1.5820 -0.6441
    8CHTO   C97 3035   6.580   8.219   1.780  0.0095 -0.6943  0.5107
    8CHTO  H184 3036   6.668   8.178   1.832  0.5541  2.9504  2.6370
    8CHTO   O64 3037   6.539   8.140   1.668 -0.5940 -0.0996 -0.7147
    8CHTO  C104 3038   6.524   8.001   1.700 -0.3884 -0.3206 -0.3038
    8CHTO  H191 3039   6.612   7.960   1.747 -0.1557  0.9601  0.4016
    8CHTO  C108 3040   6.507   7.921   1.571  0.4470  0.3175 -0.2655
    8CHTO   O71 3041   6.622   7.946   1.484  0.0625  0.0233 -0.5718
    8CHTO  H171 3042   6.666   7.866   1.464  0.5185 -0.1211  0.9061
    8CHTO   O62 3043   6.616   8.340   1.715  0.4136 -0.0027  0.3312
    8CHTO   C91 3044   6.758   8.358   1.699 -0.6749  1.1321 -0.1200
    8CHTO  H178 3045   6.805   8.377   1.795 -0.0880  1.1269 -0.4050
    8CHTO   C92 3046   6.780   8.501   1.634 -0.4945 -0.4061 -0.5477
    8CHTO  H179 3047   6.717   8.578   1.680 -2.0127 -1.0922 -1.4388
    8CHTO   O66 3048   6.919   8.541   1.655 -0.1020  0.2951  0.7174
    8CHTO  H166 3049   6.917   8.634   1.649 -1.0182  0.2064 -0.6312
    8CHTO   C93 3050   6.758   8.505   1.480  0.2144  0.4377 -0.1150
    8CHTO  H180 3051   6.827   8.587   1.456  2.9851 -2.0913 -1.1044
    8CHTO   N16 3052   6.619   8.546   1.430 -0.0123  0.1746  0.1891
    8CHTO  H172 3053   6.614   8.572   1.325  1.3386  1.6843  0.4704
    8CHTO  H173 3054   6.572   8.612   1.501 -0.1938 -0.6803  0.8684
    8CHTO   C94 3055   6.803   8.375   1.407  0.5155  0.5276 -0.9884
    8CHTO  H181 3056   6.721   8.306   1.390 -0.3316  1.1500  0.4730
    8CHTO   O61 3057   6.898   8.314   1.495  0.6197 -0.4905  0.0140
    8CHTO   C95 3058   6.842   8.250   1.614 -0.1270  0.0327  1.0377
    8CHTO  H182 3059   6.777   8.171   1.577  0.1195 -0.6267  1.9924
    8CHTO  C106 3060   6.958   8.186   1.690 -0.1171  0.2309 -1.3215
    8CHTO   O69 3061   7.027   8.099   1.600  0.0671  0.0861 -0.1075
    8CHTO  H169 3062   7.109   8.073   1.637 -1.4069  0.0644  3.3154
    8CHTO   O63 3063   6.870   8.401   1.256 -0.1819 -0.4626 -0.3963
    8CHTO   C96 3064   6.816   8.297   1.154  0.4471 -0.1960  0.4737
    8CHTO  H183 3065   6.721   8.252   1.183  0.3026 -1.1030 -1.3774
    8CHTO   C98 3066   6.895   8.159   1.137 -0.3689 -0.1029  0.4190
    8CHTO  H185 3067   6.999   8.183   1.109 -1.5065  2.5831 -1.7798
    8CHTO   O67 3068   6.894   8.084   1.258 -0.8855 -0.7392 -0.1816
    8CHTO  H167 3069   6.982   8.052   1.266 -0.4460  0.4534 -0.1001
    8CHTO  C102 3070   6.835   8.071   1.015 -0.8006  0.5906 -0.0272
    8CHTO  H189 3071   6.739   8.029   1.046 -0.3079 -1.3213 -0.9838
    8CHTO   N18 3072   6.911   7.951   0.979  0.0667 -1.0002 -0.2165
    8CHTO  H176 3073   7.014   7.980   0.966 -1.1043  2.4596 -2.6154
    8CHTO  H177 3074   6.917   7.872   1.053  1.0815 -1.3938 -0.7166
    8CHTO  C105 3075   6.803   8.160   0.895  0.2502 -0.8092 -0.6941
    8CHTO  H192 3076   6.895   8.185   0.842 -0.8287 -0.4908 -2.4591
    8CHTO   O65 3077   6.723   8.277   0.927 -0.2459  0.1595  0.3177
    8CHTO  C100 3078   6.793   8.367   1.010 -0.1162 -0.3464 -0.1002
    8CHTO  H187 3079   6.895   8.374   0.969 -0.0323 -1.9991 -0.2268
    8CHTO  C107 3080   6.729   8.510   1.019 -0.3724 -0.2338  0.2209
    8CHTO   O70 3081   6.717   8.568   0.889  0.5213 -0.1266 -0.0843
    8CHTO  H170 3082   6.794   8.548   0.840  0.8771 -0.2296  0.5217
    8CHTO   O57 3083   6.698   8.057   0.802 -0.2120  0.4673  0.2437
    8CHTO   C85 3084   6.690   8.072   0.660 -0.4155  0.0078  0.3502
    8CHTO  H157 3085   6.790   8.033   0.632  1.2521  1.9056  3.4441
    8CHTO   C83 3086   6.672   8.222   0.617 -0.5979  0.0304 -0.3710
    8CHTO  H155 3087   6.764   8.273   0.646 -1.2342  0.8520  0.2463
    8CHTO   O56 3088   6.570   8.280   0.696  0.2321  0.1192 -1.0679
    8CHTO  H135 3089   6.504   8.318   0.640  0.6348 -0.4561 -1.9425
    8CHTO   C81 3090   6.656   8.235   0.464 -0.0025  0.3866  0.4835
    8CHTO  H153 3091   6.748   8.200   0.417 -0.5420  0.9437 -1.0463
    8CHTO   N14 3092   6.657   8.375   0.415  0.4948  0.4173 -0.2608
    8CHTO  H141 3093   6.742   8.435   0.439  0.0052  0.9837  0.0573
    8CHTO  H142 3094   6.631   8.386   0.311 -2.1228  0.4095  0.3569
    8CHTO   C79 3095   6.538   8.144   0.408  0.3665 -0.2641  0.1894
    8CHTO  H151 3096   6.546   8.146   0.299  1.7629  0.6657  0.2867
    8CHTO   O52 3097   6.560   8.011   0.453 -0.3896  0.4214 -0.2932
    8CHTO   C86 3098   6.571   7.994   0.598 -0.0014  0.7861 -0.7830
    8CHTO  H158 3099   6.471   8.029   0.634 -0.9813 -0.5361 -2.1562
    8CHTO   C90 3100   6.580   7.848   0.642 -0.9457  0.0499 -0.6086
    8CHTO   O60 3101   6.471   7.763   0.598  0.0038 -0.6871  0.6222
    8CHTO  H138 3102   6.494   7.681   0.637 -1.4277 -0.9516  0.9355
    8CHTO   O50 3103   6.411   8.191   0.448  0.0298 -0.4369  0.4144
    8CHTO   C73 3104   6.270   8.195   0.403  0.2541 -0.1746 -0.6577
    8CHTO  H145 3105   6.249   8.094   0.365 -1.3278  0.8045 -2.5124
    8CHTO   C74 3106   6.250   8.302   0.290 -0.1559 -1.0169  0.2044
    8CHTO  H146 3107   6.306   8.283   0.197  0.6524  1.3529  0.1549
    8CHTO   O54 3108   6.114   8.302   0.243 -0.3622  0.5304  0.6309
    8CHTO  H133 3109   6.090   8.229   0.190  0.0760 -1.1293  2.6660
    8CHTO   C75 3110   6.296   8.439   0.348  0.5447 -0.1501  0.2902
    8CHTO  H147 3111   6.403   8.433   0.371  0.3947  0.7487  1.2800
    8CHTO   N13 3112   6.295   8.558   0.262 -0.1890  0.0033 -0.3991
    8CHTO  H139 3113   6.349   8.553   0.168 -0.9335 -3.3859 -0.7244
    8CHTO  H140 3114   6.192   8.580   0.241 -0.3381 -0.8034 -0.5377
    8CHTO   C76 3115   6.222   8.464   0.491  0.1401 -0.3992 -0.4659
    8CHTO  H148 3116   6.122   8.493   0.460  0.1983  0.4920  0.1496
    8CHTO   O49 3117   6.219   8.349   0.587 -0.1542 -0.4634 -0.0679
    8CHTO   C77 3118   6.181   8.224   0.526  0.6674  0.6438  0.4034
    8CHTO  H149 3119   6.078   8.246   0.496  0.0917 -1.1266  1.0336
    8CHTO   C88 3120   6.190   8.109   0.632  0.5364  0.7036  0.6799
    8CHTO   O58 3121   6.132   8.140   0.721 -0.7510 -0.1671 -0.0964
    8CHTO  H136 3122   6.124   8.070   0.782 -1.1190  1.5690  1.9058
    8CHTO   O51 3123   6.300   8.570   0.574 -0.5889  0.0670 -0.4869
    8CHTO   C78 3124   6.223   8.644   0.685  0.6941  0.5815  0.7391
    8CHTO  H150 3125   6.122   8.606   0.708  0.7015  0.2531  0.2271
    8CHTO   C80 3126   6.203   8.788   0.632  0.2178  0.5450 -0.0834
    8CHTO  H152 3127   6.303   8.831   0.612  0.7788 -2.0854 -3.4469
    8CHTO   O55 3128   6.127   8.786   0.509 -0.0755  0.6502 -0.1207
    8CHTO  H134 3129   6.168   8.724   0.452  0.4188  0.7516  0.1216
    8CHTO   C84 3130   6.133   8.869   0.750  0.4165 -0.6447  0.4602
    8CHTO  H156 3131   6.034   8.829   0.774 -1.0246  2.4308 -0.1945
    8CHTO   N15 3132   6.117   9.017   0.715 -0.7465  0.2406 -0.1762
    8CHTO  H143 3133   6.201   9.076   0.685  0.1831  0.0077  1.8939
    8CHTO  H144 3134   6.029   9.042   0.659 -2.4966 -0.6143  2.1289
    8CHTO   C87 3135   6.208   8.861   0.882  0.2430  0.0613  0.1444
    8CHTO  H159 3136   6.302   8.915   0.882  1.3048 -1.7400  1.0521
    8CHTO   O53 3137   6.244   8.704   0.921  0.2514 -0.3968 -0.4450
    8CHTO   C82 3138   6.307   8.638   0.812 -0.2902 -0.3084 -0.0855
    8CHTO  H154 3139   6.403   8.686   0.793 -0.3365  0.2393  1.0458
    8CHTO   C89 3140   6.348   8.489   0.843  0.2090 -0.2947  0.4736
    8CHTO   O59 3141   6.255   8.409   0.917 -0.3586  0.3737  0.8982
    8CHTO  H137 3142   6.179   8.384   0.868  0.3218 -0.7135  0.3787
    8CHTO   O45 3143   6.133   8.925   1.006  0.0830  0.4862 -0.4905
    8CHTO   C67 3144   6.153   8.865   1.137  0.5457  0.0602  0.3261
    8CHTO  H124 3145   6.117   8.762   1.132 -1.1543  0.6470 -0.0942
    8CHTO   C65 3146   6.307   8.867   1.177 -0.6904  0.0427  0.2482
    8CHTO  H122 3147   6.366   8.818   1.099 -1.6961 -1.5385  0.4386
    8CHTO   O44 3148   6.323   8.789   1.297 -0.9062  0.4780  0.1698
    8CHTO  H102 3149   6.280   8.706   1.302 -1.7377  0.7033 -2.4613
    8CHTO   C63 3150   6.349   9.017   1.188  0.0052  0.1050  0.5042
    8CHTO  H120 3151   6.329   9.070   1.095 -1.6811 -0.4615  0.5263
    8CHTO   N11 3152   6.495   9.038   1.191  0.3271 -0.0617  0.0732
    8CHTO  H108 3153   6.543   8.979   1.115 -1.9551 -0.8782 -0.7720
    8CHTO  H109 3154   6.518   9.143   1.196 -1.3999  0.3672 -0.7165
    8CHTO   C61 3155   6.268   9.089   1.302  0.1334 -0.1787 -0.3466
    8CHTO  H118 3156   6.294   9.193   1.277 -0.8209 -0.3334 -2.0897
    8CHTO   O40 3157   6.122   9.078   1.278 -0.0326 -0.9401 -0.2441
    8CHTO   C68 3158   6.063   8.939   1.245  0.2785 -0.0778 -0.2098
    8CHTO  H125 3159   5.964   8.956   1.199  0.2394 -0.0320 -0.1097
    8CHTO   C72 3160   6.042   8.853   1.372  0.1740  0.0393  0.0821
    8CHTO   O48 3161   5.940   8.754   1.341 -0.5269 -0.4251 -0.1718
    8CHTO  H105 3162   5.928   8.694   1.411  0.7054  0.0446  0.4603
    8CHTO   O38 3163   6.308   9.058   1.435  0.4579  0.0206  0.1535
    8CHTO   C55 3164   6.314   9.166   1.535 -0.3741 -0.6791  0.0234
    8CHTO  H112 3165   6.319   9.266   1.489 -3.0405 -1.2633 -1.6782
    8CHTO   C56 3166   6.447   9.131   1.618  0.5032  0.1583  0.4340
    8CHTO  H113 3167   6.536   9.131   1.552  1.0323 -1.2556  1.1248
    8CHTO   O42 3168   6.479   9.239   1.706  0.0351 -0.2881  0.0108
    8CHTO  H100 3169   6.477   9.320   1.659  1.8912 -0.5039 -0.4971
    8CHTO   C57 3170   6.440   8.995   1.698 -0.2595 -0.3246  0.4176
    8CHTO  H114 3171   6.496   9.015   1.789  2.8752 -3.0780 -0.8168
    8CHTO   N10 3172   6.511   8.881   1.629 -0.4668  0.4608  0.1791
    8CHTO  H106 3173   6.449   8.818   1.566 -0.8430  1.8106 -0.8462
    8CHTO  H107 3174   6.585   8.925   1.565 -0.1708  0.7778  0.7406
    8CHTO   C58 3175   6.287   8.963   1.723  0.0120 -0.6011 -0.1180
    8CHTO  H115 3176   6.236   8.919   1.635  2.0570 -0.6166 -1.3361
    8CHTO   O37 3177   6.215   9.084   1.748  0.2569 -0.1106 -0.1809
    8CHTO   C59 3178   6.187   9.162   1.624  0.6078 -0.2904  0.0773
    8CHTO  H116 3179   6.099   9.122   1.574 -0.0747  0.1144  0.9397
    8CHTO   C70 3180   6.135   9.299   1.671  0.2601  0.3049  0.3699
    8CHTO   O46 3181   6.223   9.383   1.741 -0.1501 -0.9177  0.7442
    8CHTO  H103 3182   6.183   9.468   1.748  0.6664 -0.6075  1.7026
    8CHTO   O39 3183   6.256   8.857   1.834 -0.3896 -0.4795  0.3648
    8CHTO   C60 3184   6.159   8.753   1.807 -0.2532 -0.1195  0.3527
    8CHTO  H117 3185   6.073   8.797   1.757  0.1440 -0.3562 -0.5493
    8CHTO   C62 3186   6.208   8.644   1.712  0.8646  0.3193 -0.2744
    8CHTO  H119 3187   6.242   8.701   1.623 -1.0337 -1.3912 -2.1417
    8CHTO   O43 3188   6.329   8.574   1.759  0.2842  0.5123  0.5147
    8CHTO  H101 3189   6.349   8.492   1.717 -0.4145  0.6768 -0.1604
    8CHTO   C66 3190   6.090   8.542   1.673  0.7383 -0.5697  0.8163
    8CHTO  H123 3191   5.999   8.598   1.650 -1.2031 -2.1114  4.4337
    8CHTO   N12 3192   6.130   8.462   1.557  0.2828 -0.4020  0.1885
    8CHTO  H110 3193   6.133   8.357   1.584 -1.1699 -0.0672  1.7388
    8CHTO  H111 3194   6.072   8.468   1.466  1.8527 -0.6374 -0.8465
    8CHTO   C69 3195   6.047   8.469   1.805 -0.4967 -1.5864  0.1048
    8CHTO  H126 3196   6.127   8.412   1.857  1.3491 -0.9004 -1.8604
    8CHTO   O41 3197   5.993   8.572   1.907  0.0391  0.2207  0.2163
    8CHTO   C64 3198   6.107   8.691   1.943  0.3320 -0.3836  0.0768
    8CHTO  H121 3199   6.194   8.654   2.002 -0.0973  0.6193  1.3616
    8CHTO   C71 3200   6.037   8.796   2.039  0.1742  0.2133  0.1659
    8CHTO   O47 3201   6.123   8.897   2.070  0.0615 -0.2012 -0.1859
    8CHTO  H104 3202   6.088   8.979   2.102  3.5467  1.5190 -0.4971
    8CHTO   O34 3203   5.932   8.378   1.769  0.1895 -0.2546 -0.0081
    8CHTO   C49 3204   5.845   8.285   1.870 -0.2522  1.1277 -0.0138
    8CHTO   H91 3205   5.913   8.240   1.943 -0.9297 -4.0420 -2.3860
    8CHTO   C47 3206   5.776   8.180   1.776  0.4291 -0.4410 -0.5766
    8CHTO   H89 3207   5.737   8.100   1.844 -3.3078 -0.6224 -2.7619
    8CHTO   O33 3208   5.868   8.124   1.681 -0.1333  0.4775 -0.2381
    8CHTO   H70 3209   5.941   8.098   1.732 -0.3365 -0.6897 -0.5311
    8CHTO   C45 3210   5.657   8.250   1.694 -0.0525  0.6685 -0.2987
    8CHTO   H87 3211   5.694   8.276   1.594  0.0846  0.0817 -0.4014
    8CHTO    N8 3212   5.538   8.164   1.674  0.2582 -0.2529  0.4401
    8CHTO   H75 3213   5.507   8.120   1.768  0.9279 -0.4889  0.5538
    8CHTO   H76 3214   5.458   8.222   1.631  1.9023  1.0189 -1.0092
    8CHTO   C43 3215   5.618   8.398   1.751 -0.8353 -0.0919  0.3543
    8CHTO   H85 3216   5.702   8.455   1.713 -0.8167 -0.5481 -0.2935
    8CHTO   O29 3217   5.617   8.398   1.895  0.0140 -0.2868  0.3047
    8CHTO   C50 3218   5.743   8.366   1.951  0.4895 -0.2321  0.1986
    8CHTO   H92 3219   5.788   8.464   1.975 -0.8250  0.1089  1.3592
    8CHTO   C54 3220   5.720   8.293   2.086  0.9235  0.6258 -0.0044
    8CHTO   O36 3221   5.618   8.187   2.088 -0.0195  0.3340 -0.6681
    8CHTO   H72 3222   5.591   8.164   2.176  1.4166  2.4949  0.3750
    8CHTO   O27 3223   5.490   8.455   1.700  0.0792  0.9569  0.1139
    8CHTO   C37 3224   5.390   8.521   1.626  0.2211 -1.1935 -0.2210
    8CHTO   H79 3225   5.377   8.476   1.526 -0.4500 -2.5087  0.4533
    8CHTO   C38 3226   5.261   8.514   1.709  0.7607 -0.2897 -0.9526
    8CHTO   H80 3227   5.287   8.565   1.803 -2.7302 -1.2227  0.6131
    8CHTO   O31 3228   5.222   8.377   1.732 -0.1030  0.3330  0.3783
    8CHTO   H68 3229   5.197   8.343   1.648 -0.1007 -1.3480  1.0259
    8CHTO   C39 3230   5.146   8.606   1.648 -0.6772 -0.2202 -0.1432
    8CHTO   H81 3231   5.124   8.562   1.551  3.7521 -1.8553 -0.5299
    8CHTO    N7 3232   5.016   8.596   1.727  0.6018  0.0896 -0.3390
    8CHTO   H73 3233   4.999   8.491   1.745 -0.6998 -0.2174 -3.0356
    8CHTO   H74 3234   4.937   8.619   1.656  1.4609  1.2956 -0.9226
    8CHTO   C40 3235   5.194   8.756   1.633 -0.5266  0.5288  0.0763
    8CHTO   H82 3236   5.204   8.793   1.735  0.8688 -0.1549  0.2007
    8CHTO   O26 3237   5.322   8.758   1.562 -0.0007 -0.3575  0.0159
    8CHTO   C41 3238   5.430   8.673   1.612  0.4735 -0.3243  0.3384
    8CHTO   H83 3239   5.469   8.704   1.710 -1.5552  0.6705  0.8678
    8CHTO   C52 3240   5.548   8.684   1.512  0.1680 -0.5448  0.6269
    8CHTO   O35 3241   5.595   8.815   1.497  0.4991 -0.4127  1.3064
    8CHTO   H71 3242   5.546   8.845   1.423 -1.2357 -2.5834  1.5195
    8CHTO   O28 3243   5.092   8.845   1.576 -0.5010 -0.0425 -0.0712
    8CHTO   C42 3244   5.088   8.873   1.431 -0.0622 -0.3209  0.0743
    8CHTO   H84 3245   5.006   8.943   1.421 -0.2946 -0.5749  0.2051
    8CHTO   C44 3246   5.049   8.749   1.338  0.4377 -0.0096 -0.5141
    8CHTO   H86 3247   5.125   8.671   1.348 -1.1276 -1.3050  1.4052
    8CHTO   O32 3248   4.923   8.720   1.396 -0.4191  0.0092 -0.0225
    8CHTO   H69 3249   4.935   8.634   1.432 -0.4621  0.1309  0.2844
    8CHTO   C48 3250   5.042   8.785   1.189  0.1933  0.0427  0.5451
    8CHTO   H90 3251   4.964   8.857   1.163  2.1638  2.0355 -0.0004
    8CHTO    N9 3252   4.999   8.674   1.097  0.2127  0.6317  0.4154
    8CHTO   H77 3253   4.960   8.717   1.006  0.8109 -1.1922 -0.7211
    8CHTO   H78 3254   5.071   8.594   1.083 -1.3591 -0.9113  1.0082
    8CHTO   C51 3255   5.181   8.846   1.147 -0.5332 -0.4489 -0.0313
    8CHTO   H93 3256   5.250   8.767   1.175  0.3489  0.4107  0.2406
    8CHTO   O30 3257   5.202   8.966   1.222 -0.3413  0.0761 -0.0449
    8CHTO   C46 3258   5.218   8.941   1.363  0.0385 -0.2099  0.0892
    8CHTO   H88 3259   5.299   8.868   1.368  0.8797  0.8338  2.0584
    8CHTO   C53 3260   5.232   9.069   1.446 -0.0266  0.5269  0.2197
    8CHTO   O72 3261   5.350   9.144   1.413 -0.0839 -0.2172  0.0202
    8CHTO  H199 3262   5.424   9.095   1.382 -1.4041 -0.7779 -2.3076
    8CHTO   O22 3263   5.203   8.886   1.010  0.3910  0.4717 -0.0129
    8CHTO   C31 3264   5.331   8.895   0.939 -0.2941  0.0577 -0.0875
    8CHTO   H59 3265   5.333   8.996   0.892  1.0090 -0.5792 -1.4261
    8CHTO   C29 3266   5.459   8.894   1.035 -0.3332 -0.4889  0.7938
    8CHTO   H57 3267   5.450   8.818   1.115  0.6750 -1.7547 -0.2663
    8CHTO   O21 3268   5.459   9.027   1.097 -0.0866  0.3174  0.1514
    8CHTO   H37 3269   5.438   9.097   1.038  0.4853  1.0295  0.7799
    8CHTO   C27 3270   5.596   8.867   0.955  0.9999 -0.7741 -0.1827
    8CHTO   H55 3271   5.622   8.958   0.898  0.2146 -0.9395 -0.7936
    8CHTO    N5 3272   5.704   8.843   1.053  0.4335  0.4423  0.9172
    8CHTO   H43 3273   5.718   8.939   1.101  0.1625  2.3942 -2.7415
    8CHTO   H44 3274   5.668   8.764   1.116 -1.6859  0.4736 -0.2131
    8CHTO   C25 3275   5.591   8.766   0.839  0.5787 -0.0592 -0.4893
    8CHTO   H53 3276   5.561   8.667   0.876 -1.7999 -0.0561 -2.3284
    8CHTO   O17 3277   5.472   8.796   0.762 -0.1147  0.1228  0.9747
    8CHTO   C32 3278   5.340   8.790   0.822 -0.9928  0.9362  0.3884
    8CHTO   H60 3279   5.330   8.688   0.859  3.1288 -0.6101 -2.3741
    8CHTO   C36 3280   5.223   8.829   0.721  0.5257  0.0356  0.4854
    8CHTO   O25 3281   5.245   8.781   0.583  0.4320 -0.0887 -0.3813
    8CHTO   H40 3282   5.190   8.811   0.513 -0.9462 -0.4546  0.5470
    8CHTO   O15 3283   5.719   8.744   0.750 -0.0754  0.2185 -0.4976
    8CHTO   C19 3284   5.714   8.701   0.605  0.2284 -0.3190 -0.3008
    8CHTO   H47 3285   5.615   8.656   0.590  0.1454 -0.7977  1.4720
    8CHTO   C20 3286   5.729   8.832   0.514 -0.1634 -1.0764 -0.1579
    8CHTO   H48 3287   5.827   8.879   0.529 -0.6723 -0.6963  2.0981
    8CHTO   O19 3288   5.625   8.921   0.554 -0.2775 -0.1649  0.3350
    8CHTO   H35 3289   5.633   8.949   0.643  1.0825  0.3939  0.0416
    8CHTO   C21 3290   5.726   8.791   0.364 -0.0055 -0.0249  0.3682
    8CHTO   H49 3291   5.624   8.757   0.346 -0.4644  0.1994  2.3934
    8CHTO    N4 3292   5.753   8.912   0.279  0.7180  0.0162  0.1510
    8CHTO   H41 3293   5.852   8.941   0.311  0.9910 -0.6441 -0.1005
    8CHTO   H42 3294   5.681   8.985   0.312 -0.6574 -1.8850  1.4422
    8CHTO   C22 3295   5.816   8.676   0.332 -0.5377  0.5717  0.7341
    8CHTO   H50 3296   5.920   8.710   0.333  0.6582 -2.8161  3.5884
    8CHTO   O14 3297   5.797   8.568   0.426  0.3116  0.4372  0.3718
    8CHTO   C23 3298   5.824   8.603   0.561 -0.5128 -0.2179 -0.0925
    8CHTO   H51 3299   5.921   8.653   0.566 -0.6179  0.0212 -0.4099
    8CHTO   C34 3300   5.824   8.476   0.640  0.0983  0.5499 -0.1912
    8CHTO   O23 3301   5.884   8.491   0.775  0.5754  0.3309  0.1778
    8CHTO   H38 3302   5.977   8.482   0.772  0.6179  0.4728  0.9715
    8CHTO   O16 3303   5.769   8.612   0.212 -0.3145  0.1208  0.0557
    8CHTO   C24 3304   5.893   8.527   0.124  0.0414 -0.0833 -0.4268
    8CHTO   H52 3305   5.968   8.492   0.194 -0.6626  2.0104  1.4266
    8CHTO   C26 3306   5.952   8.620   0.022 -0.2580 -0.3048  0.3981
    8CHTO   H54 3307   5.871   8.663  -0.039  0.8091  2.6863  0.9901
    8CHTO   O20 3308   6.027   8.726   0.087 -0.3514 -0.0446 -0.6890
    8CHTO   H36 3309   6.007   8.811   0.052 -1.2181  0.7751  1.6911
    8CHTO   C30 3310   6.042   8.539  -0.071 -0.9385 -0.6147 -0.8556
    8CHTO   H58 3311   6.139   8.521  -0.021 -1.2630 -0.7230 -0.2703
    8CHTO    N6 3312   6.079   8.619  -0.193  0.9076 -0.9140 -0.5409
    8CHTO   H45 3313   6.133   8.704  -0.154 -0.4273  0.6728 -2.0785
    8CHTO   H46 3314   6.149   8.567  -0.256 -0.7802 -2.3001 -1.3027
    8CHTO   C33 3315   5.978   8.405  -0.121  0.6165 -0.1309  0.5052
    8CHTO   H61 3316   5.895   8.420  -0.191 -1.3228  0.2815  2.8739
    8CHTO   O18 3317   5.934   8.341  -0.002  0.3510  0.5805  0.3130
    8CHTO   C28 3318   5.828   8.400   0.067 -0.6005 -0.0309 -0.6039
    8CHTO   H56 3319   5.750   8.431  -0.003 -0.0415  0.9040 -0.8231
    8CHTO   C35 3320   5.766   8.310   0.180  0.4507 -0.4846 -0.1187
    8CHTO   O24 3321   5.735   8.173   0.140  0.0420  0.5404 -0.5808
    8CHTO   H39 3322   5.645   8.149   0.150  0.1654  0.8403  1.3490
    8CHTO    O9 3323   6.074   8.321  -0.192 -0.5541  0.5833  0.4536
    8CHTO   C13 3324   5.992   8.214  -0.295 -0.5154  0.4628  0.1008
    8CHTO   H26 3325   5.892   8.258  -0.315 -0.5294  1.0253  1.3313
    8CHTO   C11 3326   5.981   8.064  -0.234 -0.7314 -0.0412 -1.1438
    8CHTO   H24 3327   5.883   8.022  -0.263 -0.7299  0.5903 -2.0882
    8CHTO    O8 3328   5.968   8.085  -0.096  0.1707  0.7295 -0.2549
    8CHTO    H3 3329   6.051   8.105  -0.058  0.5274 -0.9191 -0.1145
    8CHTO    C9 3330   6.092   7.969  -0.284  0.5771 -0.3891 -0.0822
    8CHTO   H22 3331   6.063   7.937  -0.385 -1.0140 -0.1861  0.2894
    8CHTO    N2 3332   6.108   7.845  -0.202 -0.7048  0.3378  0.2995
    8CHTO   H10 3333   6.213   7.825  -0.182 -0.0129  2.0966 -1.4642
    8CHTO   H11 3334   6.062   7.863  -0.106 -1.2580  1.0585 -0.0933
    8CHTO    C7 3335   6.225   8.062  -0.300 -0.6578 -0.5706 -0.3588
    8CHTO   H20 3336   6.307   7.990  -0.323 -0.9238 -0.7514 -0.7629
    8CHTO    O4 3337   6.211   8.156  -0.410 -0.3409  0.1294 -0.2222
    8CHTO   C14 3338   6.073   8.206  -0.431  0.4190 -0.2926 -0.3785
    8CHTO   H27 3339   6.029   8.131  -0.500  0.0521 -0.3773 -0.0495
    8CHTO   C18 3340   6.082   8.339  -0.509  0.1080  0.9975 -0.1967
    8CHTO   O13 3341   6.166   8.436  -0.440 -0.0715  0.5478 -0.4649
    8CHTO    H7 3342   6.121   8.483  -0.372  3.0654  1.5514  1.0114
    8CHTO    O2 3343   6.267   8.142  -0.155 -0.5494 -0.5510 -0.1886
    8CHTO    C1 3344   6.406   8.172  -0.125 -0.5007 -0.3653  0.0787
    8CHTO   H14 3345   6.403   8.239  -0.037  0.7815  1.7224 -1.4350
    8CHTO    C2 3346   6.484   8.257  -0.242 -0.3530 -0.6863 -0.4435
    8CHTO   H15 3347   6.480   8.202  -0.337 -2.8604  1.5595 -1.7200
    8CHTO    O6 3348   6.409   8.381  -0.258 -0.2928  0.3260 -0.1427
    8CHTO    H1 3349   6.443   8.437  -0.325 -0.7728  0.4026 -0.3289
    8CHTO    C3 3350   6.640   8.275  -0.199 -0.3891 -0.9747 -0.0112
    8CHTO   H16 3351   6.636   8.334  -0.106  0.3452 -0.2806 -0.4145
    8CHTO    N1 3352   6.720   8.346  -0.300  0.0790 -0.6312  1.1309
    8CHTO    H8 3353   6.809   8.297  -0.336 -1.4832 -2.5743 -0.1637
    8CHTO    H9 3354   6.729   8.453  -0.284 -0.7075 -0.2827 -0.5961
    8CHTO    C4 3355   6.706   8.140  -0.156  0.5145 -0.1403  0.0231
    8CHTO   H17 3356   6.706   8.066  -0.236 -0.3388 -0.2969  0.1580
    8CHTO    O1 3357   6.620   8.075  -0.053 -0.0061 -0.0934  0.4998
    8CHTO    C5 3358   6.480   8.043  -0.082  0.0820  0.0202 -0.0298
    8CHTO   H18 3359   6.467   7.974  -0.165 -0.5486  0.6379 -0.4465
    8CHTO   C16 3360   6.426   7.977   0.054  0.7978 -0.3968  0.7793
    8CHTO   O11 3361   6.286   7.973   0.078  0.1743 -0.3952 -0.7836
    8CHTO    H5 3362   6.264   8.056   0.117  1.3377  1.0180 -3.0905
    8CHTO    O3 3363   6.838   8.163  -0.107  0.0389  0.7954 -0.2676
    8CHTO    C6 3364   6.876   8.163   0.039 -0.0606  0.0273 -0.3961
    8CHTO   H19 3365   6.788   8.171   0.103 -0.4893  0.4384 -1.0281
    8CHTO    C8 3366   6.956   8.040   0.085 -0.0980 -0.5374  0.0234
    8CHTO   H21 3367   7.043   8.023   0.020 -0.5399 -1.9167 -0.2328
    8CHTO    O7 3368   6.873   7.927   0.078 -0.1085  0.0010  0.3342
    8CHTO    H2 3369   6.907   7.842   0.054  0.2585 -0.3560  2.0767
    8CHTO   C12 3370   7.002   8.057   0.238  0.3657 -0.0342 -0.2605
    8CHTO   H25 3371   6.905   8.047   0.292 -0.1206 -0.5408 -1.2178
    8CHTO    N3 3372   7.096   7.948   0.288  0.6813  0.3610  0.0811
    8CHTO   H12 3373   7.129   7.899   0.197 -1.5212 -0.6879 -0.1991
    8CHTO   H13 3374   7.180   7.991   0.340  1.3154  0.3633 -0.9165
    8CHTO   C15 3375   7.058   8.199   0.273 -0.7822  0.4297 -0.0435
    8CHTO   H28 3376   7.164   8.207   0.249 -0.9733 -0.8423 -1.3775
    8CHTO   O10 3377   7.033   8.245   0.422 -0.0199 -0.5250  0.2346
    8CHTO    H4 3378   7.032   8.339   0.430 -2.4937 -0.3012 -1.9757
    8CHTO    O5 3379   6.980   8.305   0.210 -0.2286  0.3143 -0.6441
    8CHTO   C10 3380   6.956   8.285   0.068 -0.6220  0.2920 -0.4787
    8CHTO   H23 3381   7.056   8.287   0.023 -0.1609 -1.1690  0.4308
    8CHTO   C17 3382   6.877   8.412   0.023  0.5165 -0.7546 -0.4631
    8CHTO   O12 3383   6.749   8.416   0.084  0.5396 -0.3188  0.0527
    8CHTO    H6 3384   6.766   8.423   0.176  2.3987 -0.5774 -0.2494
    9CHTO  H203 3385   5.983   3.280   1.737  0.5921 -0.1587  0.5683
    9CHTO   O82 3386   5.949   3.285   1.650  0.2579  0.2760  0.7231
    9CHTO  C123 3387   5.935   3.155   1.597 -0.0243  0.5398  0.0559
    9CHTO  H227 3388   5.857   3.099   1.649 -0.1293 -1.1052 -1.8259
    9CHTO   O77 3389   5.899   3.170   1.453 -0.4170  0.2395 -0.2566
    9CHTO  C118 3390   5.872   3.053   1.386 -0.2345 -1.0925  0.2690
    9CHTO  H222 3391   5.799   2.991   1.440 -0.1061 -0.6967  0.8927
    9CHTO  C125 3392   5.808   3.088   1.240  0.0843  0.2059 -0.0731
    9CHTO   O84 3393   5.684   3.167   1.254 -0.7912 -0.0555  0.0230
    9CHTO  H205 3394   5.702   3.258   1.236 -1.4549 -0.2773 -1.8284
    9CHTO  C114 3395   6.006   2.974   1.378  0.5788  0.0716 -0.2722
    9CHTO  H218 3396   6.074   3.037   1.320 -1.5330  1.9843 -0.7222
    9CHTO  C116 3397   6.058   2.948   1.521 -0.5399  0.7738  0.5777
    9CHTO  H220 3398   5.997   2.868   1.568  0.3509  0.6229  1.4868
    9CHTO   O79 3399   6.188   2.885   1.515 -0.1476 -0.2854 -0.0381
    9CHTO  H201 3400   6.242   2.935   1.456  1.7013 -3.0346 -0.7652
    9CHTO  C120 3401   6.064   3.079   1.613 -0.4895  0.0547 -0.0452
    9CHTO  H224 3402   6.145   3.146   1.577 -0.2593 -1.5946 -2.7170
    9CHTO   N21 3403   6.094   3.033   1.755 -0.5085  0.5911  0.3162
    9CHTO  H211 3404   6.061   3.107   1.826 -1.6477 -0.4175  0.8539
    9CHTO  H212 3405   6.198   3.008   1.770 -0.3708  0.0025 -1.4537
    9CHTO   O75 3406   5.972   2.860   1.305  0.3462  0.1162  0.1523
    9CHTO  C112 3407   6.098   2.795   1.230  0.0568  0.5490  0.2206
    9CHTO  H216 3408   6.154   2.737   1.305 -0.9523 -0.6813  0.0381
    9CHTO   O73 3409   6.181   2.892   1.162 -0.1529 -0.0484 -0.1584
    9CHTO  C113 3410   6.299   2.854   1.086 -0.0903 -0.0111  0.2195
    9CHTO  H217 3411   6.367   2.797   1.154 -0.4876 -0.8327 -0.0606
    9CHTO  C124 3412   6.375   2.970   1.035 -0.4320 -0.0205 -0.2969
    9CHTO   O83 3413   6.277   3.048   0.961  0.1027 -0.6553 -0.6349
    9CHTO  H204 3414   6.313   3.126   0.923 -2.1070  1.4296  1.3044
    9CHTO  C109 3415   6.265   2.751   0.972  0.7597 -0.2423  0.0093
    9CHTO  H213 3416   6.211   2.808   0.893 -0.2251 -0.1697  0.7253
    9CHTO  C110 3417   6.172   2.634   1.029  0.4265  0.4122 -0.7205
    9CHTO  H214 3418   6.233   2.561   1.082 -1.5978 -1.2156 -0.5525
    9CHTO   O78 3419   6.133   2.549   0.915 -0.7132  0.4435  0.1624
    9CHTO  H200 3420   6.073   2.479   0.932 -1.3029  0.6358 -1.0882
    9CHTO  C111 3421   6.054   2.687   1.114  0.3627 -0.3610 -0.4838
    9CHTO  H215 3422   5.980   2.732   1.047 -0.0809  0.4678  0.5537
    9CHTO   N19 3423   5.984   2.573   1.183 -0.4803  0.0866 -0.1858
    9CHTO  H207 3424   5.895   2.591   1.241 -0.3041 -1.1668  0.5016
    9CHTO  H208 3425   6.050   2.525   1.254 -1.4562  1.4647  1.6921
    9CHTO   O74 3426   6.395   2.704   0.912 -0.6688  0.0312  0.5128
    9CHTO  C115 3427   6.395   2.640   0.761 -0.4416 -0.2014  1.1182
    9CHTO  H219 3428   6.398   2.531   0.760 -0.5111 -0.2031  0.8902
    9CHTO   O76 3429   6.259   2.674   0.681  0.0572  0.3291 -0.4170
    9CHTO  C122 3430   6.249   2.629   0.548 -0.2812 -0.0934 -0.9768
    9CHTO  H226 3431   6.174   2.692   0.499 -0.1240 -0.3993 -1.6112
    9CHTO  C126 3432   6.189   2.482   0.554  0.3588 -0.7962  0.5813
    9CHTO   O85 3433   6.060   2.458   0.609  0.1549 -0.2805 -0.4333
    9CHTO  H206 3434   6.054   2.518   0.681  1.8998  2.6861 -2.6746
    9CHTO  C121 3435   6.383   2.635   0.472 -0.7014  0.1357  0.3175
    9CHTO  H225 3436   6.430   2.536   0.456 -1.2138 -0.3480  1.7220
    9CHTO   O81 3437   6.349   2.684   0.340 -0.6750  0.2087  0.0503
    9CHTO  H202 3438   6.358   2.622   0.270 -0.4819 -0.0181  0.2738
    9CHTO  C119 3439   6.495   2.731   0.539  0.7227 -0.0578 -0.2949
    9CHTO  H223 3440   6.581   2.726   0.472  2.5981 -1.4090  2.1496
    9CHTO  C117 3441   6.530   2.684   0.687  0.7318  0.6784  1.0782
    9CHTO  H221 3442   6.575   2.761   0.750 -0.7906  1.5420  1.1484
    9CHTO   N20 3443   6.630   2.572   0.684  0.2211  0.5893  0.1155
    9CHTO  H209 3444   6.717   2.602   0.628  0.6450 -0.3842  0.2495
    9CHTO  H210 3445   6.646   2.509   0.770 -0.3412  0.4715  0.1326
    9CHTO   O80 3446   6.462   2.878   0.529  0.4123 -0.4650 -0.6493
    9CHTO  C103 3447   6.569   2.991   0.588  0.3839  0.6370 -0.6137
    9CHTO  H190 3448   6.578   2.979   0.696  1.7733 -1.7937 -0.9495
    9CHTO  C101 3449   6.710   2.987   0.528 -0.6197 -0.5709 -0.0672
    9CHTO  H188 3450   6.703   2.976   0.420 -3.2171 -3.1200  0.2873
    9CHTO   O68 3451   6.776   2.867   0.590  0.1342  0.3313  1.1675
    9CHTO  H168 3452   6.723   2.792   0.574 -0.8376  1.3609 -0.5497
    9CHTO   C99 3453   6.791   3.119   0.562 -0.1111  0.3118 -0.8554
    9CHTO  H186 3454   6.792   3.128   0.672 -0.4031 -1.7069 -0.6716
    9CHTO   N17 3455   6.933   3.128   0.513 -0.4070 -0.0448 -0.8283
    9CHTO  H174 3456   6.925   3.141   0.406 -2.9881  2.6489 -0.3700
    9CHTO  H175 3457   6.984   3.035   0.532 -0.2785 -0.0769 -1.3248
    9CHTO   C97 3458   6.706   3.243   0.510  0.6751 -0.3722 -0.4406
    9CHTO  H184 3459   6.698   3.236   0.401 -1.6668  0.4482 -0.3608
    9CHTO   O64 3460   6.573   3.244   0.571  0.4318  0.0189 -0.4757
    9CHTO  C104 3461   6.495   3.124   0.564 -0.2247  0.8447  0.6826
    9CHTO  H191 3462   6.453   3.117   0.463  1.6144  3.4266 -0.2926
    9CHTO  C108 3463   6.376   3.145   0.667 -0.6098 -0.0940 -0.1431
    9CHTO   O71 3464   6.278   3.228   0.600 -0.4210 -0.1877 -0.0498
    9CHTO  H171 3465   6.316   3.312   0.583 -2.7996  0.8849 -0.2688
    9CHTO   O62 3466   6.759   3.373   0.557 -0.5959  0.1998 -0.3385
    9CHTO   C91 3467   6.775   3.474   0.454 -0.4628 -0.7722 -0.2571
    9CHTO  H178 3468   6.833   3.439   0.368 -0.6193  0.6260 -0.9455
    9CHTO   C92 3469   6.854   3.584   0.530 -0.7153  0.6093 -0.2690
    9CHTO  H179 3470   6.822   3.599   0.634 -0.6421  3.0566 -0.5588
    9CHTO   O66 3471   6.987   3.530   0.531  0.0152 -0.1112 -0.2718
    9CHTO  H166 3472   7.050   3.600   0.532  1.5364 -1.2714 -4.3081
    9CHTO   C93 3473   6.850   3.721   0.455  0.7272  0.2900  0.2627
    9CHTO  H180 3474   6.892   3.713   0.354 -2.4413  1.5789 -1.2411
    9CHTO   N16 3475   6.924   3.832   0.515 -0.6594  0.3210  0.2717
    9CHTO  H172 3476   6.871   3.881   0.595 -1.9807 -0.3036 -0.2158
    9CHTO  H173 3477   7.018   3.795   0.555 -0.4539  2.3801  1.7519
    9CHTO   C94 3478   6.697   3.759   0.447  0.0594  0.7880  0.5019
    9CHTO  H181 3479   6.644   3.745   0.542  0.9074 -2.7393  0.5254
    9CHTO   O61 3480   6.644   3.668   0.348  0.3393 -0.3259 -0.4794
    9CHTO   C95 3481   6.643   3.536   0.403  0.2975  0.0054 -0.1639
    9CHTO  H182 3482   6.578   3.531   0.490 -1.4636 -1.6295 -1.5154
    9CHTO  C106 3483   6.566   3.449   0.303  0.2522 -0.2786 -0.0619
    9CHTO   O69 3484   6.427   3.491   0.311  0.1883  0.1109 -0.4788
    9CHTO  H169 3485   6.385   3.474   0.229  1.0418 -3.0358 -0.3019
    9CHTO   O63 3486   6.666   3.915   0.403 -0.2151 -0.2713 -0.0449
    9CHTO   C96 3487   6.549   3.971   0.480  0.4067 -0.5318 -0.0212
    9CHTO  H183 3488   6.552   3.928   0.580 -1.3530  0.5390  0.5238
    9CHTO   C98 3489   6.406   3.943   0.428  0.0443 -0.4821  0.0199
    9CHTO  H185 3490   6.385   3.991   0.331 -0.5974  0.3430  0.5581
    9CHTO   O67 3491   6.389   3.803   0.411 -0.0647 -0.4125 -0.2204
    9CHTO  H167 3492   6.411   3.777   0.323  0.4668 -1.3902  0.1917
    9CHTO  C102 3493   6.306   3.999   0.541  0.7026 -0.1627  0.6999
    9CHTO  H189 3494   6.315   3.932   0.628 -1.0087 -0.5889  0.5566
    9CHTO   N18 3495   6.166   3.996   0.494  0.2005  0.5079 -0.1527
    9CHTO  H176 3496   6.129   3.906   0.449 -0.8301  0.6346  0.4169
    9CHTO  H177 3497   6.152   4.076   0.422 -0.3487 -0.5977 -1.2959
    9CHTO  C105 3498   6.346   4.138   0.596 -0.1197 -0.3972 -0.4348
    9CHTO  H192 3499   6.318   4.218   0.527 -2.4976  0.7680  1.7951
    9CHTO   O65 3500   6.484   4.152   0.633  0.4862 -0.3155 -0.5453
    9CHTO  C100 3501   6.568   4.121   0.518 -0.1898  0.3179 -0.2591
    9CHTO  H187 3502   6.544   4.191   0.437  0.8639  1.7007  0.5771
    9CHTO  C107 3503   6.715   4.148   0.564  0.3092  0.7761  0.2908
    9CHTO   O70 3504   6.795   4.155   0.445  0.2752 -0.3898  0.4201
    9CHTO  H170 3505   6.850   4.089   0.407  0.0915  0.3939 -1.2549
    9CHTO   O57 3506   6.265   4.156   0.743 -0.4729 -0.1725  0.4422
    9CHTO   C85 3507   6.213   4.286   0.780  0.4663  0.5405 -0.1645
    9CHTO  H157 3508   6.150   4.309   0.692  0.5244  0.1731 -0.3024
    9CHTO   C83 3509   6.328   4.392   0.790 -0.3142  0.3009 -0.9167
    9CHTO  H155 3510   6.377   4.406   0.693 -1.4292 -1.1438 -1.7050
    9CHTO   O56 3511   6.431   4.350   0.873 -0.6272  0.2938  0.4935
    9CHTO  H135 3512   6.410   4.341   0.964  1.0149  0.3824  0.8948
    9CHTO   C81 3513   6.271   4.530   0.833 -0.1560  1.2466 -0.1120
    9CHTO  H153 3514   6.190   4.558   0.766 -2.3968  0.2729  2.1360
    9CHTO   N14 3515   6.368   4.640   0.822  0.2538 -0.7602 -0.5447
    9CHTO  H141 3516   6.316   4.727   0.857  0.4739 -0.5988 -0.6156
    9CHTO  H142 3517   6.451   4.625   0.888 -1.1861 -0.2166  1.4324
    9CHTO   C79 3518   6.207   4.513   0.974 -0.6377 -0.3299  0.0143
    9CHTO  H151 3519   6.160   4.609   0.994  0.2401  0.2771 -0.7891
    9CHTO   O52 3520   6.098   4.420   0.968 -0.2670  0.4122 -0.1986
    9CHTO   C86 3521   6.125   4.288   0.915 -0.2879 -0.3247 -0.3720
    9CHTO  H158 3522   6.182   4.230   0.991 -1.2231 -0.8050 -0.0310
    9CHTO   C90 3523   5.994   4.206   0.891 -0.3388  0.4142  0.2712
    9CHTO   O60 3524   5.918   4.197   1.005  0.4000  0.2147 -0.1191
    9CHTO  H138 3525   5.877   4.281   1.009  1.0531  0.5261  0.0477
    9CHTO   O50 3526   6.308   4.483   1.073 -0.1630 -0.4204  0.2061
    9CHTO   C73 3527   6.323   4.502   1.212 -0.4868 -0.1159 -0.4486
    9CHTO  H145 3528   6.230   4.474   1.264 -1.1003  0.9281 -0.9799
    9CHTO   C74 3529   6.366   4.650   1.240 -0.1290 -0.4561 -0.0242
    9CHTO  H146 3530   6.289   4.717   1.199 -1.2949  0.0593  2.9097
    9CHTO   O54 3531   6.351   4.675   1.384  0.5372  0.1313  0.4942
    9CHTO  H133 3532   6.425   4.646   1.434  1.4644  0.7217 -0.5021
    9CHTO   C75 3533   6.510   4.684   1.183  0.2587 -0.3532  0.0082
    9CHTO  H147 3534   6.507   4.670   1.074 -0.4879  0.2392 -0.0486
    9CHTO   N13 3535   6.558   4.816   1.222 -0.9178  0.5210  0.1009
    9CHTO  H139 3536   6.518   4.894   1.159 -1.3285  1.1602  1.1269
    9CHTO  H140 3537   6.544   4.857   1.321 -1.3927  2.0989 -0.6139
    9CHTO   C76 3538   6.612   4.569   1.224 -0.3042 -0.0555  0.2316
    9CHTO  H148 3539   6.626   4.575   1.332  0.3487 -1.5830  0.2442
    9CHTO   O49 3540   6.559   4.436   1.198 -0.1439 -0.2514 -0.1020
    9CHTO   C77 3541   6.433   4.404   1.257 -0.9950  0.3684 -0.3270
    9CHTO  H149 3542   6.436   4.404   1.366  2.6084  0.6774 -0.3531
    9CHTO   C88 3543   6.402   4.253   1.235  0.1946  0.3006  0.3674
    9CHTO   O58 3544   6.279   4.221   1.269 -0.0350  0.2477 -0.0686
    9CHTO  H136 3545   6.230   4.274   1.210 -0.2936  0.6028  0.4648
    9CHTO   O51 3546   6.756   4.575   1.135 -0.1958  0.2040  0.8843
    9CHTO   C78 3547   6.841   4.435   1.171  0.3875 -0.0103 -0.0755
    9CHTO  H150 3548   6.770   4.353   1.195  1.1658  0.0065  2.4523
    9CHTO   C80 3549   6.929   4.444   1.296  0.1357  0.3256  0.0428
    9CHTO  H152 3550   6.991   4.535   1.290 -0.2300  0.6427  0.9382
    9CHTO   O55 3551   6.857   4.469   1.418  0.1867  0.6781 -0.7658
    9CHTO  H134 3552   6.808   4.398   1.454 -0.7207  1.0480 -1.2575
    9CHTO   C84 3553   7.031   4.315   1.310 -1.1812  0.2645  0.5920
    9CHTO  H156 3554   6.975   4.226   1.341  1.9190 -2.2682 -0.7458
    9CHTO   N15 3555   7.147   4.338   1.413  0.3320 -0.1829  0.0100
    9CHTO  H143 3556   7.122   4.420   1.477 -0.9115 -1.7387  1.5606
    9CHTO  H144 3557   7.238   4.355   1.360  0.7210 -0.0766  0.7075
    9CHTO   C87 3558   7.088   4.267   1.176  0.3662 -0.0194  0.1640
    9CHTO  H159 3559   7.161   4.340   1.141 -0.8583  2.6642  2.9459
    9CHTO   O53 3560   6.965   4.245   1.086 -0.0876 -0.5770 -0.1558
    9CHTO   C82 3561   6.914   4.375   1.049  0.1712 -0.2460  0.2058
    9CHTO  H154 3562   7.002   4.431   1.016  0.5334 -0.8059  0.2272
    9CHTO   C89 3563   6.820   4.364   0.927 -0.4455 -0.1294 -0.1904
    9CHTO   O59 3564   6.895   4.347   0.807  0.5782 -0.3029 -0.1381
    9CHTO  H137 3565   6.864   4.405   0.739  1.1103  0.3127  0.1494
    9CHTO   O45 3566   7.160   4.119   1.197  0.0288  0.1281  0.7057
    9CHTO   C67 3567   7.156   4.034   1.076  0.1167 -0.0885  0.0109
    9CHTO  H124 3568   7.153   4.106   0.995  3.1847 -0.0673 -0.1367
    9CHTO   C65 3569   7.286   3.948   1.063  0.0437 -0.9864  0.6157
    9CHTO  H122 3570   7.365   4.015   1.096 -0.0387 -1.3092  1.4701
    9CHTO   O44 3571   7.299   3.899   0.929  0.1851  0.2513 -0.2489
    9CHTO  H102 3572   7.385   3.901   0.893  0.4876 -1.8451  0.2599
    9CHTO   C63 3573   7.287   3.841   1.176 -0.9054 -0.1295 -0.6025
    9CHTO  H120 3574   7.299   3.900   1.267 -2.0963 -0.1789 -0.4041
    9CHTO   N11 3575   7.413   3.760   1.183 -0.0982  0.2535 -0.3089
    9CHTO  H108 3576   7.435   3.729   1.083  0.0229  1.2253 -0.5790
    9CHTO  H109 3577   7.395   3.673   1.243 -3.4295  0.8715 -0.3137
    9CHTO   C61 3578   7.149   3.758   1.174 -0.1258  0.0344 -0.0213
    9CHTO  H118 3579   7.143   3.708   1.271 -2.4119 -1.2996 -0.8095
    9CHTO   O40 3580   7.032   3.841   1.159  0.5958 -0.2887 -0.3021
    9CHTO   C68 3581   7.022   3.948   1.059  0.4083 -0.2205 -1.0945
    9CHTO  H125 3582   6.936   4.011   1.090  0.7340 -0.9111  1.3520
    9CHTO   C72 3583   6.987   3.893   0.925  0.2260  0.2409 -0.2776
    9CHTO   O48 3584   6.946   4.001   0.841  0.2309 -0.4035  0.1392
    9CHTO  H105 3585   6.857   4.023   0.860  0.5138 -0.2652  1.3405
    9CHTO   O38 3586   7.143   3.659   1.073 -0.3007 -0.3678  0.7377
    9CHTO   C55 3587   7.086   3.528   1.092 -0.5718  0.5748 -0.4782
    9CHTO  H112 3588   7.037   3.522   1.191  0.8639 -0.0508  0.1968
    9CHTO   C56 3589   7.207   3.428   1.084  0.0834 -0.7993 -0.3647
    9CHTO  H113 3590   7.278   3.454   1.003  1.0763 -0.4673  0.6023
    9CHTO   O42 3591   7.274   3.453   1.206  0.3640  0.0032 -0.0249
    9CHTO  H100 3592   7.324   3.532   1.198  1.9739 -1.1154 -1.3803
    9CHTO   C57 3593   7.159   3.278   1.072  0.3097  0.1726 -0.9202
    9CHTO  H114 3594   7.098   3.253   1.159  2.0438 -0.9964 -0.0062
    9CHTO   N10 3595   7.275   3.179   1.059  0.2697 -0.2299 -0.3672
    9CHTO  H106 3596   7.364   3.195   1.117 -0.1121 -0.2217  0.2204
    9CHTO  H107 3597   7.300   3.190   0.954  0.3162  1.4805 -0.1905
    9CHTO   C58 3598   7.067   3.275   0.948  0.2523  0.6563  0.0945
    9CHTO  H115 3599   7.119   3.314   0.858  0.9117  0.8146  0.5467
    9CHTO   O37 3600   6.954   3.359   0.975 -0.2880  0.3720  0.0505
    9CHTO   C59 3601   6.983   3.497   0.981 -0.2938 -0.0583 -0.1897
    9CHTO  H116 3602   7.007   3.534   0.882  3.5010 -0.3134  0.5582
    9CHTO   C70 3603   6.846   3.560   1.006  0.4884  0.1076  0.1421
    9CHTO   O46 3604   6.792   3.515   1.132 -0.5025 -0.2867 -0.0964
    9CHTO  H103 3605   6.771   3.593   1.180  2.0276  1.5163 -1.8181
    9CHTO   O39 3606   6.993   3.133   0.907  0.3706 -0.2188  0.5113
    9CHTO   C60 3607   6.947   3.047   1.014 -0.0316 -0.3366  0.5373
    9CHTO  H117 3608   7.032   3.035   1.081  1.1303 -2.0058 -1.1927
    9CHTO   C62 3609   6.839   3.115   1.103 -0.0281  0.6255 -0.2387
    9CHTO  H119 3610   6.872   3.213   1.141 -1.4047  0.7198  0.7512
    9CHTO   O43 3611   6.721   3.129   1.019  0.0743 -0.8242 -0.8136
    9CHTO  H101 3612   6.650   3.166   1.068  3.0481  2.0888  1.5193
    9CHTO   C66 3613   6.804   3.016   1.224  0.2022 -0.1020 -0.2686
    9CHTO  H123 3614   6.897   3.002   1.280  1.9169  0.7460 -2.8187
    9CHTO   N12 3615   6.694   3.074   1.309  0.2711 -0.9589  0.0353
    9CHTO  H110 3616   6.647   2.993   1.364 -0.1606 -1.4407 -1.0341
    9CHTO  H111 3617   6.728   3.157   1.368  0.8739 -0.5677 -0.8605
    9CHTO   C69 3618   6.764   2.872   1.169  0.1654  0.4771  0.1555
    9CHTO  H126 3619   6.681   2.889   1.097 -1.9199 -1.0071  2.1655
    9CHTO   O41 3620   6.872   2.813   1.099 -0.0957  0.5364 -0.1356
    9CHTO   C64 3621   6.907   2.913   0.959  0.3382  0.5356 -0.0467
    9CHTO  H121 3622   6.823   2.925   0.887  0.2597 -0.6111 -0.1645
    9CHTO   C71 3623   7.021   2.860   0.879  0.2525 -0.3962  0.1246
    9CHTO   O47 3624   6.999   2.721   0.868 -0.4564  0.7755  0.8293
    9CHTO  H104 3625   6.980   2.711   0.776  1.0116  4.3888  0.0760
    9CHTO   O34 3626   6.693   2.784   1.275 -0.3599 -0.0657 -0.4556
    9CHTO   C49 3627   6.743   2.706   1.384 -0.0253 -0.4234 -0.0675
    9CHTO   H91 3628   6.788   2.777   1.453  3.6599 -3.2233  0.5924
    9CHTO   C47 3629   6.845   2.609   1.336 -0.2231 -0.4897 -0.7268
    9CHTO   H89 3630   6.941   2.660   1.312 -1.2287  3.4020  2.9421
    9CHTO   O33 3631   6.802   2.539   1.221  0.0785  0.1809  0.4800
    9CHTO   H70 3632   6.874   2.491   1.186  0.1943 -0.4476  1.5698
    9CHTO   C45 3633   6.875   2.498   1.453  0.1038 -0.2546 -0.2028
    9CHTO   H87 3634   6.814   2.410   1.429 -2.4445  0.5528  3.0624
    9CHTO    N8 3635   7.010   2.452   1.443 -0.6416  0.1919  0.1902
    9CHTO   H75 3636   7.063   2.528   1.498 -1.9735 -0.5953  2.5984
    9CHTO   H76 3637   7.012   2.356   1.492  0.7185 -0.5105 -1.2064
    9CHTO   C43 3638   6.824   2.540   1.602 -0.0549  0.6653 -0.4255
    9CHTO   H85 3639   6.839   2.448   1.659  0.5425  1.1382  0.1797
    9CHTO   O29 3640   6.687   2.582   1.590 -0.0030 -0.4041  0.6136
    9CHTO   C50 3641   6.640   2.629   1.464 -0.3119  0.2267  0.2223
    9CHTO   H92 3642   6.599   2.540   1.414 -0.3853 -0.3086  1.2384
    9CHTO   C54 3643   6.527   2.707   1.505  0.5422 -0.7277  1.1082
    9CHTO   O36 3644   6.441   2.751   1.392  0.1882  0.4862 -0.8902
    9CHTO   H72 3645   6.369   2.692   1.388 -1.0366  1.8690  0.4053
    9CHTO   O27 3646   6.897   2.652   1.656  0.5485 -0.7712  0.5881
    9CHTO   C37 3647   6.956   2.774   1.698 -0.3982 -0.3198  0.3671
    9CHTO   H79 3648   7.038   2.766   1.770 -0.1236  2.5114  0.4393
    9CHTO   C38 3649   7.027   2.841   1.569  0.4636  0.8593 -0.0821
    9CHTO   H80 3650   6.962   2.841   1.480  2.6077  1.6683 -1.7084
    9CHTO   O31 3651   7.133   2.752   1.524 -0.0826 -0.6740 -0.2445
    9CHTO   H68 3652   7.144   2.735   1.432  2.9069  0.8558 -0.2300
    9CHTO   C39 3653   7.079   2.985   1.614  0.2120 -0.0452  0.5887
    9CHTO   H81 3654   7.150   2.976   1.696  1.7492 -0.2584 -0.7180
    9CHTO    N7 3655   7.148   3.067   1.507 -0.4567  0.6865 -0.1436
    9CHTO   H73 3656   7.237   3.008   1.491 -0.9776 -0.5850  1.5300
    9CHTO   H74 3657   7.087   3.053   1.419 -0.7122 -2.5794  0.4662
    9CHTO   C40 3658   6.949   3.055   1.663 -0.2409  0.5093 -0.8795
    9CHTO   H82 3659   6.882   3.042   1.579 -1.3328  1.6639 -0.1975
    9CHTO   O26 3660   6.899   2.995   1.785 -0.4275  0.4257  0.6218
    9CHTO   C41 3661   6.844   2.860   1.766 -0.3960 -0.1189  0.3089
    9CHTO   H83 3662   6.752   2.856   1.707 -1.7329 -1.9162  2.4166
    9CHTO   C52 3663   6.802   2.810   1.906 -0.4543  0.5807  0.3951
    9CHTO   O35 3664   6.687   2.882   1.956  0.3420  0.5121  0.2543
    9CHTO   H71 3665   6.661   2.855   2.042 -3.1722  1.7539 -0.3298
    9CHTO   O28 3666   6.962   3.196   1.694  0.1058  0.4186  0.8157
    9CHTO   C42 3667   6.841   3.287   1.697 -0.4492 -0.7587  0.3743
    9CHTO   H84 3668   6.859   3.347   1.786  1.3214  0.5741 -0.8409
    9CHTO   C44 3669   6.704   3.221   1.716 -0.1303 -0.0862  0.5417
    9CHTO   H86 3670   6.702   3.138   1.645  0.5973  0.3010  0.0601
    9CHTO   O32 3671   6.702   3.178   1.852 -0.2854  0.2411  0.1555
    9CHTO   H69 3672   6.617   3.150   1.879 -1.1049  0.5966 -1.9648
    9CHTO   C48 3673   6.578   3.313   1.689  0.8835 -0.5036 -0.4241
    9CHTO   H90 3674   6.559   3.365   1.782  0.6665  1.0136 -1.2966
    9CHTO    N9 3675   6.451   3.226   1.655 -0.1639 -0.1791  0.3579
    9CHTO   H77 3676   6.420   3.171   1.742  0.1631  0.1160  0.6651
    9CHTO   H78 3677   6.363   3.278   1.620 -0.0810 -0.3623 -0.1180
    9CHTO   C51 3678   6.597   3.418   1.575 -0.1561  0.1199 -0.4379
    9CHTO   H93 3679   6.597   3.359   1.483  0.1522  0.9598 -0.9847
    9CHTO   O30 3680   6.726   3.477   1.598 -0.5488 -0.3011  0.1453
    9CHTO   C46 3681   6.838   3.382   1.576 -0.3077  0.5076 -0.0032
    9CHTO   H88 3682   6.814   3.322   1.488 -0.4245 -1.1209  1.1229
    9CHTO   C53 3683   6.979   3.447   1.540 -0.3533 -0.1406  0.7103
    9CHTO   O72 3684   6.972   3.551   1.444  0.3227 -0.1254  0.3592
    9CHTO  H199 3685   7.055   3.590   1.429  1.3581 -2.0364  0.9286
    9CHTO   O22 3686   6.492   3.517   1.567 -0.6954  0.3085  0.6759
    9CHTO   C31 3687   6.476   3.610   1.452  0.0961 -0.2206 -0.6250
    9CHTO   H59 3688   6.381   3.664   1.472  0.3330  0.3874 -1.1577
    9CHTO   C29 3689   6.587   3.713   1.456  0.3210  0.4127 -0.0361
    9CHTO   H57 3690   6.679   3.660   1.428 -1.0080 -1.3549 -1.2003
    9CHTO   O21 3691   6.607   3.773   1.587  0.6040 -0.3189 -0.3053
    9CHTO   H37 3692   6.562   3.726   1.655  0.7786  0.5141  0.3843
    9CHTO   C27 3693   6.572   3.823   1.345 -0.7385  0.2973  0.4108
    9CHTO   H55 3694   6.485   3.887   1.365 -0.9564 -0.1000  0.7333
    9CHTO    N5 3695   6.691   3.907   1.328  0.0004  0.4682  0.2280
    9CHTO   H43 3696   6.659   4.005   1.297 -0.5873  1.3794  3.4693
    9CHTO   H44 3697   6.745   3.920   1.421 -0.2523  1.3564  0.2580
    9CHTO   C25 3698   6.534   3.750   1.206  0.0442 -0.3282 -0.1099
    9CHTO   H53 3699   6.625   3.697   1.175  2.3075  2.2769  1.8510
    9CHTO   O17 3700   6.423   3.651   1.232 -0.1852  0.0768  0.2240
    9CHTO   C32 3701   6.458   3.540   1.316 -0.1325 -0.1766 -0.0493
    9CHTO   H60 3702   6.554   3.498   1.286  0.3153 -1.2150  2.6500
    9CHTO   C36 3703   6.349   3.435   1.317  0.2268  0.0268  0.6224
    9CHTO   O25 3704   6.315   3.408   1.179 -0.4281 -0.0063  0.2287
    9CHTO   H40 3705   6.274   3.323   1.177  0.1021 -0.2301 -0.9592
    9CHTO   O15 3706   6.491   3.848   1.114 -0.1773 -0.3141  0.1210
    9CHTO   C19 3707   6.436   3.829   0.986  0.0982  0.1767 -0.0799
    9CHTO   H47 3708   6.438   3.924   0.931  0.7589  0.8925  1.1509
    9CHTO   C20 3709   6.514   3.718   0.904 -0.0841 -0.5302  0.5385
    9CHTO   H48 3710   6.552   3.639   0.971 -1.9211 -1.3967  0.5736
    9CHTO   O19 3711   6.638   3.769   0.851 -0.4774  0.2178 -0.6136
    9CHTO   H35 3712   6.697   3.780   0.923 -1.8888 -0.3445  0.6304
    9CHTO   C21 3713   6.429   3.652   0.784  0.2585  0.0525  0.5865
    9CHTO   H49 3714   6.452   3.702   0.690  3.4679 -1.5480  0.4247
    9CHTO    N4 3715   6.484   3.519   0.746  0.5691  0.4422  0.2218
    9CHTO   H41 3716   6.526   3.467   0.832 -0.5182  0.2705  0.6582
    9CHTO   H42 3717   6.557   3.521   0.667 -0.8056  1.5193 -1.0395
    9CHTO   C22 3718   6.276   3.658   0.806 -0.1642 -0.1994  0.2827
    9CHTO   H50 3719   6.247   3.571   0.865  1.8096  0.1218  1.7506
    9CHTO   O14 3720   6.231   3.781   0.868  0.0749 -0.4429 -0.0042
    9CHTO   C23 3721   6.285   3.794   1.000 -1.0259  0.3980 -0.8199
    9CHTO   H51 3722   6.268   3.699   1.052 -0.1056  1.1658  0.9341
    9CHTO   C34 3723   6.199   3.899   1.060 -0.5337 -0.8146 -0.3786
    9CHTO   O23 3724   6.220   3.902   1.200  0.3325  0.3111  0.3099
    9CHTO   H38 3725   6.134   3.894   1.238  0.4573 -1.3258  0.3130
    9CHTO   O16 3726   6.204   3.687   0.676  0.0355  0.6603  0.2168
    9CHTO   C24 3727   6.082   3.594   0.627  0.3406 -0.7896 -0.1264
    9CHTO   H52 3728   6.062   3.512   0.696 -1.9231  0.3042  0.5464
    9CHTO   C26 3729   6.121   3.546   0.484  0.7277  0.5762 -0.3886
    9CHTO   H54 3730   6.125   3.633   0.416 -0.7695  0.0763 -1.1434
    9CHTO   O20 3731   6.245   3.486   0.488 -0.3754 -0.3618  0.1860
    9CHTO   H36 3732   6.259   3.436   0.566  0.2964 -1.5689 -0.6872
    9CHTO   C30 3733   6.011   3.449   0.425 -1.3285  0.0166  0.3814
    9CHTO   H58 3734   6.007   3.364   0.494  0.9429  0.7149  1.3954
    9CHTO    N6 3735   6.043   3.397   0.291 -0.0375  0.4776 -0.0930
    9CHTO   H45 3736   5.989   3.304   0.285  1.6586 -0.6539  1.5839
    9CHTO   H46 3737   6.148   3.376   0.273 -0.8053 -2.7580 -1.1427
    9CHTO   C33 3738   5.869   3.508   0.436 -0.5709 -0.8193 -0.1111
    9CHTO   H61 3739   5.853   3.583   0.357 -0.9772 -1.2479 -0.4351
    9CHTO   O18 3740   5.856   3.571   0.564 -0.4385  0.3399  0.0981
    9CHTO   C28 3741   5.952   3.671   0.618  0.9964  0.8231 -0.3603
    9CHTO   H56 3742   5.953   3.752   0.545  0.7659  0.5229 -0.7006
    9CHTO   C35 3743   5.907   3.705   0.756  0.6860  0.4480  0.1465
    9CHTO   O24 3744   5.909   3.836   0.801 -0.3459  0.1788  0.1399
    9CHTO   H39 3745   5.988   3.871   0.838 -0.1499 -1.8467  1.6805
    9CHTO    O9 3746   5.769   3.408   0.417  0.3791 -0.1804 -0.1314
    9CHTO   C13 3747   5.625   3.455   0.354 -0.0891 -0.0753 -0.6793
    9CHTO   H26 3748   5.643   3.527   0.270 -0.9928  1.3031  0.2903
    9CHTO   C11 3749   5.544   3.519   0.462  0.7283  0.0905  0.5121
    9CHTO   H24 3750   5.588   3.611   0.503 -2.6103  1.1584  1.8688
    9CHTO    O8 3751   5.538   3.439   0.581 -0.0202 -0.5340  0.3181
    9CHTO    H3 3752   5.623   3.431   0.621 -0.1023 -0.1895  0.5576
    9CHTO    C9 3753   5.404   3.554   0.405 -0.2701 -0.6904 -0.1129
    9CHTO   H22 3754   5.419   3.615   0.315  0.3838 -3.6217 -2.0703
    9CHTO    N2 3755   5.332   3.641   0.505  0.5817 -0.2197  0.5684
    9CHTO   H10 3756   5.232   3.659   0.468  0.7821 -0.4301 -0.1008
    9CHTO   H11 3757   5.330   3.613   0.609  1.2982  0.7972  0.8566
    9CHTO    C7 3758   5.338   3.414   0.371  0.4406  0.1079  0.4374
    9CHTO   H20 3759   5.299   3.424   0.267  4.1087 -0.8526 -1.1231
    9CHTO    O4 3760   5.432   3.308   0.360  0.5099  0.1243  0.3101
    9CHTO   C14 3761   5.548   3.337   0.285 -0.1542 -0.2544  0.8155
    9CHTO   H27 3762   5.531   3.368   0.180  1.8461  1.2167  0.8968
    9CHTO   C18 3763   5.640   3.210   0.285  0.3241  0.4085  0.5328
    9CHTO   O13 3764   5.586   3.114   0.190  0.0947  0.1929 -0.0319
    9CHTO    H7 3765   5.625   3.126   0.105 -1.1847 -0.2234 -0.6990
    9CHTO    O2 3766   5.205   3.372   0.480  0.7815 -0.7666 -0.2616
    9CHTO    C1 3767   5.108   3.293   0.404 -0.2460 -0.6521  0.0740
    9CHTO   H14 3768   5.128   3.287   0.295 -0.5786  1.7568 -0.1440
    9CHTO    C2 3769   4.963   3.337   0.431 -0.2938  0.6593 -0.2873
    9CHTO   H15 3770   4.960   3.347   0.541  0.0891 -0.1931 -0.1889
    9CHTO    O6 3771   4.941   3.460   0.367  0.6531 -0.0405 -0.0229
    9CHTO    H1 3772   4.937   3.454   0.274 -0.9465  3.0106 -0.2460
    9CHTO    C3 3773   4.854   3.236   0.392  0.1875 -0.5405  0.3597
    9CHTO   H16 3774   4.853   3.232   0.282  2.1465 -0.6059  0.3216
    9CHTO    N1 3775   4.716   3.277   0.430 -0.3426  0.8425  0.0224
    9CHTO    H8 3776   4.730   3.364   0.493 -0.2995  1.0483 -0.2725
    9CHTO    H9 3777   4.653   3.202   0.476 -0.8828  0.3371 -1.5139
    9CHTO    C4 3778   4.895   3.089   0.445  0.6690  0.4028 -0.4807
    9CHTO   H17 3779   4.886   3.082   0.553  0.1865 -0.4095 -0.5629
    9CHTO    O1 3780   5.024   3.054   0.393 -0.3600  0.4889  0.1497
    9CHTO    C5 3781   5.128   3.142   0.454  0.6167 -0.3805  0.6434
    9CHTO   H18 3782   5.123   3.139   0.563 -1.7447  0.4303  0.5741
    9CHTO   C16 3783   5.256   3.064   0.413  0.8956 -0.2632 -0.3990
    9CHTO   O11 3784   5.251   2.930   0.457  0.2063  0.1548  0.3250
    9CHTO    H5 3785   5.303   2.874   0.403  0.1836  0.8409 -0.4130
    9CHTO    O3 3786   4.811   2.976   0.396  0.1689  0.8246 -0.7590
    9CHTO    C6 3787   4.717   2.914   0.492 -0.3531  0.7200 -0.0877
    9CHTO   H19 3788   4.695   2.972   0.581  0.2469  0.8360 -0.0183
    9CHTO    C8 3789   4.572   2.886   0.424  0.3451  0.0123  0.2412
    9CHTO   H21 3790   4.582   2.828   0.332 -1.8021 -2.4781  1.4823
    9CHTO    O7 3791   4.516   3.014   0.391  0.0549 -0.6412 -0.3325
    9CHTO    H2 3792   4.430   2.991   0.363 -1.0148  0.4769  1.8844
    9CHTO   C12 3793   4.472   2.796   0.506 -0.3976  0.2201 -0.1526
    9CHTO   H25 3794   4.440   2.861   0.591 -1.6377  0.2687 -0.6485
    9CHTO    N3 3795   4.351   2.740   0.443  0.2919 -1.0203 -0.0981
    9CHTO   H12 3796   4.281   2.728   0.525 -1.7052  0.4268 -1.5322
    9CHTO   H13 3797   4.317   2.819   0.379  1.3677 -0.4310  0.0378
    9CHTO   C15 3798   4.556   2.673   0.562 -0.2688  1.0855 -0.0665
    9CHTO   H28 3799   4.581   2.596   0.490  0.9135  0.8238  0.6184
    9CHTO   O10 3800   4.488   2.595   0.678  0.1226 -0.2316 -0.2503
    9CHTO    H4 3801   4.402   2.624   0.702 -0.6558 -1.6960 -1.2277
    9CHTO    O5 3802   4.678   2.718   0.624  0.7238 -0.1379 -0.7469
    9CHTO   C10 3803   4.772   2.776   0.539  0.3356 -0.4832 -0.4441
    9CHTO   H23 3804   4.796   2.727   0.444  3.1058 -0.1373  0.0377
    9CHTO   C17 3805   4.908   2.784   0.608 -0.6276  0.0579  0.5133
    9CHTO   O12 3806   4.895   2.859   0.729  0.1432 -0.5600 -0.0128
    9CHTO    H6 3807   4.878   2.948   0.705  1.9037 -0.2611 -0.2640
   10CHTO  H203 3808   3.582   5.926   1.976 -0.1287 -1.4618 -2.7950
   10CHTO   O82 3809   3.511   5.985   1.959  0.0548 -0.3142  0.0609
   10CHTO  C123 3810   3.501   6.089   2.056  0.0877 -0.3626 -0.0614
   10CHTO  H227 3811   3.426   6.161   2.019 -1.3854 -1.1048  1.4474
   10CHTO   O77 3812   3.446   6.025   2.169  0.2550 -0.5653 -0.3481
   10CHTO  C118 3813   3.409   6.112   2.275  0.3555 -1.1996 -0.0397
   10CHTO  H222 3814   3.340   6.189   2.239  0.2305 -0.0064  2.6685
   10CHTO  C125 3815   3.337   6.032   2.380 -0.1135 -0.4473 -0.1790
   10CHTO   O84 3816   3.390   5.902   2.398 -0.7345 -0.1668 -0.2792
   10CHTO  H205 3817   3.365   5.872   2.483  1.6147  1.4169  1.0148
   10CHTO  C114 3818   3.538   6.171   2.329 -0.3860 -0.1831  0.4589
   10CHTO  H218 3819   3.608   6.091   2.353  0.8040  0.6272 -0.2134
   10CHTO  C116 3820   3.614   6.253   2.224 -0.1278  0.3967 -0.2891
   10CHTO  H220 3821   3.560   6.345   2.195 -0.6086  0.6846  1.4970
   10CHTO   O79 3822   3.739   6.302   2.283 -0.1818 -0.4672 -0.4778
   10CHTO  H201 3823   3.715   6.358   2.354 -0.6433 -1.1287 -0.1055
   10CHTO  C120 3824   3.636   6.161   2.096 -0.0671 -0.6881 -0.1808
   10CHTO  H224 3825   3.716   6.090   2.123  0.4089 -0.9310 -2.1116
   10CHTO   N21 3826   3.696   6.230   1.982  0.0449  0.3620 -0.0782
   10CHTO  H211 3827   3.628   6.279   1.914  0.0808 -0.0745 -0.4331
   10CHTO  H212 3828   3.777   6.298   2.005 -1.5238  2.1654  0.2910
   10CHTO   O75 3829   3.519   6.256   2.443  0.6102 -0.1632  0.4777
   10CHTO  C112 3830   3.588   6.201   2.587  0.1092  0.2472  0.6687
   10CHTO  H216 3831   3.688   6.163   2.560 -0.3601 -0.9758  0.6351
   10CHTO   O73 3832   3.512   6.097   2.640  0.9209 -0.9405  0.4780
   10CHTO  C113 3833   3.548   6.050   2.776 -0.2799 -0.9095  0.2127
   10CHTO  H217 3834   3.640   5.988   2.771  0.6001  0.4212 -0.3033
   10CHTO  C124 3835   3.442   5.959   2.826  0.4963  0.2797 -0.1923
   10CHTO   O83 3836   3.457   5.831   2.769 -0.0496  0.4825 -0.5973
   10CHTO  H204 3837   3.542   5.799   2.789 -0.3838 -0.7003 -1.0588
   10CHTO  C109 3838   3.567   6.160   2.877 -0.4163  0.1666  0.7843
   10CHTO  H213 3839   3.469   6.209   2.878 -0.5682 -0.1272  0.4088
   10CHTO  C110 3840   3.665   6.255   2.827 -0.1503  0.3937  0.5444
   10CHTO  H214 3841   3.760   6.205   2.810 -0.2272  0.7228 -0.9610
   10CHTO   O78 3842   3.682   6.359   2.928  0.3533  0.5522 -0.2538
   10CHTO  H200 3843   3.643   6.441   2.903 -0.9060  0.0156 -0.0777
   10CHTO  C111 3844   3.615   6.310   2.690  0.1763  0.3085 -0.0444
   10CHTO  H215 3845   3.518   6.361   2.703  1.2574  2.6417 -0.8154
   10CHTO   N19 3846   3.704   6.411   2.631  0.1029 -0.0388  0.1412
   10CHTO  H207 3847   3.807   6.389   2.651  0.1369 -1.1721 -1.2070
   10CHTO  H208 3848   3.685   6.513   2.662  0.5976  0.6575 -1.7973
   10CHTO   O74 3849   3.606   6.108   3.011  0.5948 -0.3403 -0.0878
   10CHTO  C115 3850   3.519   6.149   3.121  0.0714  0.1329 -0.1475
   10CHTO  H219 3851   3.509   6.258   3.127 -0.3705  0.0139  1.3529
   10CHTO   O76 3852   3.352   6.093   3.104  0.1458 -0.0895 -0.1218
   10CHTO  C122 3853   3.274   6.139   3.219  0.0499 -0.1158  0.9031
   10CHTO  H226 3854   3.180   6.083   3.212  0.5874 -1.4222  3.4056
   10CHTO  C126 3855   3.231   6.288   3.196  0.4010 -0.4386  0.2144
   10CHTO   O85 3856   3.164   6.345   3.312  0.3354  0.6366  0.9726
   10CHTO  H206 3857   3.215   6.318   3.385  0.3883  1.4702  1.2481
   10CHTO  C121 3858   3.333   6.105   3.361 -0.0575  0.7628  0.1210
   10CHTO  H225 3859   3.277   6.168   3.433  0.5443  1.6231 -0.1438
   10CHTO   O81 3860   3.307   5.963   3.389 -0.6756 -0.3442 -0.3244
   10CHTO  H202 3861   3.368   5.907   3.348 -0.1244 -0.6449  0.8773
   10CHTO  C119 3862   3.486   6.135   3.377  0.2620  0.2253  0.1795
   10CHTO  H223 3863   3.498   6.243   3.384  1.0759  0.2280 -1.1552
   10CHTO  C117 3864   3.579   6.094   3.257  0.3663 -0.7009 -0.0436
   10CHTO  H221 3865   3.587   5.986   3.245  2.6246 -0.3895 -1.5286
   10CHTO   N20 3866   3.723   6.143   3.276 -0.3094 -0.3490  0.1715
   10CHTO  H209 3867   3.787   6.126   3.190  0.7500 -0.0334  0.8932
   10CHTO  H210 3868   3.715   6.250   3.288 -0.1876 -0.3459  0.2211
   10CHTO   O80 3869   3.536   6.087   3.514 -0.0944  0.6537 -0.6041
   10CHTO  C103 3870   3.505   6.181   3.658 -0.1189 -0.6024 -0.2501
   10CHTO  H190 3871   3.590   6.169   3.725 -0.4548 -0.0719  0.2734
   10CHTO  C101 3872   3.478   6.333   3.630 -0.2554 -0.0001 -0.1590
   10CHTO  H188 3873   3.405   6.341   3.550 -1.0703 -0.0793  0.5630
   10CHTO   O68 3874   3.618   6.384   3.570  0.0240  0.0788 -0.0924
   10CHTO  H168 3875   3.646   6.326   3.502  0.9957 -0.6147  0.8835
   10CHTO   C99 3876   3.421   6.419   3.749 -0.5116 -0.4677  0.0390
   10CHTO  H186 3877   3.497   6.422   3.830 -0.2451  1.8700 -0.2481
   10CHTO   N17 3878   3.391   6.567   3.704 -0.3372  0.2216 -0.0638
   10CHTO  H174 3879   3.375   6.636   3.785 -3.1246  0.5421 -0.8162
   10CHTO  H175 3880   3.465   6.604   3.634  1.9686  0.4107  2.3955
   10CHTO   C97 3881   3.301   6.350   3.806  0.6841 -0.3342 -0.2730
   10CHTO  H184 3882   3.215   6.354   3.738  0.0828 -0.5808  0.4655
   10CHTO   O64 3883   3.337   6.216   3.848 -0.1387  0.2900 -0.1503
   10CHTO  C104 3884   3.375   6.129   3.734 -0.0759  0.5097 -0.4086
   10CHTO  H191 3885   3.296   6.118   3.660 -0.4931 -1.2707  0.2636
   10CHTO  C108 3886   3.409   5.987   3.782  0.0377 -0.6309  0.0703
   10CHTO   O71 3887   3.299   5.915   3.836 -0.3821  0.1669 -0.3562
   10CHTO  H171 3888   3.272   5.850   3.774  1.8696  0.7672 -2.0482
   10CHTO   O62 3889   3.251   6.400   3.939 -0.2899  0.1176  0.3785
   10CHTO   C91 3890   3.127   6.460   3.953  0.0274 -0.4906 -0.6153
   10CHTO  H178 3891   3.098   6.484   3.851 -1.8451 -0.0672 -0.0073
   10CHTO   C92 3892   3.144   6.599   4.025  1.2698  0.8469 -0.3858
   10CHTO  H179 3893   3.193   6.586   4.123 -0.0829  0.0675  0.1990
   10CHTO   O66 3894   3.234   6.686   3.958 -0.6856  0.0112  0.1955
   10CHTO  H166 3895   3.216   6.693   3.866 -1.4999 -0.2938  0.3343
   10CHTO   C93 3896   3.004   6.675   4.050 -0.2759  0.0093 -0.3632
   10CHTO  H180 3897   2.963   6.714   3.956  0.3740  0.6632 -0.3837
   10CHTO   N16 3898   3.024   6.797   4.136 -0.2580 -0.7459  0.4654
   10CHTO  H172 3899   2.938   6.795   4.201 -0.1867  1.6974  0.6763
   10CHTO  H173 3900   3.111   6.775   4.195 -0.0427 -0.3369  0.3025
   10CHTO   C94 3901   2.899   6.577   4.111 -0.7125  0.1498 -0.3641
   10CHTO  H181 3902   2.938   6.533   4.203  2.1892  1.9370 -0.6729
   10CHTO   O61 3903   2.892   6.458   4.025  0.0969  0.4074 -0.6399
   10CHTO   C95 3904   3.020   6.388   4.028 -0.5841  0.6987 -0.4052
   10CHTO  H182 3905   3.053   6.388   4.132 -1.8627 -1.2660  0.0055
   10CHTO  C106 3906   2.995   6.235   3.991 -0.6504 -0.3474 -0.1162
   10CHTO   O69 3907   2.937   6.169   4.099  0.1872 -0.3586  0.5751
   10CHTO  H169 3908   2.846   6.150   4.085  0.2153  0.5920 -0.9722
   10CHTO   O63 3909   2.751   6.653   4.127 -0.5825  0.3012  0.1570
   10CHTO   C96 3910   2.653   6.598   4.231 -0.1133  0.3015  0.1116
   10CHTO  H183 3911   2.709   6.519   4.282 -2.2631 -1.5436 -0.3393
   10CHTO   C98 3912   2.526   6.528   4.176 -0.3406 -0.0158 -0.3356
   10CHTO  H185 3913   2.492   6.586   4.089 -1.9934 -0.0204  0.2803
   10CHTO   O67 3914   2.580   6.404   4.119 -0.1485 -0.4758  0.5086
   10CHTO  H167 3915   2.644   6.359   4.170 -0.3691 -1.0276  0.2958
   10CHTO  C102 3916   2.413   6.510   4.285  0.5133 -0.1385  0.1082
   10CHTO  H189 3917   2.460   6.442   4.358 -0.1301  0.3802  1.0099
   10CHTO   N18 3918   2.289   6.441   4.240 -0.6007 -0.0462 -0.4498
   10CHTO  H176 3919   2.256   6.484   4.147 -0.5911  1.5822  0.2943
   10CHTO  H177 3920   2.307   6.336   4.220 -0.2360  0.1118 -0.9319
   10CHTO  C105 3921   2.385   6.646   4.354  0.1527  0.1570  0.0807
   10CHTO  H192 3922   2.287   6.678   4.320  0.0119 -1.1563 -0.8021
   10CHTO   O65 3923   2.493   6.745   4.336 -0.1313 -0.2148  0.1872
   10CHTO  C100 3924   2.631   6.709   4.337  0.3318  0.2929 -0.3033
   10CHTO  H187 3925   2.686   6.800   4.311 -0.4857  1.4035  1.7558
   10CHTO  C107 3926   2.680   6.661   4.478 -0.4670  0.9035  0.4700
   10CHTO   O70 3927   2.669   6.768   4.573 -0.0263 -0.0860  0.0880
   10CHTO  H170 3928   2.727   6.837   4.548  0.0850  0.0045  0.5913
   10CHTO   O57 3929   2.382   6.605   4.525  0.2259 -0.0760  0.7862
   10CHTO   C85 3930   2.265   6.602   4.606  0.3200  0.3983 -0.4008
   10CHTO  H157 3931   2.178   6.645   4.552  1.0386 -0.9716 -2.7496
   10CHTO   C83 3932   2.284   6.705   4.714  0.5694 -0.3115 -0.5585
   10CHTO  H155 3933   2.286   6.798   4.659 -0.1798  0.7189  1.0978
   10CHTO   O56 3934   2.409   6.682   4.786 -0.1558  0.1364 -0.7566
   10CHTO  H135 3935   2.475   6.672   4.720 -0.5575  1.8332 -1.4587
   10CHTO   C81 3936   2.157   6.712   4.818  0.9918 -0.5729  0.2619
   10CHTO  H153 3937   2.070   6.725   4.754  1.6138 -1.2384 -0.7190
   10CHTO   N14 3938   2.152   6.823   4.912 -0.3787 -0.5773 -0.3628
   10CHTO  H141 3939   2.058   6.831   4.963  0.2265 -2.4193  1.1132
   10CHTO  H142 3940   2.171   6.922   4.877  0.6311  0.1459  2.1723
   10CHTO   C79 3941   2.140   6.574   4.881 -0.2944 -0.4072  0.0609
   10CHTO  H151 3942   2.048   6.576   4.939 -0.2251  1.4418  0.1231
   10CHTO   O52 3943   2.112   6.480   4.772  0.2339 -0.6450 -0.6316
   10CHTO   C86 3944   2.227   6.468   4.679 -0.4970  1.5066 -0.5338
   10CHTO  H158 3945   2.316   6.442   4.741 -0.6404  0.1047 -0.9186
   10CHTO   C90 3946   2.223   6.342   4.588  1.0408 -0.5015 -0.1482
   10CHTO   O60 3947   2.101   6.340   4.518  0.3964 -1.0515 -0.3932
   10CHTO  H138 3948   2.026   6.309   4.565  0.1278 -2.9945 -2.0404
   10CHTO   O50 3949   2.251   6.548   4.974 -0.0145 -0.2196 -0.1456
   10CHTO   C73 3950   2.238   6.469   5.088 -0.4000 -0.0426  0.0704
   10CHTO  H145 3951   2.165   6.388   5.071  0.4051 -0.1006 -3.6984
   10CHTO   C74 3952   2.189   6.549   5.208  0.2330 -0.0370 -0.4843
   10CHTO  H146 3953   2.091   6.593   5.185  0.5637  1.9589  1.8084
   10CHTO   O54 3954   2.166   6.452   5.310  0.1659  0.6392  0.0512
   10CHTO  H133 3955   2.104   6.492   5.368  0.1052 -0.6325  0.8659
   10CHTO   C75 3956   2.294   6.657   5.249  0.5518 -0.8013  0.2396
   10CHTO  H147 3957   2.297   6.726   5.163 -3.2258 -0.4667  0.2732
   10CHTO   N13 3958   2.243   6.749   5.352 -0.3388 -0.0299 -0.2992
   10CHTO  H139 3959   2.221   6.699   5.445 -1.6378  1.5172  0.2494
   10CHTO  H140 3960   2.155   6.801   5.318  0.5651  2.2756  0.7595
   10CHTO   C76 3961   2.429   6.582   5.272 -0.4004  0.4765 -0.3411
   10CHTO  H148 3962   2.425   6.517   5.359 -1.2609  1.5603  0.4502
   10CHTO   O49 3963   2.468   6.496   5.159  0.5091 -0.4153 -0.1828
   10CHTO   C77 3964   2.375   6.394   5.122 -0.3938 -0.8761 -0.5765
   10CHTO  H149 3965   2.354   6.321   5.200  0.4169 -0.9049 -0.3885
   10CHTO   C88 3966   2.430   6.321   4.995 -0.0011  0.0732  0.4917
   10CHTO   O58 3967   2.504   6.218   5.015 -0.2413 -0.1185 -0.6958
   10CHTO  H136 3968   2.467   6.132   5.014 -1.8860  0.5222  1.0073
   10CHTO   O51 3969   2.536   6.669   5.274  0.9200 -0.4468  0.1544
   10CHTO   C78 3970   2.682   6.603   5.330 -0.5279  0.0170 -0.3135
   10CHTO  H150 3971   2.686   6.492   5.324 -1.0694 -0.0134 -0.0690
   10CHTO   C80 3972   2.695   6.650   5.476 -0.3016 -0.3605 -0.2930
   10CHTO  H152 3973   2.675   6.760   5.481 -0.7871 -0.5087  1.4560
   10CHTO   O55 3974   2.592   6.582   5.557 -0.4725 -0.3086 -0.5551
   10CHTO  H134 3975   2.608   6.490   5.572 -1.3617 -0.3503  0.1791
   10CHTO   C84 3976   2.840   6.621   5.530 -0.1792  0.5385  0.3666
   10CHTO  H156 3977   2.851   6.513   5.534 -0.2787  0.4701 -0.8484
   10CHTO   N15 3978   2.862   6.677   5.669  0.2667 -0.5946  0.1526
   10CHTO  H143 3979   2.963   6.706   5.688  0.4431 -1.1887  0.1205
   10CHTO  H144 3980   2.794   6.757   5.691 -1.1688 -1.9224  0.6373
   10CHTO   C87 3981   2.950   6.671   5.434  0.0230  0.1369 -0.3226
   10CHTO  H159 3982   2.960   6.779   5.439  1.0498 -0.0158  1.1647
   10CHTO   O53 3983   2.914   6.635   5.291 -0.3723 -0.0454 -0.8702
   10CHTO   C82 3984   2.787   6.682   5.245  0.3139  0.5037 -0.4473
   10CHTO  H154 3985   2.773   6.788   5.265  1.7440  0.7491 -0.7081
   10CHTO   C89 3986   2.794   6.665   5.097  0.2612  0.1707  0.3925
   10CHTO   O59 3987   2.675   6.717   5.027  0.4286  0.2791 -0.0744
   10CHTO  H137 3988   2.703   6.726   4.937  2.9154 -2.2781  0.3694
   10CHTO   O45 3989   3.096   6.603   5.477 -0.5094  0.2196  0.2337
   10CHTO   C67 3990   3.208   6.682   5.466  0.3134 -0.4523 -0.1677
   10CHTO  H124 3991   3.188   6.769   5.403 -0.6834 -1.1599 -0.8389
   10CHTO   C65 3992   3.249   6.739   5.608 -0.5744 -0.0624 -0.5141
   10CHTO  H122 3993   3.161   6.753   5.670 -0.2986 -1.0263  0.1119
   10CHTO   O44 3994   3.304   6.864   5.591 -0.2011 -0.0866  0.2301
   10CHTO  H102 3995   3.311   6.909   5.673  0.9854  0.4221 -0.1426
   10CHTO   C63 3996   3.339   6.630   5.684  1.1081  0.0301 -0.0084
   10CHTO  H120 3997   3.281   6.537   5.690 -1.5104  1.6623  1.2205
   10CHTO   N11 3998   3.363   6.648   5.832 -0.1841 -0.2362  0.1779
   10CHTO  H108 3999   3.464   6.623   5.857  1.2360  1.3541 -3.5892
   10CHTO  H109 4000   3.355   6.753   5.851  1.0242 -0.4241  1.8607
   10CHTO   C61 4001   3.476   6.618   5.602  0.3017 -0.0030 -0.5052
   10CHTO  H118 4002   3.518   6.520   5.629 -1.4488 -0.3693  0.9665
   10CHTO   O40 4003   3.466   6.613   5.455  0.1414  0.6078  0.1129
   10CHTO   C68 4004   3.334   6.599   5.395 -0.1543 -0.8068 -0.0521
   10CHTO  H125 4005   3.313   6.490   5.400 -0.0896 -0.7133  3.0169
   10CHTO   C72 4006   3.330   6.638   5.247  0.3581 -0.1994 -0.1857
   10CHTO   O48 4007   3.417   6.755   5.219 -0.5921 -0.4196 -0.9499
   10CHTO  H105 4008   3.375   6.829   5.259  2.0932  2.2004 -2.7147
   10CHTO   O38 4009   3.565   6.731   5.629 -0.4023  0.0146  0.4984
   10CHTO   C55 4010   3.703   6.702   5.607  0.3590  0.4852 -0.5194
   10CHTO  H112 4011   3.721   6.613   5.546  3.0216 -0.3430  1.3879
   10CHTO   C56 4012   3.767   6.691   5.748  0.2851 -0.3291  0.5030
   10CHTO  H113 4013   3.717   6.767   5.810 -1.3644 -2.6184  2.0554
   10CHTO   O42 4014   3.735   6.566   5.811  0.6094  0.1515  0.7482
   10CHTO  H100 4015   3.668   6.571   5.877 -1.2546  1.4124 -1.1974
   10CHTO   C57 4016   3.924   6.713   5.759 -0.0153 -0.4505 -0.3774
   10CHTO  H114 4017   3.980   6.627   5.722 -0.1636 -0.2399 -1.1044
   10CHTO   N10 4018   3.968   6.737   5.898  0.3806  0.4999  0.0936
   10CHTO  H106 4019   3.959   6.840   5.930 -1.0899  0.2989  0.3463
   10CHTO  H107 4020   4.073   6.712   5.902  0.2265 -0.0581  0.6949
   10CHTO   C58 4021   3.962   6.833   5.667 -0.3596  0.0229  0.5544
   10CHTO  H115 4022   3.925   6.929   5.709 -1.6223 -0.5652  0.8006
   10CHTO   O37 4023   3.901   6.810   5.537  0.2224 -0.3376  0.2956
   10CHTO   C59 4024   3.756   6.822   5.538 -0.1518 -0.1796  0.1310
   10CHTO  H116 4025   3.723   6.917   5.578 -1.0251 -0.6534  0.5446
   10CHTO   C70 4026   3.732   6.832   5.390 -0.1558  0.1604 -0.3145
   10CHTO   O46 4027   3.777   6.954   5.332  0.1510 -0.3303 -0.1802
   10CHTO  H103 4028   3.869   6.953   5.314 -0.0004 -3.2978 -0.9804
   10CHTO   O39 4029   4.134   6.847   5.649  0.0444 -0.6485 -0.6242
   10CHTO   C60 4030   4.187   6.981   5.673  0.1011  0.3776 -0.5276
   10CHTO  H117 4031   4.110   7.056   5.694  0.5390  0.3805  1.0947
   10CHTO   C62 4032   4.271   6.977   5.802 -0.3153  0.1021 -0.5624
   10CHTO  H119 4033   4.205   6.936   5.881  1.2165 -2.0016 -0.3410
   10CHTO   O43 4034   4.388   6.887   5.793  0.0220  0.5637 -0.1414
   10CHTO  H101 4035   4.447   6.930   5.735  0.1645 -0.5236 -0.8052
   10CHTO   C66 4036   4.297   7.122   5.840 -0.1483  0.1798  0.6876
   10CHTO  H123 4037   4.201   7.173   5.834  0.7102  1.7137 -0.2683
   10CHTO   N12 4038   4.363   7.146   5.973  0.8028 -0.3112  0.3795
   10CHTO  H110 4039   4.385   7.249   5.995 -2.7533 -0.1565  3.8236
   10CHTO  H111 4040   4.298   7.101   6.047  0.5748  0.3361  0.5693
   10CHTO   C69 4041   4.383   7.182   5.721  0.0732 -0.1235  0.5293
   10CHTO  H126 4042   4.477   7.124   5.717  0.4819  0.6703 -2.1814
   10CHTO   O41 4043   4.302   7.172   5.576  0.3711 -0.3492 -0.6882
   10CHTO   C64 4044   4.262   7.030   5.556 -0.0525  0.2659  0.2327
   10CHTO  H121 4045   4.351   6.965   5.552 -1.0437 -1.0895 -0.0852
   10CHTO   C71 4046   4.184   7.015   5.425  0.0291 -0.0700 -0.9402
   10CHTO   O47 4047   4.257   7.079   5.320 -0.0680  0.1298  0.1179
   10CHTO  H104 4048   4.307   7.012   5.276  1.9357  1.5580  0.1174
   10CHTO   O34 4049   4.417   7.316   5.745 -0.2171 -0.1101 -0.0100
   10CHTO   C49 4050   4.391   7.463   5.761 -0.3683  0.4026  0.1265
   10CHTO   H91 4051   4.332   7.475   5.852  0.1426  0.4281  0.4588
   10CHTO   C47 4052   4.313   7.512   5.639  0.4706  0.3013  0.3602
   10CHTO   H89 4053   4.293   7.618   5.667  0.4279  0.1809  0.7805
   10CHTO   O33 4054   4.185   7.444   5.627  0.6808  0.0428  0.1650
   10CHTO   H70 4055   4.193   7.351   5.636  0.0287 -0.2210 -1.7546
   10CHTO   C45 4056   4.408   7.510   5.508 -0.1535  0.1492 -0.0772
   10CHTO   H87 4057   4.449   7.408   5.500 -0.6525  0.0017 -0.7608
   10CHTO    N8 4058   4.335   7.553   5.386  0.2199 -0.7785 -0.0296
   10CHTO   H75 4059   4.352   7.477   5.312  1.2854 -1.2898  0.7242
   10CHTO   H76 4060   4.229   7.556   5.404  0.1643  2.1646 -0.5501
   10CHTO   C43 4061   4.538   7.602   5.533 -0.4843  0.0916  0.2530
   10CHTO   H85 4062   4.601   7.580   5.447 -1.1413  0.8206 -0.4163
   10CHTO   O29 4063   4.606   7.572   5.658 -0.0754 -0.2340  0.0686
   10CHTO   C50 4064   4.523   7.539   5.773  0.3340 -0.0731 -0.3322
   10CHTO   H92 4065   4.584   7.482   5.844 -1.6222 -2.4495 -0.4754
   10CHTO   C54 4066   4.490   7.666   5.863 -0.2398 -0.2760  0.4546
   10CHTO   O36 4067   4.610   7.717   5.917  0.1165  0.5445  0.5346
   10CHTO   H72 4068   4.651   7.776   5.857 -0.9680 -0.0818 -0.8544
   10CHTO   O27 4069   4.506   7.741   5.529  0.0034  0.3955 -0.2455
   10CHTO   C37 4070   4.535   7.830   5.418 -0.2919  0.6871 -0.1113
   10CHTO   H79 4071   4.537   7.773   5.324 -0.2138  1.9718 -0.8979
   10CHTO   C38 4072   4.422   7.935   5.415  0.1572 -0.3853  0.2637
   10CHTO   H80 4073   4.426   7.992   5.509 -2.1897  1.6828 -0.8337
   10CHTO   O31 4074   4.299   7.875   5.408  0.4553  0.4457 -0.4445
   10CHTO   H68 4075   4.284   7.839   5.322  1.3534  0.8043 -0.7636
   10CHTO   C39 4076   4.452   8.037   5.298 -0.7220 -0.3258 -0.3345
   10CHTO   H81 4077   4.470   7.994   5.200 -2.0352 -0.3491 -0.5839
   10CHTO    N7 4078   4.345   8.142   5.287 -0.0560 -0.4213  0.1051
   10CHTO   H73 4079   4.352   8.208   5.202 -1.5797  0.9805  1.0376
   10CHTO   H74 4080   4.287   8.179   5.370  0.4777  1.4661 -0.3382
   10CHTO   C40 4081   4.589   8.106   5.332 -0.5189  0.2671  0.1690
   10CHTO   H82 4082   4.578   8.152   5.430 -0.0067  1.0903 -0.1492
   10CHTO   O26 4083   4.695   8.008   5.332 -0.0760 -0.4036  0.5767
   10CHTO   C41 4084   4.673   7.907   5.434  0.6337  0.1894 -0.1368
   10CHTO   H83 4085   4.671   7.956   5.532  1.5871  0.8964 -0.4674
   10CHTO   C52 4086   4.796   7.806   5.429  0.4102 -0.3984  0.5044
   10CHTO   O35 4087   4.813   7.743   5.544 -0.1262  0.1289  0.1126
   10CHTO   H71 4088   4.890   7.778   5.584 -0.5644  2.2336 -0.8368
   10CHTO   O28 4089   4.628   8.208   5.238  0.1619  0.3965  0.8119
   10CHTO   C42 4090   4.764   8.262   5.224 -0.6694  0.8480  0.3209
   10CHTO   H84 4091   4.826   8.173   5.217  1.4632  1.9849  3.7876
   10CHTO   C44 4092   4.818   8.345   5.339 -0.9868  0.8608  0.0384
   10CHTO   H86 4093   4.741   8.416   5.372  0.5975  1.4311  2.6475
   10CHTO   O32 4094   4.820   8.266   5.464 -0.3987  0.1171 -0.2208
   10CHTO   H69 4095   4.766   8.190   5.452 -1.3470  0.8198 -0.5212
   10CHTO   C48 4096   4.959   8.422   5.319  0.0665  0.4609  0.2266
   10CHTO   H90 4097   5.032   8.346   5.347  0.7314  0.7439 -0.7304
   10CHTO    N9 4098   4.984   8.534   5.414  0.4533  0.6739 -0.0666
   10CHTO   H77 4099   5.081   8.581   5.410  0.8108  0.2280  2.2906
   10CHTO   H78 4100   4.910   8.609   5.392 -0.8081  0.2962  2.6369
   10CHTO   C51 4101   4.975   8.471   5.168  0.9543  0.2505  0.0455
   10CHTO   H93 4102   4.923   8.565   5.151 -0.7043 -1.0436 -2.3226
   10CHTO   O30 4103   4.935   8.368   5.079 -0.1695  0.2529  0.1157
   10CHTO   C46 4104   4.784   8.340   5.091 -0.0180 -0.7120 -0.2943
   10CHTO   H88 4105   4.735   8.438   5.088 -1.0989 -1.2637 -0.6466
   10CHTO   C53 4106   4.726   8.247   4.974 -0.6128 -0.2191  0.2380
   10CHTO   O72 4107   4.749   8.305   4.846 -0.3323  0.3107 -0.0832
   10CHTO  H199 4108   4.838   8.290   4.820 -0.1797 -2.1542  1.7171
   10CHTO   O22 4109   5.114   8.477   5.133 -0.2473 -0.4906 -0.1516
   10CHTO   C31 4110   5.154   8.570   5.021 -0.2104  0.2589 -0.4158
   10CHTO   H59 4111   5.068   8.571   4.952 -0.4706 -3.2236 -0.2739
   10CHTO   C29 4112   5.186   8.716   5.065  0.2308  0.0284  0.6801
   10CHTO   H57 4113   5.264   8.707   5.141  1.2525 -0.5315 -0.4140
   10CHTO   O21 4114   5.073   8.783   5.131  0.0547  0.0941 -0.1107
   10CHTO   H37 4115   5.097   8.816   5.215 -1.7937 -2.4671  1.4980
   10CHTO   C27 4116   5.236   8.813   4.949  0.6555 -0.2314 -0.2045
   10CHTO   H55 4117   5.146   8.839   4.891 -0.1939  0.2800  1.3184
   10CHTO    N5 4118   5.286   8.941   4.994 -0.0645 -0.4441  0.8067
   10CHTO   H43 4119   5.216   9.015   5.030 -0.1178  1.1572 -2.4180
   10CHTO   H44 4120   5.335   8.983   4.907 -0.0385  1.1277  1.5652
   10CHTO   C25 4121   5.351   8.739   4.876 -0.8355  0.3407 -1.0455
   10CHTO   H53 4122   5.425   8.729   4.956 -3.5889 -0.9361  1.4417
   10CHTO   O17 4123   5.305   8.608   4.823 -0.0224 -0.3909 -0.4544
   10CHTO   C32 4124   5.273   8.518   4.930 -0.3177  1.0818 -0.9395
   10CHTO   H60 4125   5.364   8.526   4.990 -0.6346 -1.6733  0.0202
   10CHTO   C36 4126   5.253   8.369   4.887  1.0623  0.0887  0.4617
   10CHTO   O25 4127   5.368   8.322   4.815  0.9146 -0.0390  0.1053
   10CHTO   H40 4128   5.369   8.229   4.801 -2.9937  0.0556 -1.3335
   10CHTO   O15 4129   5.416   8.829   4.752 -0.1348 -0.0483  0.2900
   10CHTO   C19 4130   5.415   8.914   4.628  0.1489 -0.4915 -0.3758
   10CHTO   H47 4131   5.382   8.844   4.550  0.2967  0.2334 -1.1023
   10CHTO   C20 4132   5.318   9.032   4.627 -0.0196  0.5025  0.4285
   10CHTO   H48 4133   5.329   9.099   4.714 -0.1394  2.3237 -0.9311
   10CHTO   O19 4134   5.192   8.971   4.653  0.4017 -0.2281  0.7412
   10CHTO   H35 4135   5.200   8.949   4.744 -1.2805  1.3275  1.2833
   10CHTO   C21 4136   5.315   9.103   4.482  0.4518 -0.0534 -0.3925
   10CHTO   H49 4137   5.278   9.034   4.407 -0.3653  0.3415 -0.3548
   10CHTO    N4 4138   5.222   9.217   4.483  0.1485  0.0304  0.1899
   10CHTO   H41 4139   5.269   9.312   4.499  0.4374  0.3618 -2.3813
   10CHTO   H42 4140   5.167   9.221   4.390  0.2588  1.4792  0.1892
   10CHTO   C22 4141   5.459   9.149   4.449  0.3436  0.6959  0.2373
   10CHTO   H50 4142   5.483   9.215   4.532  0.1322 -0.1357  0.9737
   10CHTO   O14 4143   5.538   9.027   4.453 -0.0377  0.2578  0.5871
   10CHTO   C23 4144   5.549   8.966   4.579 -0.5291  0.1247  0.6368
   10CHTO   H51 4145   5.592   9.041   4.647 -1.4342  1.2395 -0.0028
   10CHTO   C34 4146   5.657   8.860   4.582  1.0037 -0.4471 -0.3706
   10CHTO   O23 4147   5.712   8.845   4.715 -0.1363 -0.5352  0.1545
   10CHTO   H38 4148   5.782   8.907   4.723 -0.0439 -0.6320  0.0860
   10CHTO   O16 4149   5.493   9.207   4.326 -0.2945 -0.1642  0.1070
   10CHTO   C24 4150   5.617   9.283   4.303 -0.2518  0.1491 -0.2215
   10CHTO   H52 4151   5.699   9.243   4.363 -0.9355 -0.5249  0.2668
   10CHTO   C26 4152   5.589   9.431   4.339  0.2279 -0.5573  0.1507
   10CHTO   H54 4153   5.497   9.466   4.289  0.5595  1.3676  0.8415
   10CHTO   O20 4154   5.577   9.461   4.482  0.4042 -0.4045 -0.3326
   10CHTO   H36 4155   5.514   9.401   4.516  0.6665  0.4427  1.7479
   10CHTO   C30 4156   5.703   9.528   4.286  0.8528  0.1090 -0.1718
   10CHTO   H58 4157   5.788   9.519   4.356 -0.2450  2.6651  1.6006
   10CHTO    N6 4158   5.672   9.672   4.302  0.4143  0.5466 -0.5923
   10CHTO   H45 4159   5.598   9.704   4.231 -0.9147 -2.0712 -0.4659
   10CHTO   H46 4160   5.637   9.691   4.402  1.4410  1.5906 -0.4174
   10CHTO   C33 4161   5.753   9.497   4.146  0.0466  0.1933 -0.0379
   10CHTO   H61 4162   5.667   9.518   4.081 -2.2434 -0.1570  2.7954
   10CHTO   O18 4163   5.777   9.360   4.145  0.9294  0.4624 -0.1495
   10CHTO   C28 4164   5.665   9.269   4.150 -0.4243 -0.1706  0.2128
   10CHTO   H56 4165   5.580   9.282   4.083  1.3401 -1.6948 -2.3979
   10CHTO   C35 4166   5.717   9.121   4.121  0.5096 -0.5055  0.2571
   10CHTO   O24 4167   5.739   9.096   3.980  0.2648  0.4499 -0.1772
   10CHTO   H39 4168   5.654   9.085   3.941 -0.5926  0.8310  1.5403
   10CHTO    O9 4169   5.872   9.571   4.106 -0.2198 -0.4684  0.5167
   10CHTO   C13 4170   5.912   9.574   3.953  0.4304 -0.3394  0.1028
   10CHTO   H26 4171   5.817   9.591   3.898  1.7535 -1.1830 -2.5303
   10CHTO   C11 4172   5.976   9.442   3.903  0.1877  0.7483  0.0893
   10CHTO   H24 4173   5.892   9.394   3.851  1.6403  0.4186 -2.0150
   10CHTO    O8 4174   6.022   9.355   4.013  0.6409 -0.0918  0.2172
   10CHTO    H3 4175   6.089   9.400   4.062 -0.4627 -0.8886  2.5141
   10CHTO    C9 4176   6.087   9.472   3.797 -0.2420 -0.2930  0.6243
   10CHTO   H22 4177   6.040   9.532   3.717 -0.1654 -1.7080 -0.5122
   10CHTO    N2 4178   6.146   9.355   3.727  0.6879 -0.5174 -0.2868
   10CHTO   H10 4179   6.110   9.363   3.625  0.4974 -0.5298 -0.2212
   10CHTO   H11 4180   6.108   9.268   3.779 -2.8798  0.8016 -0.5688
   10CHTO    C7 4181   6.199   9.553   3.871  0.2494  0.0371  0.5543
   10CHTO   H20 4182   6.266   9.575   3.785  0.3495 -0.0312  0.6153
   10CHTO    O4 4183   6.151   9.672   3.939  0.2591  0.7839  0.1050
   10CHTO   C14 4184   6.012   9.705   3.920  0.4922  0.2335  0.1004
   10CHTO   H27 4185   6.002   9.728   3.812  3.0201  0.0368 -0.1895
   10CHTO   C18 4186   5.982   9.834   3.992  0.3963  0.0666 -0.1699
   10CHTO   O13 4187   5.844   9.877   3.996 -0.2685 -0.2160 -0.4545
   10CHTO    H7 4188   5.829   9.917   3.913  1.2800 -1.8385 -1.5519
   10CHTO    O2 4189   6.278   9.460   3.980  0.5118 -0.3253 -0.1809
   10CHTO    C1 4190   6.413   9.507   4.007  0.1632  0.3841  0.2280
   10CHTO   H14 4191   6.422   9.605   3.956 -1.7343 -0.5832 -2.0595
   10CHTO    C2 4192   6.514   9.407   3.947 -0.5129 -0.0759 -1.1295
   10CHTO   H15 4193   6.484   9.316   4.002  0.6094  0.7608  0.9167
   10CHTO    O6 4194   6.499   9.372   3.802  0.2664 -0.3242 -0.2286
   10CHTO    H1 4195   6.441   9.298   3.799 -1.5259  0.9268  1.8721
   10CHTO    C3 4196   6.667   9.451   3.979 -0.0613  0.4051  1.3996
   10CHTO   H16 4197   6.682   9.543   3.921 -0.3013 -0.0577  0.5956
   10CHTO    N1 4198   6.767   9.344   3.946  0.4287 -0.0709 -0.2718
   10CHTO    H8 4199   6.748   9.268   4.020  3.9843 -2.0100 -1.2756
   10CHTO    H9 4200   6.744   9.298   3.852  0.0635  0.8132 -0.6265
   10CHTO    C4 4201   6.675   9.507   4.127 -0.0858  0.8579 -0.0662
   10CHTO   H17 4202   6.669   9.424   4.198 -2.5859  1.1045  0.0557
   10CHTO    O1 4203   6.562   9.598   4.154 -0.6968  0.0675 -0.1028
   10CHTO    C5 4204   6.436   9.530   4.157 -0.3641 -0.1887  0.1026
   10CHTO   H18 4205   6.453   9.441   4.216  0.1235 -0.9981 -1.2473
   10CHTO   C16 4206   6.335   9.633   4.224  0.0540 -0.0806  0.2489
   10CHTO   O11 4207   6.205   9.586   4.242  0.3201  0.0264 -0.5575
   10CHTO    H5 4208   6.214   9.506   4.290 -1.1984 -1.3407 -2.4616
   10CHTO    O3 4209   6.802   9.572   4.151 -0.7336  0.5531 -0.2544
   10CHTO    C6 4210   6.804   9.642   4.279 -0.8104  0.4919 -0.1397
   10CHTO   H19 4211   6.704   9.642   4.324 -0.2552 -0.3554  1.1327
   10CHTO    C8 4212   6.910   9.566   4.364  0.1314 -0.3881 -0.5368
   10CHTO   H21 4213   7.000   9.555   4.304  0.9165 -1.2734  0.7857
   10CHTO    O7 4214   6.855   9.440   4.402  0.0491 -0.0901 -0.3093
   10CHTO    H2 4215   6.892   9.366   4.360 -2.3649 -1.1884 -0.6101
   10CHTO   C12 4216   6.958   9.649   4.490 -0.6285  0.6522 -0.0513
   10CHTO   H25 4217   6.887   9.631   4.573 -0.2046  0.0095  0.1736
   10CHTO    N3 4218   7.094   9.606   4.546  0.1637 -0.1715  0.0578
   10CHTO   H12 4219   7.136   9.538   4.473  0.9680  0.2344  0.1409
   10CHTO   H13 4220   7.161   9.689   4.563 -0.9708  0.7877 -0.0853
   10CHTO   C15 4221   6.965   9.802   4.468 -0.2482 -0.0896 -0.1440
   10CHTO   H28 4222   7.055   9.829   4.412  0.3937 -0.4227  0.7119
   10CHTO   O10 4223   6.933   9.881   4.588 -0.3102 -0.1007  0.0370
   10CHTO    H4 4224   6.959   9.970   4.576 -2.0593  0.5020  0.5420
   10CHTO    O5 4225   6.852   9.845   4.394 -0.2265 -0.4011 -0.3688
   10CHTO   C10 4226   6.845   9.786   4.264  0.5080 -0.4439  0.3338
   10CHTO   H23 4227   6.941   9.812   4.218  0.2598  0.6143  0.3975
   10CHTO   C17 4228   6.740   9.868   4.184  0.2401 -0.6540 -0.3443
   10CHTO   O12 4229   6.608   9.885   4.240  0.0830  0.3539 -0.4624
   10CHTO    H6 4230   6.607   9.868   4.332 -4.4075  2.0406 -0.0471
   11CHTO  H203 4231   5.433   4.571   1.825  1.3127 -1.9706 -0.7205
   11CHTO   O82 4232   5.429   4.588   1.732  0.3926 -0.0498 -0.3561
   11CHTO  C123 4233   5.473   4.721   1.687 -0.4709 -0.2357 -0.1927
   11CHTO  H227 4234   5.443   4.798   1.760 -0.4390  0.9953 -1.4503
   11CHTO   O77 4235   5.616   4.716   1.669 -0.1206  0.4161  0.3662
   11CHTO  C118 4236   5.687   4.846   1.656  0.2358  0.5008  0.5608
   11CHTO  H222 4237   5.664   4.910   1.742 -0.3804  1.3538 -0.2311
   11CHTO  C125 4238   5.841   4.823   1.648  0.2869 -0.5394 -0.3420
   11CHTO   O84 4239   5.882   4.750   1.533  0.2338  0.0272 -0.0898
   11CHTO  H205 4240   5.964   4.706   1.539  1.2203  1.6917 -1.0196
   11CHTO  C114 4241   5.645   4.912   1.521  0.5713 -0.6037  0.4105
   11CHTO  H218 4242   5.682   4.852   1.438 -0.3944 -0.6082 -0.0202
   11CHTO  C116 4243   5.484   4.908   1.507  0.3089 -0.2336  0.0771
   11CHTO  H220 4244   5.436   4.991   1.563  0.7602  1.1157 -1.5169
   11CHTO   O79 4245   5.450   4.933   1.371 -0.6098 -0.1326 -0.3289
   11CHTO  H201 4246   5.367   4.975   1.360  0.3185  2.3669  1.7170
   11CHTO  C120 4247   5.423   4.764   1.545 -0.2680  0.5296  1.0324
   11CHTO  H224 4248   5.461   4.701   1.462 -0.0846  3.7073 -1.4102
   11CHTO   N21 4249   5.273   4.759   1.537  0.1814  0.6804 -0.1710
   11CHTO  H211 4250   5.240   4.730   1.438  0.8684  0.6812 -0.4006
   11CHTO  H212 4251   5.239   4.858   1.565 -0.6125  0.9670 -2.0174
   11CHTO   O75 4252   5.701   5.042   1.516 -0.3801 -0.0368 -0.9486
   11CHTO  C112 4253   5.686   5.151   1.658  0.0121  0.0033  0.5336
   11CHTO  H216 4254   5.724   5.108   1.752 -1.7439  1.4845  1.9610
   11CHTO   O73 4255   5.552   5.177   1.665 -0.5509 -0.5519  0.6450
   11CHTO  C113 4256   5.518   5.257   1.782  0.0268 -0.3099 -0.2368
   11CHTO  H217 4257   5.564   5.206   1.869  0.6165  1.5760  0.5868
   11CHTO  C124 4258   5.364   5.261   1.792 -0.3067  0.2128  0.2811
   11CHTO   O83 4259   5.310   5.132   1.800 -0.1680 -0.6412  0.3686
   11CHTO  H204 4260   5.310   5.105   1.890  0.5707 -3.1298 -0.3455
   11CHTO  C109 4261   5.585   5.399   1.771  0.4457  0.5293 -0.2815
   11CHTO  H213 4262   5.539   5.449   1.684 -1.6846  0.4432  0.7670
   11CHTO  C110 4263   5.736   5.388   1.743  0.0991 -0.7854 -0.3116
   11CHTO  H214 4264   5.787   5.354   1.833 -2.2251  0.1992  1.4253
   11CHTO   O78 4265   5.790   5.518   1.725 -0.7096  0.1456 -0.5155
   11CHTO  H200 4266   5.779   5.578   1.796  0.3094 -2.4305  1.9139
   11CHTO  C111 4267   5.761   5.291   1.631  0.1956 -0.1339  0.7886
   11CHTO  H215 4268   5.725   5.334   1.537  1.0577  0.3947  0.6997
   11CHTO   N19 4269   5.909   5.270   1.608  0.0691  0.0396 -0.1380
   11CHTO  H207 4270   5.952   5.171   1.615  3.3202  1.5177  1.5457
   11CHTO  H208 4271   5.973   5.341   1.659 -2.0783  0.8940  1.4215
   11CHTO   O74 4272   5.552   5.472   1.892  0.2865 -0.4887  0.2822
   11CHTO  C115 4273   5.532   5.635   1.859  0.1780 -0.1095 -0.1945
   11CHTO  H219 4274   5.585   5.665   1.769  1.8469 -1.5692  0.2576
   11CHTO   O76 4275   5.381   5.679   1.826  0.0705  0.2651  0.1406
   11CHTO  C122 4276   5.294   5.612   1.925 -0.1052 -0.1904 -0.2879
   11CHTO  H226 4277   5.319   5.507   1.911 -1.2068 -0.9718  3.0415
   11CHTO  C126 4278   5.143   5.632   1.889 -0.6173  0.0295 -0.6413
   11CHTO   O85 4279   5.100   5.771   1.900 -0.0278  0.4110 -0.0075
   11CHTO  H206 4280   5.119   5.803   1.986 -2.1134  0.9012  0.3095
   11CHTO  C121 4281   5.328   5.657   2.075 -0.4154  0.3751 -0.7233
   11CHTO  H225 4282   5.239   5.710   2.115  0.5407  2.5335 -1.4020
   11CHTO   O81 4283   5.363   5.539   2.152 -0.1502 -0.0766  0.2585
   11CHTO  H202 4284   5.285   5.494   2.177 -1.7684  1.6547 -1.5296
   11CHTO  C119 4285   5.444   5.756   2.085  0.3619  0.7904  0.6832
   11CHTO  H223 4286   5.405   5.851   2.051 -0.6420  0.1462  0.0214
   11CHTO  C117 4287   5.571   5.712   1.992  0.3913 -0.6318  0.6984
   11CHTO  H221 4288   5.642   5.644   2.039 -0.4788 -2.3026 -0.3632
   11CHTO   N20 4289   5.647   5.843   1.956  0.4877  0.3132  0.0470
   11CHTO  H209 4290   5.734   5.857   2.018  0.3917  0.7055  0.0925
   11CHTO  H210 4291   5.665   5.839   1.850  1.2418 -1.0162  0.2102
   11CHTO   O80 4292   5.475   5.784   2.235  0.1789 -0.1848  0.1226
   11CHTO  C103 4293   5.474   5.921   2.293 -1.0121  0.4325 -0.0303
   11CHTO  H190 4294   5.507   5.999   2.225  0.7825  0.3309  0.7014
   11CHTO  C101 4295   5.340   5.962   2.366 -0.7550  0.2763  0.3223
   11CHTO  H188 4296   5.320   5.894   2.448 -1.1745  0.0390  0.0254
   11CHTO   O68 4297   5.217   5.953   2.254  0.1237  0.6426  0.1363
   11CHTO  H168 4298   5.167   6.032   2.246  0.9834  1.2293  0.4477
   11CHTO   C99 4299   5.354   6.108   2.427 -0.7508  0.4335 -0.2762
   11CHTO  H186 4300   5.388   6.178   2.348  2.1086  1.3691  1.7026
   11CHTO   N17 4301   5.224   6.164   2.478 -0.0501 -0.2500  0.7797
   11CHTO  H174 4302   5.244   6.253   2.536 -1.1694  1.0432 -0.7841
   11CHTO  H175 4303   5.156   6.174   2.395 -0.3634 -0.3785  1.0170
   11CHTO   C97 4304   5.473   6.105   2.529 -0.8956 -0.2475  0.5645
   11CHTO  H184 4305   5.448   6.045   2.618  4.0650 -1.2888  1.3955
   11CHTO   O64 4306   5.593   6.055   2.462  0.1318 -0.0170 -0.0578
   11CHTO  C104 4307   5.577   5.925   2.414  0.3464 -0.7872  0.1531
   11CHTO  H191 4308   5.549   5.851   2.489  1.1455 -1.7175 -0.4469
   11CHTO  C108 4309   5.723   5.899   2.382 -0.2530  0.5669 -0.0804
   11CHTO   O71 4310   5.748   5.760   2.349 -0.4126  0.5575 -0.2529
   11CHTO  H171 4311   5.772   5.749   2.259  2.2776 -1.8973  0.7015
   11CHTO   O62 4312   5.508   6.235   2.571 -0.2954 -0.0357 -0.6368
   11CHTO   C91 4313   5.560   6.258   2.709  0.1369 -0.6562  0.1969
   11CHTO  H178 4314   5.485   6.224   2.780  1.4470 -0.7418  1.5473
   11CHTO   C92 4315   5.566   6.413   2.710 -0.8060  0.1533 -0.3091
   11CHTO  H179 4316   5.474   6.458   2.672  0.4959  0.7329 -2.8890
   11CHTO   O66 4317   5.573   6.444   2.851  0.0442 -0.2078 -0.6395
   11CHTO  H166 4318   5.568   6.537   2.859  0.8271 -0.1429 -0.9651
   11CHTO   C93 4319   5.689   6.486   2.641 -0.1537 -0.4285  0.2547
   11CHTO  H180 4320   5.712   6.582   2.690 -1.2125 -0.4861  0.8862
   11CHTO   N16 4321   5.667   6.518   2.498  0.2724  0.3140 -0.4809
   11CHTO  H172 4322   5.751   6.559   2.443 -1.0566  1.8586 -1.3776
   11CHTO  H173 4323   5.584   6.585   2.487 -0.7384 -0.6274  1.2012
   11CHTO   C94 4324   5.821   6.392   2.650  1.3478  0.4517  0.0632
   11CHTO  H181 4325   5.837   6.336   2.558 -1.0631  0.1648 -0.2108
   11CHTO   O61 4326   5.809   6.301   2.763 -0.0834  0.0230  0.3654
   11CHTO   C95 4327   5.709   6.198   2.743 -0.3421  0.6397  0.1081
   11CHTO  H182 4328   5.740   6.139   2.657  0.0219  2.8066 -1.2894
   11CHTO  C106 4329   5.733   6.103   2.857  0.3158 -0.0460  0.4463
   11CHTO   O69 4330   5.844   6.019   2.842 -0.2715  0.5626 -0.4253
   11CHTO  H169 4331   5.922   6.062   2.870  1.2970 -2.3429 -0.1905
   11CHTO   O63 4332   5.943   6.483   2.663  0.1026 -0.1898  0.7568
   11CHTO   C96 4333   6.098   6.415   2.670 -0.3215 -0.2964 -0.1431
   11CHTO  H183 4334   6.133   6.425   2.567 -2.8074 -0.9470 -1.0968
   11CHTO   C98 4335   6.116   6.267   2.706  0.2411 -0.3751  0.1723
   11CHTO  H185 4336   6.055   6.231   2.790  1.2758 -0.7488  0.7810
   11CHTO   O67 4337   6.073   6.181   2.600 -0.2497  0.2287  0.0649
   11CHTO  H167 4338   5.980   6.164   2.600 -0.3914  1.0019  0.6956
   11CHTO  C102 4339   6.274   6.229   2.750  0.2566 -1.0332 -0.1345
   11CHTO  H189 4340   6.332   6.234   2.657 -0.0937  1.8864 -0.2270
   11CHTO   N18 4341   6.291   6.090   2.799  0.8833 -0.3695 -0.2846
   11CHTO  H176 4342   6.367   6.086   2.875 -0.6576 -2.3573  1.1926
   11CHTO  H177 4343   6.200   6.051   2.843  1.9260  0.9197  3.1735
   11CHTO  C105 4344   6.319   6.337   2.849 -0.1087  0.1113 -0.4607
   11CHTO  H192 4345   6.254   6.342   2.936  0.3162 -0.1597 -0.1214
   11CHTO   O65 4346   6.317   6.463   2.785  0.0151 -0.2111 -0.5193
   11CHTO  C100 4347   6.184   6.511   2.760 -0.5242 -0.6943  0.2066
   11CHTO  H187 4348   6.130   6.533   2.853 -2.0841 -0.3374 -0.7534
   11CHTO  C107 4349   6.200   6.648   2.688 -0.9847 -0.0965 -0.7622
   11CHTO   O70 4350   6.248   6.749   2.773 -0.1974 -0.6622  0.7932
   11CHTO  H170 4351   6.178   6.809   2.788  0.9157  0.6532  0.7796
   11CHTO   O57 4352   6.474   6.311   2.898  0.4281  0.0988 -0.1658
   11CHTO   C85 4353   6.518   6.391   3.007 -0.6528 -0.8220 -0.6133
   11CHTO  H157 4354   6.433   6.452   3.043  1.1775  1.7528 -0.5471
   11CHTO   C83 4355   6.634   6.485   2.954  0.1971  0.4036 -0.6561
   11CHTO  H155 4356   6.578   6.547   2.884 -3.3053 -0.1737  1.4941
   11CHTO   O56 4357   6.741   6.418   2.882  0.0005  0.1998  0.2766
   11CHTO  H135 4358   6.697   6.372   2.814  0.9653 -0.0345 -0.1966
   11CHTO   C81 4359   6.677   6.571   3.074 -0.0430  0.3047  0.0481
   11CHTO  H153 4360   6.590   6.627   3.110 -1.2174 -0.6452 -1.2059
   11CHTO   N14 4361   6.764   6.681   3.027  0.3302  0.7984  0.2569
   11CHTO  H141 4362   6.747   6.770   3.083 -1.3179  1.1323 -0.7642
   11CHTO  H142 4363   6.865   6.654   3.049  0.5489  2.0903  0.8884
   11CHTO   C79 4364   6.736   6.476   3.186  0.5677 -0.4196 -0.1876
   11CHTO  H151 4365   6.776   6.536   3.267 -2.3512 -0.7053  1.5328
   11CHTO   O52 4366   6.628   6.386   3.235  0.0247 -0.2682 -0.3042
   11CHTO   C86 4367   6.578   6.306   3.126 -0.0819  0.3793  0.7580
   11CHTO  H158 4368   6.664   6.247   3.089 -0.3259  1.5067 -1.7066
   11CHTO   C90 4369   6.478   6.205   3.182 -0.0840 -0.2856  0.2859
   11CHTO   O60 4370   6.442   6.103   3.089  0.6203  0.5396 -0.1097
   11CHTO  H138 4371   6.494   6.029   3.112  0.5458  0.6687  0.4625
   11CHTO   O50 4372   6.850   6.400   3.149  0.1725  0.1484 -0.7491
   11CHTO   C73 4373   6.966   6.340   3.208  0.7675  0.0672  0.2539
   11CHTO  H145 4374   6.939   6.326   3.313 -1.5190 -0.9620 -0.4340
   11CHTO   C74 4375   7.091   6.430   3.167  0.2963 -0.1022 -0.3773
   11CHTO  H146 4376   7.072   6.527   3.216  0.5908 -0.0390 -0.3883
   11CHTO   O54 4377   7.215   6.373   3.222  0.2738 -0.1272 -0.1807
   11CHTO  H133 4378   7.266   6.329   3.156 -0.0748  0.9930 -1.2092
   11CHTO   C75 4379   7.101   6.439   3.013 -0.4782 -0.1219  0.2197
   11CHTO  H147 4380   7.009   6.489   2.977 -0.9064 -0.6263  0.6049
   11CHTO   N13 4381   7.222   6.524   2.966 -0.0730 -0.0419  0.2469
   11CHTO  H139 4382   7.313   6.493   3.015 -0.4383 -0.3094  0.7715
   11CHTO  H140 4383   7.206   6.628   2.990  2.3588  0.3281  0.3611
   11CHTO   C76 4384   7.085   6.301   2.947 -0.1506 -0.5793  0.0738
   11CHTO  H148 4385   7.177   6.242   2.952  0.2884  0.0462 -0.4617
   11CHTO   O49 4386   6.984   6.215   2.999 -0.5955 -0.2587 -0.6944
   11CHTO   C77 4387   6.981   6.202   3.142 -0.1352 -0.1759 -1.0601
   11CHTO  H149 4388   7.070   6.155   3.182 -1.2316 -1.1278  0.3097
   11CHTO   C88 4389   6.886   6.090   3.183  0.5817  0.7082 -0.1617
   11CHTO   O58 4390   6.936   5.961   3.117  0.2347  0.3000  0.3529
   11CHTO  H136 4391   7.017   5.933   3.153  0.3916 -1.3785 -1.2053
   11CHTO   O51 4392   7.037   6.336   2.794  0.2251  0.2472 -0.3680
   11CHTO   C78 4393   7.048   6.218   2.687  0.4650  0.8153 -0.5267
   11CHTO  H150 4394   6.991   6.246   2.596 -0.4459  0.0006 -0.2104
   11CHTO   C80 4395   6.987   6.079   2.729  0.1816 -0.5428 -0.2465
   11CHTO  H152 4396   7.035   6.041   2.822 -3.0900  0.0317  1.7380
   11CHTO   O55 4397   6.850   6.090   2.758  0.8669 -0.7471  0.0289
   11CHTO  H134 4398   6.838   6.155   2.825  0.4352  0.5839 -1.3078
   11CHTO   C84 4399   7.013   5.966   2.620 -0.0760  0.1212  0.6606
   11CHTO  H156 4400   6.935   5.978   2.545 -0.7856  1.4870  1.5848
   11CHTO   N15 4401   6.984   5.825   2.686 -0.3675 -0.6407 -0.4780
   11CHTO  H143 4402   7.004   5.752   2.611 -0.3217 -1.7231  0.5726
   11CHTO  H144 4403   6.879   5.824   2.705 -0.2537  0.5511  0.2693
   11CHTO   C87 4404   7.155   5.973   2.555  0.1563  0.2164  0.3766
   11CHTO  H159 4405   7.231   5.940   2.626  0.8569  3.3126  1.1799
   11CHTO   O53 4406   7.183   6.116   2.516 -0.3775 -0.7098  0.1884
   11CHTO   C82 4407   7.190   6.194   2.636 -0.6791  0.7682  0.0477
   11CHTO  H154 4408   7.246   6.144   2.715 -1.1912  1.0822  0.6052
   11CHTO   C89 4409   7.266   6.324   2.601 -0.1956  0.2462  0.1446
   11CHTO   O59 4410   7.182   6.410   2.516 -1.1138 -0.6443 -0.0741
   11CHTO  H137 4411   7.092   6.384   2.514 -1.1839 -0.3596 -3.0912
   11CHTO   O45 4412   7.182   5.874   2.421  0.3687 -0.8122 -0.4353
   11CHTO   C67 4413   7.158   5.933   2.287 -0.7425  0.2711  0.2420
   11CHTO  H124 4414   7.096   6.020   2.308 -0.5053  0.7380 -0.9402
   11CHTO   C65 4415   7.290   5.977   2.216  0.5506 -0.5678  0.9350
   11CHTO  H122 4416   7.376   5.910   2.228  2.5663  1.8395  0.3648
   11CHTO   O44 4417   7.331   6.110   2.263  0.2523 -0.6256 -0.4143
   11CHTO  H102 4418   7.407   6.095   2.315 -0.3307  1.2696  1.0370
   11CHTO   C63 4419   7.283   5.990   2.054 -0.5853  0.1016 -0.1771
   11CHTO  H120 4420   7.299   5.890   2.013 -1.1274 -0.1794  0.2817
   11CHTO   N11 4421   7.403   6.054   1.981 -0.1694  0.0405  0.2228
   11CHTO  H108 4422   7.493   6.022   2.028  0.8418  2.0108 -0.2830
   11CHTO  H109 4423   7.414   6.040   1.875 -1.5492  2.6868 -0.3222
   11CHTO   C61 4424   7.135   6.029   2.011  0.3726 -0.2071 -0.3401
   11CHTO  H118 4425   7.123   6.015   1.903 -3.2787 -2.7066  0.2973
   11CHTO   O40 4426   7.039   5.930   2.071 -1.5339 -0.4888 -0.2479
   11CHTO   C68 4427   7.076   5.848   2.189  0.1013  0.7973  0.6024
   11CHTO  H125 4428   7.120   5.753   2.151  0.5157  1.1694  0.1653
   11CHTO   C72 4429   6.947   5.804   2.268  0.3503 -0.3319 -0.1738
   11CHTO   O48 4430   6.917   5.667   2.244  0.4826 -0.2486  0.2931
   11CHTO  H105 4431   6.886   5.661   2.155  1.7832  0.5378 -0.2285
   11CHTO   O38 4432   7.107   6.168   2.050 -0.0158 -0.1214 -0.3679
   11CHTO   C55 4433   6.974   6.219   2.005 -0.3612  0.9487 -0.3680
   11CHTO  H112 4434   6.921   6.126   1.979  2.7930 -1.0002 -0.0877
   11CHTO   C56 4435   6.979   6.331   1.885 -0.0334  0.3599 -0.0169
   11CHTO  H113 4436   7.038   6.415   1.925  1.0544 -1.6974  2.9703
   11CHTO   O42 4437   7.037   6.270   1.766  0.0252 -1.1646  0.7249
   11CHTO  H100 4438   7.124   6.304   1.750 -0.8245  0.9976  0.4619
   11CHTO   C57 4439   6.830   6.378   1.855  0.7698  0.1199 -0.3363
   11CHTO  H114 4440   6.784   6.287   1.817 -0.1436  0.3720  0.1428
   11CHTO   N10 4441   6.815   6.488   1.755  0.5824  0.0699  0.2105
   11CHTO  H106 4442   6.905   6.544   1.737  0.0115  0.8975 -0.1211
   11CHTO  H107 4443   6.778   6.447   1.662  1.5519 -1.1677  0.3614
   11CHTO   C58 4444   6.751   6.419   1.986 -0.1027  0.5120 -0.2550
   11CHTO  H115 4445   6.792   6.513   2.028 -1.2754  0.3791  1.2583
   11CHTO   O37 4446   6.760   6.304   2.069  0.0082 -0.2484 -0.1498
   11CHTO   C59 4447   6.888   6.272   2.121  0.0250 -0.2133 -0.5828
   11CHTO  H116 4448   6.931   6.359   2.170 -0.0896  0.5955 -1.8718
   11CHTO   C70 4449   6.865   6.173   2.236 -0.4810 -0.8649  0.7338
   11CHTO   O46 4450   6.800   6.243   2.344  0.1158 -0.3667 -0.0168
   11CHTO  H103 4451   6.831   6.219   2.429 -1.4086 -0.1720  0.6039
   11CHTO   O39 4452   6.577   6.457   1.949 -0.2507  0.0343  0.0168
   11CHTO   C60 4453   6.502   6.351   1.878 -0.7355  0.3494 -0.3123
   11CHTO  H117 4454   6.561   6.330   1.788 -0.3119 -1.2787  0.3251
   11CHTO   C62 4455   6.494   6.210   1.950  0.4911  0.4053  0.0094
   11CHTO  H119 4456   6.599   6.174   1.962 -0.1408 -1.9066 -1.0037
   11CHTO   O43 4457   6.437   6.224   2.080  0.4681  0.7364 -0.3574
   11CHTO  H101 4458   6.435   6.311   2.114 -1.5636  0.2497  0.8794
   11CHTO   C66 4459   6.414   6.109   1.855 -0.2859 -0.0136 -0.4524
   11CHTO  H123 4460   6.469   6.096   1.763 -0.7808  0.3392 -0.8030
   11CHTO   N12 4461   6.424   5.970   1.908  0.8754  0.2172 -0.3705
   11CHTO  H110 4462   6.530   5.954   1.923  1.0364  1.1221 -0.4818
   11CHTO  H111 4463   6.378   5.912   1.830 -0.9035  1.2263 -0.0963
   11CHTO   C69 4464   6.269   6.166   1.843 -0.4369  0.5393 -0.1449
   11CHTO  H126 4465   6.215   6.184   1.938 -1.6210 -1.3842 -0.4351
   11CHTO   O41 4466   6.283   6.302   1.777 -0.1081 -0.1931  0.3678
   11CHTO   C64 4467   6.358   6.408   1.838  0.3571  0.4897  0.0599
   11CHTO  H121 4468   6.299   6.441   1.926  1.7528  0.8358  0.8777
   11CHTO   C71 4469   6.370   6.523   1.728  0.1003 -0.8331  0.9513
   11CHTO   O47 4470   6.444   6.496   1.599 -0.1256 -0.2740 -0.1325
   11CHTO  H104 4471   6.508   6.564   1.593 -0.4253 -0.1279 -1.9589
   11CHTO   O34 4472   6.177   6.072   1.754 -0.1403  0.3619  0.4539
   11CHTO   C49 4473   6.039   6.083   1.686  0.5568 -0.0922  0.6344
   11CHTO   H91 4474   5.997   5.982   1.694  0.3067 -0.0897 -0.5395
   11CHTO   C47 4475   6.053   6.112   1.536  0.3619 -0.5369  0.5347
   11CHTO   H89 4476   6.089   6.022   1.483 -0.0084  0.6334 -1.7909
   11CHTO   O33 4477   6.150   6.217   1.522  0.3827 -0.2327  0.1808
   11CHTO   H70 4478   6.184   6.219   1.434  0.6267  1.8535  0.2989
   11CHTO   C45 4479   5.912   6.166   1.466 -0.3244 -0.3047 -0.2759
   11CHTO   H87 4480   5.919   6.276   1.467 -1.2244 -0.2349 -0.8520
   11CHTO    N8 4481   5.908   6.124   1.322 -0.1085 -0.0469  0.4048
   11CHTO   H75 4482   5.822   6.163   1.270  0.8768 -0.3868 -1.5136
   11CHTO   H76 4483   5.990   6.165   1.265 -1.5043 -0.2670 -1.8008
   11CHTO   C43 4484   5.779   6.139   1.556  0.5723 -0.3625  0.2721
   11CHTO   H85 4485   5.701   6.193   1.502  0.8933 -0.0721  0.0930
   11CHTO   O29 4486   5.796   6.187   1.688 -0.2847  0.0735 -0.4486
   11CHTO   C50 4487   5.929   6.184   1.754  0.4681 -0.1440  0.4058
   11CHTO   H92 4488   5.982   6.280   1.756  1.4182 -0.6762  1.2348
   11CHTO   C54 4489   5.914   6.162   1.904  0.0958  0.7349  0.4669
   11CHTO   O36 4490   5.871   6.282   1.960  0.0958 -0.6005  0.1586
   11CHTO   H72 4491   5.813   6.271   2.033 -0.8895  0.6332 -0.4305
   11CHTO   O27 4492   5.734   6.004   1.558  0.1544 -0.2342  0.0438
   11CHTO   C37 4493   5.625   5.922   1.594  0.6725  0.2476  0.4477
   11CHTO   H79 4494   5.644   5.867   1.688  1.8221  0.5348  0.3922
   11CHTO   C38 4495   5.500   6.017   1.600  0.7557  0.5701  0.5020
   11CHTO   H80 4496   5.501   6.079   1.509 -0.7387 -2.1767 -1.4702
   11CHTO   O31 4497   5.517   6.097   1.713 -0.8598  0.3280  0.2054
   11CHTO   H68 4498   5.537   6.049   1.791 -1.3233 -0.1737  0.0164
   11CHTO   C39 4499   5.367   5.937   1.615  0.3233  0.7739 -0.2166
   11CHTO   H81 4500   5.362   5.897   1.716 -1.1392 -0.9412 -0.9283
   11CHTO    N7 4501   5.247   6.022   1.599  0.1038  0.3350  0.7132
   11CHTO   H73 4502   5.251   6.068   1.502  1.7232 -2.2671 -0.5214
   11CHTO   H74 4503   5.165   5.951   1.596  0.1631  0.3171 -2.0739
   11CHTO   C40 4504   5.364   5.810   1.516 -0.0709 -0.5804 -0.2528
   11CHTO   H82 4505   5.334   5.841   1.416 -1.5751 -0.3020  0.2680
   11CHTO   O26 4506   5.493   5.736   1.516 -0.1878  0.2503 -0.1057
   11CHTO   C41 4507   5.604   5.824   1.477  0.6626  0.2990  0.4055
   11CHTO   H83 4508   5.571   5.894   1.399  1.1273  0.3776  0.2753
   11CHTO   C52 4509   5.718   5.728   1.446 -0.9753  0.1167  0.5251
   11CHTO   O35 4510   5.705   5.660   1.324  0.3314  0.0105 -0.3954
   11CHTO   H71 4511   5.761   5.706   1.265 -0.9217  3.3041  0.8958
   11CHTO   O28 4512   5.278   5.710   1.568  0.3531 -0.3240 -0.8002
   11CHTO   C42 4513   5.193   5.626   1.476 -0.3901 -0.1271  0.6040
   11CHTO   H84 4514   5.209   5.661   1.374 -2.7913 -0.0377  0.2145
   11CHTO   C44 4515   5.040   5.648   1.500 -0.3064 -0.9954 -0.3119
   11CHTO   H86 4516   5.019   5.629   1.605  2.1057 -0.7881  0.2298
   11CHTO   O32 4517   5.017   5.787   1.478  0.5845  0.2088 -0.4343
   11CHTO   H69 4518   4.969   5.827   1.548 -0.3106 -0.2607 -0.7737
   11CHTO   C48 4519   4.951   5.556   1.411 -0.4830 -0.1792  0.3733
   11CHTO   H90 4520   4.958   5.584   1.306  0.4459 -2.1551 -0.1158
   11CHTO    N9 4521   4.812   5.566   1.446 -0.3349 -0.0733 -0.3191
   11CHTO   H77 4522   4.760   5.509   1.371  1.5573 -1.7270 -0.3915
   11CHTO   H78 4523   4.792   5.528   1.545 -1.2558 -1.1524 -0.9085
   11CHTO   C51 4524   5.002   5.404   1.424 -0.7622  0.2190  0.2421
   11CHTO   H93 4525   4.997   5.373   1.529 -2.9601  1.0917  0.4384
   11CHTO   O30 4526   5.136   5.399   1.376 -0.1529 -0.1369  0.4432
   11CHTO   C46 4527   5.228   5.479   1.477  0.5459  0.4606  0.0430
   11CHTO   H88 4528   5.205   5.432   1.573  0.4731  1.3777  0.4879
   11CHTO   C53 4529   5.373   5.448   1.449  0.3255 -0.0937 -0.0355
   11CHTO   O72 4530   5.397   5.306   1.460  0.1607  0.3361 -0.0646
   11CHTO  H199 4531   5.450   5.279   1.387  0.6316 -0.3915  0.5395
   11CHTO   O22 4532   4.928   5.308   1.340  0.3578  0.0979 -0.9370
   11CHTO   C31 4533   4.877   5.180   1.397 -0.4216 -0.2419  0.0461
   11CHTO   H59 4534   4.891   5.184   1.507  0.0142 -0.4495 -0.0024
   11CHTO   C29 4535   4.728   5.160   1.375 -0.5174  1.2494  0.0305
   11CHTO   H57 4536   4.715   5.152   1.266  1.0965 -2.0851  0.0367
   11CHTO   O21 4537   4.662   5.275   1.430 -0.2013 -0.1555 -0.1518
   11CHTO   H37 4538   4.689   5.352   1.385  0.3126 -0.1860  0.1089
   11CHTO   C27 4539   4.673   5.028   1.441  1.1740 -0.1530  0.7335
   11CHTO   H55 4540   4.694   5.029   1.549 -2.4390  0.6115  1.4925
   11CHTO    N5 4541   4.528   5.004   1.430 -0.1349 -0.2712 -0.0239
   11CHTO   H43 4542   4.476   5.090   1.471 -1.0898 -1.8922  2.2784
   11CHTO   H44 4543   4.494   4.975   1.332 -0.3284  0.8170 -0.2917
   11CHTO   C25 4544   4.757   4.919   1.373 -0.3243  0.7687  0.1186
   11CHTO   H53 4545   4.731   4.927   1.267  0.3037 -0.9286 -0.1683
   11CHTO   O17 4546   4.896   4.937   1.412 -0.2118  0.1290  0.5757
   11CHTO   C32 4547   4.952   5.057   1.350  0.1194 -0.1415 -0.7172
   11CHTO   H60 4548   4.948   5.045   1.242  0.6776  0.0350 -0.7598
   11CHTO   C36 4549   5.104   5.058   1.394 -0.4819  0.2149 -0.7820
   11CHTO   O25 4550   5.200   5.143   1.330 -0.3537  0.4833 -0.1095
   11CHTO   H40 4551   5.162   5.226   1.309 -0.3520  1.2578  2.7939
   11CHTO   O15 4552   4.707   4.768   1.406  0.1497  0.3841  0.2257
   11CHTO   C19 4553   4.716   4.664   1.500  0.5485 -0.3060 -0.6803
   11CHTO   H47 4554   4.692   4.583   1.430 -4.0043 -0.3943  0.7511
   11CHTO   C20 4555   4.856   4.646   1.555 -0.8804  0.5795  0.3030
   11CHTO   H48 4556   4.893   4.735   1.608 -0.4533 -0.8042  2.3932
   11CHTO   O19 4557   4.943   4.625   1.440 -0.2175  0.8542 -0.0152
   11CHTO   H35 4558   4.927   4.691   1.375 -2.0784  1.2256  0.7928
   11CHTO   C21 4559   4.863   4.518   1.650 -0.1432  0.9389  0.3967
   11CHTO   H49 4560   4.855   4.428   1.589  0.5526  0.9886  0.2277
   11CHTO    N4 4561   4.993   4.505   1.721 -0.0448  0.1077 -0.1726
   11CHTO   H41 4562   5.000   4.587   1.791 -0.0123 -0.3306  0.3338
   11CHTO   H42 4563   5.075   4.508   1.652 -0.7338 -2.8370 -1.1852
   11CHTO   C22 4564   4.745   4.525   1.751 -0.0875  0.7559  0.7942
   11CHTO   H50 4565   4.762   4.613   1.813 -1.9722 -0.2431  2.7915
   11CHTO   O14 4566   4.620   4.534   1.681  0.2820 -0.0405 -0.5881
   11CHTO   C23 4567   4.602   4.656   1.607 -0.0066  0.0207  0.8268
   11CHTO   H51 4568   4.603   4.741   1.675 -0.7618  0.7794 -0.0916
   11CHTO   C34 4569   4.459   4.665   1.551 -0.0765 -0.1181  0.0075
   11CHTO   O23 4570   4.361   4.666   1.655  0.2625  0.1082 -0.1521
   11CHTO   H38 4571   4.289   4.610   1.631  1.0910 -1.2460  0.4641
   11CHTO   O16 4572   4.738   4.409   1.833 -0.3901  0.1667 -0.0647
   11CHTO   C24 4573   4.651   4.436   1.970 -0.1053 -0.3154  0.8223
   11CHTO   H52 4574   4.612   4.538   1.973 -1.6338 -0.8067 -1.1072
   11CHTO   C26 4575   4.751   4.424   2.088 -0.3296 -0.3543 -0.0394
   11CHTO   H54 4576   4.813   4.333   2.070  1.2093  0.1015  2.6543
   11CHTO   O20 4577   4.851   4.527   2.078  0.6703 -0.4576  0.6282
   11CHTO   H36 4578   4.817   4.614   2.072  0.7869 -0.3498  1.4905
   11CHTO   C30 4579   4.683   4.413   2.229  0.4944  0.0897  0.1314
   11CHTO   H58 4580   4.655   4.515   2.260 -0.9341 -1.0988  2.8377
   11CHTO    N6 4581   4.772   4.374   2.337 -0.4177  0.1886 -0.2598
   11CHTO   H45 4582   4.859   4.437   2.334 -0.7153  0.5332 -1.9923
   11CHTO   H46 4583   4.730   4.381   2.437 -1.9632 -2.7243 -0.6467
   11CHTO   C33 4584   4.560   4.315   2.220  0.7866 -0.6773 -0.0193
   11CHTO   H61 4585   4.602   4.214   2.202 -1.2970 -1.5303 -0.2423
   11CHTO   O18 4586   4.473   4.352   2.113 -0.4697  0.0013  0.1899
   11CHTO   C28 4587   4.527   4.342   1.983  0.1001 -0.8711 -0.1242
   11CHTO   H56 4588   4.551   4.238   1.958  2.0571 -0.0287 -1.9884
   11CHTO   C35 4589   4.413   4.394   1.891 -0.6160  0.1539  0.0349
   11CHTO   O24 4590   4.301   4.306   1.883  0.1572  0.0580  0.5600
   11CHTO   H39 4591   4.330   4.237   1.828 -0.4352  1.0486 -1.0344
   11CHTO    O9 4592   4.489   4.312   2.343  0.1307  0.1619 -0.8253
   11CHTO   C13 4593   4.358   4.201   2.380  0.2346  0.0433 -0.0141
   11CHTO   H26 4594   4.379   4.174   2.485  0.0088 -0.6510 -0.1435
   11CHTO   C11 4595   4.352   4.069   2.286 -0.8322  0.1727  0.2651
   11CHTO   H24 4596   4.450   4.020   2.282 -0.3537  0.9129  2.1825
   11CHTO    O8 4597   4.328   4.110   2.153 -0.0103  0.1063 -0.2923
   11CHTO    H3 4598   4.307   4.035   2.100 -2.0777  0.0655  0.5481
   11CHTO    C9 4599   4.243   3.978   2.348 -0.3381 -0.2610 -0.0367
   11CHTO   H22 4600   4.268   3.977   2.455 -0.8547  1.7509  0.1244
   11CHTO    N2 4601   4.250   3.838   2.292  0.0652  1.0091  0.1333
   11CHTO   H10 4602   4.348   3.795   2.283  0.0707  0.6713  1.6264
   11CHTO   H11 4603   4.162   3.785   2.258  1.4289 -0.1631 -1.6517
   11CHTO    C7 4604   4.098   4.047   2.339  0.9745  0.1672 -0.0173
   11CHTO   H20 4605   4.035   3.992   2.412  0.7823  1.8947  1.1512
   11CHTO    O4 4606   4.105   4.189   2.384 -0.3352 -0.0758  0.0294
   11CHTO   C14 4607   4.218   4.276   2.384 -0.6707 -0.6713 -0.0171
   11CHTO   H27 4608   4.205   4.334   2.478  0.7005  0.7511 -0.6900
   11CHTO   C18 4609   4.184   4.378   2.267 -0.4188 -0.2525  0.6523
   11CHTO   O13 4610   4.267   4.494   2.273  0.8660  0.0169  0.4715
   11CHTO    H7 4611   4.212   4.569   2.263  1.9652  1.0013  1.5681
   11CHTO    O2 4612   4.042   4.041   2.201  0.5061  0.4358  0.2337
   11CHTO    C1 4613   3.902   4.063   2.197  0.3346 -0.3294 -0.5742
   11CHTO   H14 4614   3.888   4.144   2.272  2.0208 -1.8224  1.4187
   11CHTO    C2 4615   3.810   3.937   2.231  0.1076  0.7018  0.4784
   11CHTO   H15 4616   3.856   3.844   2.194 -0.8979 -0.3852  1.8662
   11CHTO    O6 4617   3.803   3.913   2.372  0.1202  0.2279  0.5400
   11CHTO    H1 4618   3.876   3.945   2.422 -0.7602  1.4652  1.0579
   11CHTO    C3 4619   3.655   3.943   2.179 -0.2178  0.3040  0.2194
   11CHTO   H16 4620   3.593   4.005   2.244  0.1845  2.1528 -1.1188
   11CHTO    N1 4621   3.591   3.808   2.180 -0.3308  0.2443 -0.2574
   11CHTO    H8 4622   3.483   3.813   2.193  0.0100  0.6264  3.0350
   11CHTO    H9 4623   3.629   3.745   2.259 -1.9451 -0.1002  0.2700
   11CHTO    C4 4624   3.652   4.008   2.025  0.1171  0.6027  0.0243
   11CHTO   H17 4625   3.689   3.935   1.954 -0.9477  2.6918 -2.7686
   11CHTO    O1 4626   3.726   4.132   2.035 -0.3347  0.0273 -0.0735
   11CHTO    C5 4627   3.867   4.124   2.055 -1.2133 -0.0379 -0.2262
   11CHTO   H18 4628   3.911   4.061   1.978 -0.9332 -1.7747  1.3049
   11CHTO   C16 4629   3.934   4.267   2.044  0.5044  0.1565  0.2872
   11CHTO   O11 4630   3.882   4.351   2.147 -0.0928 -0.4727 -0.2710
   11CHTO    H5 4631   3.789   4.354   2.135 -0.3252 -0.6562  1.3776
   11CHTO    O3 4632   3.522   4.055   1.980  0.3908  0.2496  0.3485
   11CHTO    C6 4633   3.496   4.073   1.842  0.0902  0.0897  0.1060
   11CHTO   H19 4634   3.580   4.114   1.785  0.6521  0.0298  0.8828
   11CHTO    C8 4635   3.441   3.935   1.791  0.1275  0.1960 -0.6555
   11CHTO   H21 4636   3.369   3.898   1.864  0.4732 -0.0938 -0.4605
   11CHTO    O7 4637   3.554   3.854   1.781  0.0545 -0.0861 -0.2758
   11CHTO    H2 4638   3.535   3.763   1.792 -0.4835  0.0633  0.0600
   11CHTO   C12 4639   3.370   3.959   1.653 -0.1993  0.1471  0.2649
   11CHTO   H25 4640   3.454   4.003   1.595  0.8342 -1.6352  0.3427
   11CHTO    N3 4641   3.322   3.829   1.583  0.3185 -0.1697  0.0048
   11CHTO   H12 4642   3.390   3.806   1.503 -0.2188  1.9195 -1.0922
   11CHTO   H13 4643   3.313   3.753   1.659 -0.7821 -0.6517 -0.6074
   11CHTO   C15 4644   3.261   4.073   1.666  0.2552 -0.2823  0.0381
   11CHTO   H28 4645   3.185   4.041   1.737 -0.2709  1.2629  0.1914
   11CHTO   O10 4646   3.197   4.124   1.536  0.5166 -0.1536 -0.4141
   11CHTO    H4 4647   3.266   4.159   1.484  0.5062  0.8296  0.2219
   11CHTO    O5 4648   3.322   4.192   1.718 -0.1228 -0.2388  0.0175
   11CHTO   C10 4649   3.383   4.184   1.847  0.2729 -0.3970 -0.5711
   11CHTO   H23 4650   3.304   4.162   1.918  0.0746  2.7262  0.2478
   11CHTO   C17 4651   3.446   4.324   1.877  0.7897 -1.4199  0.3142
   11CHTO   O12 4652   3.467   4.350   2.013 -0.0390  0.3227  0.2447
   11CHTO    H6 4653   3.478   4.264   2.049 -1.2348 -0.5138 -1.3154
   12CHTO  H203 4654   4.518   0.263   2.692 -2.2278 -0.9218 -1.1423
   12CHTO   O82 4655   4.560   0.302   2.617 -0.6838 -0.5698 -0.1179
   12CHTO  C123 4656   4.606   0.202   2.525  0.3189 -0.1438  0.3571
   12CHTO  H227 4657   4.522   0.154   2.472  0.7447  0.5511 -0.9616
   12CHTO   O77 4658   4.674   0.282   2.423 -0.4329  0.1981  0.8255
   12CHTO  C118 4659   4.730   0.214   2.312 -0.4384  0.2266 -0.5514
   12CHTO  H222 4660   4.641   0.173   2.264 -0.0184 -0.8962 -0.3886
   12CHTO  C125 4661   4.806   0.309   2.213  0.5526 -0.3958  0.0585
   12CHTO   O84 4662   4.722   0.410   2.145 -0.0503  0.2429  0.3731
   12CHTO  H205 4663   4.770   0.468   2.089 -2.1164  0.3779 -1.3210
   12CHTO  C114 4664   4.832   0.112   2.357  0.0095 -0.7037 -0.1611
   12CHTO  H218 4665   4.911   0.169   2.406 -2.2724  1.3966  1.1629
   12CHTO  C116 4666   4.785   0.026   2.478 -0.3385  0.3193 -0.3228
   12CHTO  H220 4667   4.723  -0.063   2.454 -0.7875  0.5723 -0.1107
   12CHTO   O79 4668   4.908  -0.026   2.532 -0.2277  0.2122  0.0584
   12CHTO  H201 4669   4.937  -0.097   2.477  1.3652  1.6087 -0.9660
   12CHTO  C120 4670   4.720   0.113   2.593 -0.3899  0.3156  0.3488
   12CHTO  H224 4671   4.799   0.179   2.632  0.0416 -0.8173  1.4063
   12CHTO   N21 4672   4.677   0.025   2.708  0.5409  0.0082  0.1527
   12CHTO  H211 4673   4.724  -0.071   2.722 -0.8143 -0.3322  2.5445
   12CHTO  H212 4674   4.693   0.071   2.804 -0.2460 -0.9932  0.7576
   12CHTO   O75 4675   4.881   0.050   2.235 -0.8550 -0.5346  0.3262
   12CHTO  C112 4676   4.787  -0.058   2.137 -0.3722  0.0447  0.3525
   12CHTO  H216 4677   4.738   0.007   2.063 -2.0583  0.2925  1.6530
   12CHTO   O73 4678   4.700  -0.121   2.218  0.0123  0.6358 -0.5192
   12CHTO  C113 4679   4.628  -0.234   2.162 -0.5107 -0.3188 -0.1882
   12CHTO  H217 4680   4.561  -0.206   2.078 -2.1756 -1.0367  0.8827
   12CHTO  C124 4681   4.532  -0.288   2.270 -0.0940  0.1027  0.1775
   12CHTO   O83 4682   4.578  -0.287   2.407  0.2671 -0.0877 -0.3943
   12CHTO  H204 4683   4.602  -0.372   2.437 -2.5989 -1.1610 -0.9535
   12CHTO  C109 4684   4.731  -0.343   2.129 -0.1646 -0.8344  0.5307
   12CHTO  H213 4685   4.778  -0.373   2.224 -0.4151  0.2107  0.9871
   12CHTO  C110 4686   4.831  -0.289   2.014 -0.0249  0.1079  0.2287
   12CHTO  H214 4687   4.779  -0.270   1.920 -1.0859  0.0061  0.7841
   12CHTO   O78 4688   4.930  -0.387   1.978 -0.0617 -0.0664  0.4279
   12CHTO  H200 4689   4.881  -0.464   1.955  0.3561  0.0479 -0.9132
   12CHTO  C111 4690   4.890  -0.153   2.067 -0.1362 -0.2830 -0.4191
   12CHTO  H215 4691   4.957  -0.182   2.149 -0.4606 -3.7004 -1.3190
   12CHTO   N19 4692   4.970  -0.074   1.969  0.4579 -0.1110  0.1777
   12CHTO  H207 4693   4.913  -0.034   1.887  0.9997  0.6495  0.1710
   12CHTO  H208 4694   5.028   0.007   2.010  1.4556 -1.2415  1.0827
   12CHTO   O74 4695   4.664  -0.465   2.077 -0.2710  0.0752 -0.4578
   12CHTO  C115 4696   4.728  -0.623   2.115 -0.4001  0.8897  0.2602
   12CHTO  H219 4697   4.654  -0.702   2.105 -1.2401  1.7813 -0.5930
   12CHTO   O76 4698   4.836  -0.659   2.018  0.4177 -0.0421 -0.2158
   12CHTO  C122 4699   4.904  -0.785   2.018 -0.0194  0.2757  0.3203
   12CHTO  H226 4700   4.987  -0.764   1.950  0.6787  0.2216  1.1482
   12CHTO  C126 4701   4.816  -0.891   1.943  0.0819 -0.1658 -0.2861
   12CHTO   O85 4702   4.693  -0.908   2.022  0.4581 -0.1793 -0.4053
   12CHTO  H206 4703   4.628  -0.958   1.977 -3.2378  3.2502  0.7866
   12CHTO  C121 4704   4.958  -0.826   2.156 -0.5265 -0.1620 -0.2002
   12CHTO  H225 4705   4.983  -0.934   2.158 -1.2348 -0.3136  0.5112
   12CHTO   O81 4706   5.080  -0.756   2.180  0.0776  0.6346 -0.4288
   12CHTO  H202 4707   5.083  -0.667   2.152 -0.2596  0.3705 -1.3289
   12CHTO  C119 4708   4.850  -0.791   2.269 -0.3521 -0.5950 -0.2678
   12CHTO  H223 4709   4.771  -0.861   2.241 -1.1976  1.0498 -2.0779
   12CHTO  C117 4710   4.789  -0.646   2.264 -0.6513 -0.9580 -0.0376
   12CHTO  H221 4711   4.862  -0.565   2.274  0.1745 -1.7211  0.1152
   12CHTO   N20 4712   4.687  -0.618   2.364 -0.3447 -0.2581 -0.2775
   12CHTO  H209 4713   4.733  -0.538   2.421 -0.0539 -0.7906  0.2335
   12CHTO  H210 4714   4.605  -0.566   2.317  0.1000 -0.7646 -1.6271
   12CHTO   O80 4715   4.892  -0.844   2.410 -0.4778  0.4139 -0.5140
   12CHTO  C103 4716   4.776  -0.935   2.512 -0.3520  0.8077 -0.4379
   12CHTO  H190 4717   4.688  -0.874   2.533  0.7983  2.0877  0.7988
   12CHTO  C101 4718   4.719  -1.078   2.467  0.4756 -0.4130  0.6843
   12CHTO  H188 4719   4.801  -1.130   2.417  0.0126 -1.6736  1.2173
   12CHTO   O68 4720   4.617  -1.069   2.354 -0.4874 -0.5571  0.4727
   12CHTO  H168 4721   4.533  -1.045   2.387 -1.5112  0.5763 -2.8047
   12CHTO   C99 4722   4.650  -1.150   2.596  0.2047 -0.7557  1.0343
   12CHTO  H186 4723   4.563  -1.089   2.627  2.3953  1.1700  3.5707
   12CHTO   N17 4724   4.604  -1.294   2.573  0.0650  0.1252  0.2869
   12CHTO  H174 4725   4.543  -1.290   2.484 -2.5186  2.3359  2.0681
   12CHTO  H175 4726   4.690  -1.360   2.561  1.1462  1.6042 -0.2103
   12CHTO   C97 4727   4.744  -1.143   2.721  0.0027  0.0605 -1.3304
   12CHTO  H184 4728   4.834  -1.200   2.695 -0.1390 -1.5974  1.6486
   12CHTO   O64 4729   4.779  -1.008   2.746  0.0058  0.3176  0.4798
   12CHTO  C104 4730   4.852  -0.943   2.642 -0.3604 -1.1428  0.7029
   12CHTO  H191 4731   4.951  -0.985   2.625  0.7944  0.9254  2.0772
   12CHTO  C108 4732   4.883  -0.798   2.694  0.1688  0.5934  0.8449
   12CHTO   O71 4733   4.947  -0.788   2.822 -0.0625  0.3584  0.0609
   12CHTO  H171 4734   4.881  -0.782   2.888  0.2714  0.5152  0.3808
   12CHTO   O62 4735   4.688  -1.194   2.850  0.2888 -0.2493  0.1410
   12CHTO   C91 4736   4.785  -1.195   2.954 -0.2520 -0.4373  0.2141
   12CHTO  H178 4737   4.882  -1.174   2.907 -0.5666 -0.0724 -0.2786
   12CHTO   C92 4738   4.792  -1.345   3.009  0.3958  0.5754 -0.5386
   12CHTO  H179 4739   4.790  -1.406   2.918 -0.6420  1.4361 -1.0981
   12CHTO   O66 4740   4.907  -1.372   3.101  0.3014  0.2519 -0.1296
   12CHTO  H166 4741   4.950  -1.451   3.074 -0.5187 -0.3206  0.1877
   12CHTO   C93 4742   4.669  -1.378   3.104 -0.5707 -0.0363  0.3466
   12CHTO  H180 4743   4.698  -1.467   3.162 -2.3319 -0.5344  0.4862
   12CHTO   N16 4744   4.551  -1.437   3.033  0.3665 -0.5303 -0.0738
   12CHTO  H172 4745   4.467  -1.368   3.032  0.5439 -0.2377  1.7972
   12CHTO  H173 4746   4.523  -1.532   3.076  1.8584 -1.1042 -0.3361
   12CHTO   C94 4747   4.635  -1.265   3.206 -0.5988  0.4712  0.0379
   12CHTO  H181 4748   4.542  -1.215   3.178  0.1175  2.3896  1.0346
   12CHTO   O61 4749   4.733  -1.160   3.205  0.5405 -0.7487  0.1161
   12CHTO   C95 4750   4.745  -1.097   3.075  0.9298 -0.2715  0.1175
   12CHTO  H182 4751   4.652  -1.046   3.051  1.5097  0.3123 -0.9076
   12CHTO  C106 4752   4.854  -0.988   3.093  0.1153  0.4354  0.1272
   12CHTO   O69 4753   4.817  -0.890   3.186  0.4561 -0.0586  0.2233
   12CHTO  H169 4754   4.736  -0.851   3.160  0.6866  1.2634  1.4561
   12CHTO   O63 4755   4.625  -1.318   3.359  0.3055 -0.0187 -0.2850
   12CHTO   C96 4756   4.516  -1.227   3.477  0.2814  0.5885  0.3045
   12CHTO  H183 4757   4.411  -1.233   3.447  0.2300  1.1469  0.3739
   12CHTO   C98 4758   4.555  -1.074   3.501  0.0476  0.1454  0.0297
   12CHTO  H185 4759   4.582  -1.029   3.404 -0.8360 -0.7632 -0.6502
   12CHTO   O67 4760   4.441  -1.002   3.552  0.0495  0.1263  0.4066
   12CHTO  H167 4761   4.395  -1.048   3.620  1.0980 -0.1750  0.9179
   12CHTO  C102 4762   4.680  -1.059   3.602 -0.9448 -0.0758 -0.1262
   12CHTO  H189 4763   4.694  -0.950   3.613  1.0053 -0.3318 -0.0410
   12CHTO   N18 4764   4.805  -1.116   3.549  0.7080  0.4932 -0.3513
   12CHTO  H176 4765   4.892  -1.053   3.540  0.5491  0.6703 -0.6277
   12CHTO  H177 4766   4.792  -1.170   3.457  0.1680  2.6162 -1.5612
   12CHTO  C105 4767   4.640  -1.118   3.737  0.5556  0.3608  0.2888
   12CHTO  H192 4768   4.731  -1.160   3.781  1.8715 -0.0441 -2.6793
   12CHTO   O65 4769   4.537  -1.221   3.736  0.4700 -0.2334  0.0871
   12CHTO  C100 4770   4.531  -1.301   3.618  0.2560  0.3429  0.0806
   12CHTO  H187 4771   4.619  -1.367   3.617 -0.9553 -1.2993 -1.9752
   12CHTO  C107 4772   4.411  -1.399   3.644 -0.0143  0.1635  0.0947
   12CHTO   O70 4773   4.396  -1.499   3.541 -0.3315  0.4177 -0.1790
   12CHTO  H170 4774   4.416  -1.470   3.454 -1.3648  0.0198 -0.5599
   12CHTO   O57 4775   4.602  -0.992   3.822 -0.1382  0.1383  0.0765
   12CHTO   C85 4776   4.561  -0.994   3.954  0.5829 -0.2387  0.5743
   12CHTO  H157 4777   4.585  -0.892   3.992 -0.2246 -0.1641  0.8863
   12CHTO   C83 4778   4.641  -1.093   4.040 -0.5056  0.0854 -0.4684
   12CHTO  H155 4779   4.746  -1.077   4.015 -0.3562 -1.7138 -1.0491
   12CHTO   O56 4780   4.623  -1.233   4.000 -0.1221  0.3027  0.6498
   12CHTO  H135 4781   4.652  -1.229   3.911 -1.1300  3.1475  0.4192
   12CHTO   C81 4782   4.609  -1.063   4.186  1.0149  0.2799  1.4156
   12CHTO  H153 4783   4.620  -0.955   4.200 -3.5596  1.2482 -1.4240
   12CHTO   N14 4784   4.707  -1.127   4.277 -0.4684 -0.3127  0.1298
   12CHTO  H141 4785   4.810  -1.112   4.252  0.0113  0.7341  2.5073
   12CHTO  H142 4786   4.685  -1.229   4.300 -1.2920 -0.7487 -2.4589
   12CHTO   C79 4787   4.458  -1.097   4.212  0.3044 -0.8169 -0.1356
   12CHTO  H151 4788   4.434  -1.051   4.308 -0.8770  2.2052 -1.8183
   12CHTO   O52 4789   4.368  -1.028   4.113  0.3743 -0.1233  0.4072
   12CHTO   C86 4790   4.405  -1.033   3.974 -0.1683 -0.6842  0.4144
   12CHTO  H158 4791   4.389  -1.136   3.936  2.1883 -0.3699 -1.5630
   12CHTO   C90 4792   4.317  -0.940   3.880 -0.3267 -0.9026 -0.1902
   12CHTO   O60 4793   4.186  -0.995   3.872 -0.5633  0.6735  0.0755
   12CHTO  H138 4794   4.168  -1.010   3.962  0.4999  1.0637  0.3601
   12CHTO   O50 4795   4.417  -1.236   4.209  0.2392  0.3297  0.4034
   12CHTO   C73 4796   4.290  -1.298   4.240  0.2168 -0.4121  0.5464
   12CHTO  H145 4797   4.203  -1.230   4.240  0.3612 -0.2240  1.6013
   12CHTO   C74 4798   4.299  -1.353   4.382 -0.3569 -0.1041  0.0928
   12CHTO  H146 4799   4.323  -1.269   4.449 -1.8967 -0.9422  1.7287
   12CHTO   O54 4800   4.161  -1.398   4.409  0.3139  0.2670 -0.2869
   12CHTO  H133 4801   4.149  -1.442   4.491  0.5193 -0.8789 -0.8614
   12CHTO   C75 4802   4.408  -1.470   4.392  0.2901 -0.4338  0.4687
   12CHTO  H147 4803   4.507  -1.435   4.358 -0.5549  1.9986  0.4120
   12CHTO   N13 4804   4.421  -1.523   4.529  0.6675  0.3651 -0.0472
   12CHTO  H139 4805   4.447  -1.447   4.601  2.3911 -1.6625  1.5005
   12CHTO  H140 4806   4.508  -1.586   4.529  0.2534 -0.2820 -2.4857
   12CHTO   C76 4807   4.384  -1.575   4.277 -0.1336 -0.7673 -0.8030
   12CHTO  H148 4808   4.296  -1.635   4.301 -0.4372 -0.5151 -1.2529
   12CHTO   O49 4809   4.361  -1.512   4.147  0.4440 -0.1570 -0.4538
   12CHTO   C77 4810   4.261  -1.417   4.141  0.1199  0.1279 -0.5651
   12CHTO  H149 4811   4.168  -1.466   4.173  0.4242 -0.6987 -0.9295
   12CHTO   C88 4812   4.249  -1.370   3.999  0.1201  0.5820  0.0898
   12CHTO   O58 4813   4.138  -1.282   3.980 -0.1894 -0.0082  0.1249
   12CHTO  H136 4814   4.141  -1.230   3.902 -1.6257 -1.2082 -0.7680
   12CHTO   O51 4815   4.504  -1.690   4.259  0.0123 -0.5703  0.5414
   12CHTO   C78 4816   4.637  -1.643   4.198 -0.3249  0.0587  0.2936
   12CHTO  H150 4817   4.657  -1.535   4.212 -3.7078  1.1213 -2.3114
   12CHTO   C80 4818   4.649  -1.673   4.047 -0.3289  0.3277  0.2057
   12CHTO  H152 4819   4.628  -1.781   4.032 -1.4968  0.7354 -1.1934
   12CHTO   O55 4820   4.550  -1.587   3.987  0.0867 -0.0463 -0.1850
   12CHTO  H134 4821   4.468  -1.615   4.024 -0.8131  1.7109 -0.8000
   12CHTO   C84 4822   4.797  -1.639   3.988 -0.1333 -0.0577  0.0570
   12CHTO  H156 4823   4.804  -1.530   3.998  0.8598 -0.3318  2.7021
   12CHTO   N15 4824   4.813  -1.676   3.847  0.1295  0.3936  0.0302
   12CHTO  H143 4825   4.767  -1.770   3.825  0.9668 -0.5142  2.0216
   12CHTO  H144 4826   4.918  -1.680   3.825  0.3253  0.1670  0.9754
   12CHTO   C87 4827   4.899  -1.699   4.078 -0.4049  0.7273  0.3628
   12CHTO  H159 4828   4.893  -1.807   4.067 -3.0847  0.5888  2.5596
   12CHTO   O53 4829   4.875  -1.664   4.215  0.0886 -0.9345 -0.1960
   12CHTO   C82 4830   4.757  -1.720   4.269  0.3053  0.4528 -0.6646
   12CHTO  H154 4831   4.753  -1.827   4.248 -0.7320  0.6194 -1.3585
   12CHTO   C89 4832   4.750  -1.701   4.422 -0.1043  0.1178 -0.0089
   12CHTO   O59 4833   4.877  -1.739   4.475 -0.5933 -0.1904 -0.1787
   12CHTO  H137 4834   4.886  -1.832   4.475 -2.2961 -0.4118 -2.4303
   12CHTO   O45 4835   5.056  -1.657   4.035  0.6245 -0.4125  0.1660
   12CHTO   C67 4836   5.132  -1.749   3.951  0.3325  0.0663  0.0665
   12CHTO  H124 4837   5.070  -1.825   3.902  0.2790  0.6637 -0.8113
   12CHTO   C65 4838   5.207  -1.668   3.840  0.6510  0.1220 -0.1618
   12CHTO  H122 4839   5.131  -1.599   3.804 -0.3416  1.4984  4.2396
   12CHTO   O44 4840   5.244  -1.745   3.730  0.5817  0.0645  0.2318
   12CHTO  H102 4841   5.177  -1.799   3.693  0.0713  1.3630 -0.7739
   12CHTO   C63 4842   5.316  -1.575   3.908  0.1876 -0.0613  0.2031
   12CHTO  H120 4843   5.266  -1.513   3.982 -1.5302 -1.7003  0.4435
   12CHTO   N11 4844   5.375  -1.469   3.816 -0.1760  0.1714  0.3680
   12CHTO  H108 4845   5.292  -1.407   3.787 -0.6734  0.0641  1.5431
   12CHTO  H109 4846   5.442  -1.408   3.872 -1.3306  1.2966  0.5443
   12CHTO   C61 4847   5.423  -1.660   3.990  0.5652 -0.4537 -0.0287
   12CHTO  H118 4848   5.480  -1.594   4.057  1.3699 -0.3200 -0.8453
   12CHTO   O40 4849   5.363  -1.763   4.077 -0.2171  0.5025  0.5278
   12CHTO   C68 4850   5.233  -1.827   4.046 -0.4972  0.0854 -1.3429
   12CHTO  H125 4851   5.195  -1.847   4.148 -0.4828 -2.9419 -1.8916
   12CHTO   C72 4852   5.244  -1.967   3.982  0.0062  0.3158 -0.1515
   12CHTO   O48 4853   5.307  -2.049   4.080 -0.4306 -0.0447  0.2319
   12CHTO  H105 4854   5.394  -2.017   4.086 -0.6080  1.0490 -2.5011
   12CHTO   O38 4855   5.521  -1.724   3.903  0.5106  0.0983 -0.5285
   12CHTO   C55 4856   5.659  -1.719   3.945  0.6591 -0.0594  0.2398
   12CHTO  H112 4857   5.662  -1.703   4.054 -2.1892 -2.3930  0.7522
   12CHTO   C56 4858   5.732  -1.607   3.868  0.6580 -0.1140  0.2524
   12CHTO  H113 4859   5.710  -1.612   3.760  0.5530  2.5551  0.1219
   12CHTO   O42 4860   5.676  -1.485   3.913  0.4646  0.1268 -0.7114
   12CHTO  H100 4861   5.629  -1.443   3.844 -2.7746 -5.3514 -2.1346
   12CHTO   C57 4862   5.886  -1.605   3.902  0.2268  0.2599  0.2119
   12CHTO  H114 4863   5.888  -1.578   4.008 -0.0732  0.7901  0.0807
   12CHTO   N10 4864   5.967  -1.498   3.837 -0.0011 -0.4605 -0.0380
   12CHTO  H106 4865   5.910  -1.415   3.797 -0.3494 -0.7123 -0.0695
   12CHTO  H107 4866   6.030  -1.536   3.759 -0.6483 -1.4192 -0.1082
   12CHTO   C58 4867   5.947  -1.747   3.878 -0.8349  0.1633  0.1552
   12CHTO  H115 4868   5.947  -1.762   3.768  1.7704  1.0298  0.0075
   12CHTO   O37 4869   5.867  -1.842   3.951  0.0231 -0.2915 -0.3789
   12CHTO   C59 4870   5.731  -1.856   3.917  0.1813 -0.3928 -0.3357
   12CHTO  H116 4871   5.726  -1.881   3.811 -0.0627 -0.2663 -0.3519
   12CHTO   C70 4872   5.668  -1.963   4.011 -0.7091  0.1814 -0.5642
   12CHTO   O46 4873   5.752  -2.074   4.013  0.2047  0.1018 -0.2099
   12CHTO  H103 4874   5.784  -2.097   3.928 -2.3414  2.9174 -2.0358
   12CHTO   O39 4875   6.102  -1.758   3.937  0.1441  0.0417  0.8924
   12CHTO   C60 4876   6.167  -1.883   3.899  0.2449  0.2627 -0.2892
   12CHTO  H117 4877   6.095  -1.956   3.861 -0.7881  0.4838  1.1945
   12CHTO   C62 4878   6.277  -1.848   3.790 -0.1490  0.0735  0.4022
   12CHTO  H119 4879   6.224  -1.795   3.708 -0.7971 -0.3291  0.5559
   12CHTO   O43 4880   6.375  -1.750   3.839 -0.1538  0.6267  0.7525
   12CHTO  H101 4881   6.361  -1.673   3.787  0.4308 -0.0816 -0.4712
   12CHTO   C66 4882   6.350  -1.985   3.737 -0.7984  0.2497 -0.3448
   12CHTO  H123 4883   6.272  -2.052   3.700  1.1614 -0.6441 -3.0198
   12CHTO   N12 4884   6.429  -1.959   3.615 -0.4372 -0.1883 -0.3512
   12CHTO  H110 4885   6.523  -1.914   3.643 -1.3874  1.5952  0.0357
   12CHTO  H111 4886   6.446  -2.043   3.548  1.3712 -0.2859  0.2233
   12CHTO   C69 4887   6.421  -2.060   3.853  0.1276  0.0679 -0.5041
   12CHTO  H126 4888   6.500  -1.988   3.882  0.4065 -0.7557  0.7905
   12CHTO   O41 4889   6.330  -2.071   3.971 -0.1222 -0.0379  0.2367
   12CHTO   C64 4890   6.241  -1.941   4.019 -0.2417  0.2783  0.2355
   12CHTO  H121 4891   6.300  -1.863   4.072 -0.2130  0.2310  0.2721
   12CHTO   C71 4892   6.134  -1.988   4.122  0.0745 -0.3771 -0.2102
   12CHTO   O47 4893   6.114  -1.888   4.217  0.3267  0.2684  0.4602
   12CHTO  H104 4894   6.194  -1.882   4.265  0.3560 -0.4013  0.4935
   12CHTO   O34 4895   6.476  -2.180   3.811 -0.0859  0.4593 -0.2357
   12CHTO   C49 4896   6.568  -2.272   3.888 -0.0254 -0.4067  0.0100
   12CHTO   H91 4897   6.656  -2.227   3.933  1.0323 -3.2615  0.9700
   12CHTO   C47 4898   6.628  -2.368   3.780 -0.2200 -0.1246  0.3058
   12CHTO   H89 4899   6.699  -2.439   3.829  0.3518 -1.0046 -1.7681
   12CHTO   O33 4900   6.695  -2.292   3.683  0.3907 -0.8963 -0.1818
   12CHTO   H70 4901   6.771  -2.260   3.729 -1.1614 -0.2613  1.9960
   12CHTO   C45 4902   6.522  -2.450   3.701 -0.2742  0.1044 -0.2935
   12CHTO   H87 4903   6.484  -2.405   3.609  0.2460  1.5366  0.1815
   12CHTO    N8 4904   6.580  -2.580   3.664  0.2479  0.3063 -0.1108
   12CHTO   H75 4905   6.679  -2.576   3.620 -0.6838  3.4351 -2.1364
   12CHTO   H76 4906   6.583  -2.637   3.756 -0.1118  0.3456 -0.0725
   12CHTO   C43 4907   6.392  -2.465   3.792 -1.1327  0.4849  0.0758
   12CHTO   H85 4908   6.337  -2.373   3.773 -0.2274  1.1589  0.7029
   12CHTO   O29 4909   6.428  -2.478   3.936 -0.4237 -0.8683 -0.5624
   12CHTO   C50 4910   6.501  -2.369   3.995 -0.0337 -0.7001  0.2784
   12CHTO   H92 4911   6.426  -2.311   4.049  1.1340  1.2029 -0.0955
   12CHTO   C54 4912   6.585  -2.417   4.113  0.2890  0.0570 -0.2004
   12CHTO   O36 4913   6.673  -2.517   4.075 -0.4967  0.4539  0.0789
   12CHTO   H72 4914   6.762  -2.492   4.058  0.0335 -0.3667  1.5775
   12CHTO   O27 4915   6.293  -2.560   3.747 -0.3921 -1.0044 -0.5917
   12CHTO   C37 4916   6.156  -2.530   3.722  0.0934  0.1635  0.9583
   12CHTO   H79 4917   6.105  -2.627   3.712  0.2907  0.1915 -0.5146
   12CHTO   C38 4918   6.078  -2.450   3.832 -0.3690  0.6472  0.9231
   12CHTO   H80 4919   6.124  -2.353   3.853  0.0324  0.2674  1.8300
   12CHTO   O31 4920   6.086  -2.535   3.951  0.0224 -1.0391  0.8193
   12CHTO   H68 4921   6.010  -2.521   4.005  0.1186 -2.4337  1.3231
   12CHTO   C39 4922   5.929  -2.435   3.783 -0.1035 -0.1242 -0.0371
   12CHTO   H81 4923   5.891  -2.537   3.774  1.5954 -0.6420 -1.7076
   12CHTO    N7 4924   5.834  -2.372   3.872  0.4007  0.3684 -0.2012
   12CHTO   H73 4925   5.875  -2.278   3.907 -1.0156  1.0643 -0.3815
   12CHTO   H74 4926   5.738  -2.367   3.823 -1.2503 -2.2036  2.5717
   12CHTO   C40 4927   5.917  -2.368   3.638 -0.3750  0.0194 -0.2619
   12CHTO   H82 4928   5.937  -2.261   3.636  0.0573  0.0550  2.8982
   12CHTO   O26 4929   6.000  -2.444   3.550  0.0889 -0.5025 -0.3930
   12CHTO   C41 4930   6.142  -2.461   3.584  0.1643 -0.4266  0.5604
   12CHTO   H83 4931   6.196  -2.365   3.587 -0.4534 -0.0466 -0.4248
   12CHTO   C52 4932   6.215  -2.544   3.474 -0.4331 -0.0793  0.1846
   12CHTO   O35 4933   6.221  -2.486   3.327 -0.3450 -0.0356 -0.0534
   12CHTO   H71 4934   6.169  -2.542   3.274  1.0497 -2.3355  0.9298
   12CHTO   O28 4935   5.785  -2.380   3.569 -0.0749  0.1166  0.6275
   12CHTO   C42 4936   5.740  -2.279   3.470 -0.6278  0.4352 -0.0005
   12CHTO   H84 4937   5.658  -2.328   3.419  1.5467 -1.2835 -1.9667
   12CHTO   C44 4938   5.847  -2.240   3.361 -0.2402  0.1284 -0.0738
   12CHTO   H86 4939   5.929  -2.183   3.402 -0.1508 -0.8286  1.1138
   12CHTO   O32 4940   5.891  -2.368   3.311 -0.1041  0.1798  0.4774
   12CHTO   H69 4941   5.821  -2.411   3.266  0.9106  0.9415 -1.9338
   12CHTO   C48 4942   5.774  -2.146   3.253  0.0925  0.7626  0.4612
   12CHTO   H90 4943   5.689  -2.191   3.200  0.0160 -0.0039  1.2235
   12CHTO    N9 4944   5.864  -2.115   3.146 -0.3416  0.3647 -0.2929
   12CHTO   H77 4945   5.868  -2.204   3.085 -3.2750 -0.7608  1.0723
   12CHTO   H78 4946   5.963  -2.086   3.179 -0.6115  0.0067  0.8623
   12CHTO   C51 4947   5.723  -2.020   3.336  0.1566  0.2141  0.2598
   12CHTO   H93 4948   5.808  -1.971   3.383 -0.8482  1.4863  0.7723
   12CHTO   O30 4949   5.625  -2.061   3.432  0.0761 -1.0155 -0.5621
   12CHTO   C46 4950   5.687  -2.152   3.537 -0.4550  0.6095  0.5530
   12CHTO   H88 4951   5.771  -2.106   3.587 -0.2209  0.3298  0.4188
   12CHTO   C53 4952   5.581  -2.189   3.641 -0.2307 -0.5012  0.0257
   12CHTO   O72 4953   5.495  -2.089   3.693 -0.0658 -0.4418  0.5299
   12CHTO  H199 4954   5.455  -2.044   3.621  1.6096 -0.1895 -0.2748
   12CHTO   O22 4955   5.657  -1.921   3.255  0.0324 -0.4008 -0.2142
   12CHTO   C31 4956   5.520  -1.861   3.268  0.7444  0.3515  0.2322
   12CHTO   H59 4957   5.466  -1.929   3.336 -0.5164 -0.2026 -1.3125
   12CHTO   C29 4958   5.516  -1.720   3.336 -0.2353 -0.3297 -0.3906
   12CHTO   H57 4959   5.575  -1.655   3.270 -0.9462 -0.4562 -1.1711
   12CHTO   O21 4960   5.592  -1.720   3.458  0.0192 -0.7087 -0.2276
   12CHTO   H37 4961   5.616  -1.635   3.488 -1.1265  0.2174 -1.8339
   12CHTO   C27 4962   5.372  -1.669   3.350 -0.0274  0.6401  0.6785
   12CHTO   H55 4963   5.318  -1.744   3.409  1.8710 -0.1384  1.4848
   12CHTO    N5 4964   5.359  -1.533   3.409 -0.6012 -0.4828  0.1924
   12CHTO   H43 4965   5.313  -1.538   3.507  1.6470  0.3061  1.3253
   12CHTO   H44 4966   5.324  -1.463   3.334 -1.3000  0.0698  1.0270
   12CHTO   C25 4967   5.291  -1.697   3.213 -0.0870 -0.9909 -0.5897
   12CHTO   H53 4968   5.313  -1.615   3.143  1.7686  1.3421  2.5945
   12CHTO   O17 4969   5.308  -1.833   3.160  0.5549  0.3302 -0.1546
   12CHTO   C32 4970   5.441  -1.861   3.132  0.1195 -0.1706 -0.0117
   12CHTO   H60 4971   5.477  -1.781   3.067 -1.3111  0.8615  0.4281
   12CHTO   C36 4972   5.443  -1.991   3.061  0.1432  0.3180  0.0984
   12CHTO   O25 4973   5.570  -2.016   3.000  0.2422  0.2928 -0.4385
   12CHTO   H40 4974   5.563  -2.039   2.909  0.1622  2.1404 -0.9132
   12CHTO   O15 4975   5.151  -1.682   3.230 -0.3049  0.7225 -0.0791
   12CHTO   C19 4976   5.006  -1.685   3.205 -0.2849  0.2996  0.5910
   12CHTO   H47 4977   4.994  -1.601   3.136  2.2117  1.2357  1.2635
   12CHTO   C20 4978   4.957  -1.825   3.148  0.2744 -0.3118 -0.2046
   12CHTO   H48 4979   5.005  -1.906   3.205 -0.2962  1.4026  2.8212
   12CHTO   O19 4980   5.009  -1.825   3.011 -0.0958  0.0792  0.1511
   12CHTO   H35 4981   4.948  -1.844   2.943  1.7847 -2.3738 -0.9026
   12CHTO   C21 4982   4.797  -1.832   3.155 -0.0258 -0.5238  0.2615
   12CHTO   H49 4983   4.758  -1.771   3.073  3.4060 -0.1465 -1.1923
   12CHTO    N4 4984   4.744  -1.967   3.130 -0.7434 -0.2160  0.5563
   12CHTO   H41 4985   4.638  -1.965   3.148 -0.7464 -1.2199  0.6718
   12CHTO   H42 4986   4.787  -2.034   3.204  1.9686  1.1682  0.3004
   12CHTO   C22 4987   4.741  -1.768   3.289  0.1089 -0.0752  0.1225
   12CHTO   H50 4988   4.761  -1.839   3.369 -1.8975 -0.3401  0.4076
   12CHTO   O14 4989   4.789  -1.640   3.322  0.3846  0.0441 -0.5803
   12CHTO   C23 4990   4.930  -1.651   3.339  0.6544 -0.0936  0.6152
   12CHTO   H51 4991   4.948  -1.728   3.416 -0.6939 -0.8652  0.1665
   12CHTO   C34 4992   4.969  -1.512   3.400  0.8269 -0.5884 -0.1246
   12CHTO   O23 4993   4.896  -1.505   3.523  0.1954  0.1172  0.0423
   12CHTO   H38 4994   4.941  -1.447   3.582  0.1659  1.1569 -0.9421
   12CHTO   O16 4995   4.597  -1.737   3.269 -0.5112 -0.2243  0.3211
   12CHTO   C24 4996   4.481  -1.789   3.361 -0.1111 -0.0941  0.7069
   12CHTO   H52 4997   4.417  -1.709   3.398 -1.4507 -0.6504 -0.3526
   12CHTO   C26 4998   4.526  -1.861   3.492  0.7165  0.2344 -0.2671
   12CHTO   H54 4999   4.602  -1.937   3.466  0.0713 -0.6156  0.3166
   12CHTO   O20 5000   4.582  -1.760   3.582  0.2278  0.2485  0.0009
   12CHTO   H36 5001   4.589  -1.792   3.669  1.2399  0.6903  0.0860
   12CHTO   C30 5002   4.408  -1.943   3.558 -0.0237  0.4773  0.5159
   12CHTO   H58 5003   4.330  -1.882   3.605 -0.3365  0.3253  0.1894
   12CHTO    N6 5004   4.455  -2.021   3.673  0.6402  0.3488 -0.2251
   12CHTO   H45 5005   4.371  -2.072   3.718  2.6663 -1.0446  2.1387
   12CHTO   H46 5006   4.494  -1.947   3.742  0.0563  1.1394 -0.7408
   12CHTO   C33 5007   4.347  -2.043   3.453 -0.0979 -0.0474 -0.1075
   12CHTO   H61 5008   4.428  -2.101   3.408 -1.4734 -2.2442  0.1928
   12CHTO   O18 5009   4.289  -1.948   3.355 -0.2464  0.5133  0.1111
   12CHTO   C28 5010   4.395  -1.887   3.278  0.1352 -0.2183  0.4353
   12CHTO   H56 5011   4.458  -1.964   3.234  0.1185  0.6117 -1.0808
   12CHTO   C35 5012   4.336  -1.814   3.152  0.2449  0.1312 -0.5933
   12CHTO   O24 5013   4.270  -1.909   3.063  0.4117 -0.5915  0.1153
   12CHTO   H39 5014   4.260  -1.860   2.984 -2.5568 -0.6955  0.3664
   12CHTO    O9 5015   4.247  -2.129   3.501 -0.3256  0.1703 -0.9420
   12CHTO   C13 5016   4.208  -2.265   3.416  0.3845  0.2494 -0.0219
   12CHTO   H26 5017   4.306  -2.310   3.390  0.9606  1.7341 -0.4335
   12CHTO   C11 5018   4.130  -2.216   3.286 -0.1242 -0.4842  0.1491
   12CHTO   H24 5019   4.204  -2.166   3.222 -0.7539 -0.4683 -0.5760
   12CHTO    O8 5020   4.042  -2.117   3.340 -0.4408  0.3637 -0.1866
   12CHTO    H3 5021   3.958  -2.158   3.341  0.4357 -1.4706  1.2462
   12CHTO    C9 5022   4.057  -2.331   3.211 -0.4712  0.5787  0.4846
   12CHTO   H22 5023   4.139  -2.385   3.162 -1.0290 -1.4679  1.7559
   12CHTO    N2 5024   3.972  -2.278   3.097  0.0876  0.6499  0.0197
   12CHTO   H10 5025   3.874  -2.238   3.120  0.7592  1.1551  2.0690
   12CHTO   H11 5026   4.030  -2.210   3.036  1.0741 -0.8830 -0.7945
   12CHTO    C7 5027   3.986  -2.432   3.309  0.5675  1.2071 -0.7024
   12CHTO   H20 5028   4.052  -2.521   3.297 -1.1256  0.0750 -1.7494
   12CHTO    O4 5029   3.993  -2.386   3.447  0.1073  0.3430 -0.0569
   12CHTO   C14 5030   4.126  -2.370   3.495 -0.6445 -0.0610 -0.5021
   12CHTO   H27 5031   4.181  -2.465   3.476  1.2983  0.9140  0.1314
   12CHTO   C18 5032   4.124  -2.359   3.650 -0.5789  0.0313 -0.0439
   12CHTO   O13 5033   4.073  -2.229   3.690  0.1298 -0.2150 -0.1700
   12CHTO    H7 5034   4.099  -2.196   3.774  1.0335 -3.0950  0.7493
   12CHTO    O2 5035   3.829  -2.462   3.278 -0.3201 -0.4184 -0.7978
   12CHTO    C1 5036   3.776  -2.585   3.337 -0.5341 -0.3652  0.0843
   12CHTO   H14 5037   3.827  -2.612   3.432  0.9299  0.8810 -0.3396
   12CHTO    C2 5038   3.777  -2.716   3.237  0.1031 -0.1803  0.4081
   12CHTO   H15 5039   3.724  -2.684   3.146  0.8141  1.1317  0.4374
   12CHTO    O6 5040   3.912  -2.764   3.204 -0.6320 -0.0383 -0.0962
   12CHTO    H1 5041   3.903  -2.847   3.161  1.2397 -1.0528  1.3630
   12CHTO    C3 5042   3.697  -2.831   3.305  0.3131  0.2249  0.4019
   12CHTO   H16 5043   3.771  -2.868   3.377  1.7630  1.3466 -0.4915
   12CHTO    N1 5044   3.656  -2.942   3.205  0.0898 -0.2476  0.1786
   12CHTO    H8 5045   3.617  -3.026   3.260 -0.5042 -0.9529 -1.3233
   12CHTO    H9 5046   3.593  -2.899   3.129  1.7163 -3.1627 -2.9073
   12CHTO    C4 5047   3.565  -2.780   3.387 -0.0206  0.0940  0.1407
   12CHTO   H17 5048   3.483  -2.758   3.318 -0.3846  1.1002  0.8839
   12CHTO    O1 5049   3.577  -2.656   3.460  0.2184  0.2805  0.3782
   12CHTO    C5 5050   3.630  -2.548   3.393  0.0227  0.5270 -0.0415
   12CHTO   H18 5051   3.563  -2.528   3.310  0.0398 -1.5708 -0.5817
   12CHTO   C16 5052   3.614  -2.438   3.495  0.6495 -0.7395 -0.0258
   12CHTO   O11 5053   3.651  -2.313   3.444 -0.4586  0.6832  0.1286
   12CHTO    H5 5054   3.741  -2.322   3.420 -0.6002 -1.0382  0.1598
   12CHTO    O3 5055   3.524  -2.880   3.484  0.2358  0.0731  0.3807
   12CHTO    C6 5056   3.386  -2.909   3.533 -0.0365 -0.3947  0.3815
   12CHTO   H19 5057   3.311  -2.835   3.506  1.0467  0.1798 -1.0796
   12CHTO    C8 5058   3.340  -3.042   3.475 -0.0395  0.4683 -0.4990
   12CHTO   H21 5059   3.412  -3.120   3.499  0.6262  1.2378  0.0110
   12CHTO    O7 5060   3.343  -3.021   3.325 -0.3417 -0.5633  0.0896
   12CHTO    H2 5061   3.329  -3.102   3.278 -0.4249  1.1331 -2.9464
   12CHTO   C12 5062   3.203  -3.087   3.532 -0.1309  0.0220 -0.1909
   12CHTO   H25 5063   3.126  -3.019   3.488  0.6892  0.5970 -0.7457
   12CHTO    N3 5064   3.158  -3.220   3.485  0.0270 -0.1156 -0.1709
   12CHTO   H12 5065   3.107  -3.207   3.391  1.2843  3.5634 -0.4442
   12CHTO   H13 5066   3.100  -3.275   3.558  0.5324 -0.2326  0.1433
   12CHTO   C15 5067   3.206  -3.076   3.692  0.4039 -0.8101  0.0690
   12CHTO   H28 5068   3.267  -3.150   3.743  0.5638 -0.7001  0.0350
   12CHTO   O10 5069   3.060  -3.092   3.745  0.0854 -0.1082 -0.3402
   12CHTO    H4 5070   3.037  -3.183   3.755 -0.7091  0.3192  1.9689
   12CHTO    O5 5071   3.246  -2.944   3.728 -0.1089  0.1776  0.0798
   12CHTO   C10 5072   3.379  -2.919   3.690 -0.1517  0.6663 -0.6950
   12CHTO   H23 5073   3.447  -2.989   3.739  2.6082  1.5484 -3.1044
   12CHTO   C17 5074   3.430  -2.786   3.747 -0.7245  0.4955  0.0995
   12CHTO   O12 5075   3.350  -2.672   3.713  0.3580 -0.2407 -0.1733
   12CHTO    H6 5076   3.377  -2.595   3.759  1.5354 -0.5225 -0.3578
   13CHTO  H203 5077   7.108   3.158   2.563  1.5860  0.4317 -1.8931
   13CHTO   O82 5078   7.041   3.185   2.503  0.0967 -0.2272 -0.5681
   13CHTO  C123 5079   7.020   3.328   2.528 -0.2494 -1.0711 -0.1301
   13CHTO  H227 5080   7.109   3.380   2.490  0.5180 -0.5603  2.2923
   13CHTO   O77 5081   6.906   3.361   2.446 -0.2718 -0.4879 -0.2559
   13CHTO  C118 5082   6.866   3.495   2.451 -0.1633  0.5018 -0.1100
   13CHTO  H222 5083   6.953   3.553   2.418  1.0455 -1.1054  0.1754
   13CHTO  C125 5084   6.752   3.513   2.336  0.1191 -0.5012 -0.9761
   13CHTO   O84 5085   6.814   3.490   2.207  0.6207 -0.2218 -0.4243
   13CHTO  H205 5086   6.764   3.523   2.135 -0.9992  1.4018  1.3729
   13CHTO  C114 5087   6.815   3.531   2.589  0.1942 -0.9769  0.2321
   13CHTO  H218 5088   6.729   3.470   2.617 -0.5123  0.4336  1.2153
   13CHTO  C116 5089   6.928   3.503   2.691 -0.7605 -0.0307  0.3578
   13CHTO  H220 5090   7.011   3.576   2.682 -2.8644  2.7198  2.3187
   13CHTO   O79 5091   6.882   3.541   2.817  0.2495  0.0113 -0.5130
   13CHTO  H201 5092   6.904   3.477   2.882  0.0126  1.7055  1.2907
   13CHTO  C120 5093   6.984   3.357   2.681  0.3471 -0.2395  0.1723
   13CHTO  H224 5094   6.899   3.293   2.713  0.9992 -0.5226  1.3455
   13CHTO   N21 5095   7.102   3.330   2.768 -0.0768  0.0718  0.1215
   13CHTO  H211 5096   7.074   3.274   2.856 -0.4936 -1.9495 -1.2630
   13CHTO  H212 5097   7.157   3.423   2.780 -1.0001  0.8671 -1.5983
   13CHTO   O75 5098   6.772   3.666   2.579 -0.0764  0.1924 -0.3879
   13CHTO  C112 5099   6.638   3.696   2.668  0.3759  0.3074 -1.1842
   13CHTO  H216 5100   6.637   3.656   2.771  0.8453 -0.9554 -1.6624
   13CHTO   O73 5101   6.519   3.644   2.595 -0.3557  0.2560  0.2187
   13CHTO  C113 5102   6.405   3.658   2.669  0.4809 -0.9743 -0.4925
   13CHTO  H217 5103   6.413   3.601   2.764 -0.4885  1.4951  1.1400
   13CHTO  C124 5104   6.293   3.594   2.594 -0.2131 -0.7568  0.1002
   13CHTO   O83 5105   6.171   3.581   2.667 -0.4417 -0.3075 -0.0226
   13CHTO  H204 5106   6.187   3.603   2.757  0.9653  0.8423 -0.5346
   13CHTO  C109 5107   6.375   3.809   2.686 -0.3029 -0.1120  0.4045
   13CHTO  H213 5108   6.363   3.847   2.583  0.7640  0.8499  0.6258
   13CHTO  C110 5109   6.490   3.882   2.756  0.4099  0.0495 -0.2112
   13CHTO  H214 5110   6.495   3.841   2.857 -3.8098 -1.7480 -0.6284
   13CHTO   O78 5111   6.454   4.022   2.763 -0.4976 -0.3140 -0.4875
   13CHTO  H200 5112   6.525   4.069   2.802 -0.3625  0.5479 -1.7550
   13CHTO  C111 5113   6.623   3.852   2.677  0.3381 -0.5409 -0.5997
   13CHTO  H215 5114   6.613   3.897   2.577  0.5417 -1.9442 -1.2558
   13CHTO   N19 5115   6.745   3.911   2.750  0.3140  0.0203 -0.0784
   13CHTO  H207 5116   6.738   4.018   2.749  3.0116  0.2306  0.7274
   13CHTO  H208 5117   6.830   3.877   2.693  1.3175  1.7275  0.3764
   13CHTO   O74 5118   6.251   3.839   2.763  0.5794 -0.5495  0.1283
   13CHTO  C115 5119   6.171   3.980   2.707  0.1700 -0.3161 -0.5181
   13CHTO  H219 5120   6.193   4.066   2.769  0.5321 -0.1746 -0.8435
   13CHTO   O76 5121   6.224   4.025   2.550  0.5588 -0.4116  0.1262
   13CHTO  C122 5122   6.147   4.137   2.501  0.8064 -0.0709  0.8411
   13CHTO  H226 5123   6.176   4.146   2.397  0.0908  1.5323  0.7615
   13CHTO  C126 5124   6.185   4.280   2.572  0.6236  0.2743 -0.0087
   13CHTO   O85 5125   6.320   4.329   2.565  0.0985  0.6863  0.3116
   13CHTO  H206 5126   6.385   4.276   2.609 -0.7147  0.7613  1.6279
   13CHTO  C121 5127   5.991   4.106   2.497 -0.5397 -0.5883  0.4240
   13CHTO  H225 5128   5.935   4.197   2.466 -1.2419 -1.1909 -0.1008
   13CHTO   O81 5129   5.972   4.003   2.402 -0.6469  0.7776 -0.1989
   13CHTO  H202 5130   5.994   4.032   2.316 -3.3370 -0.2745 -1.2995
   13CHTO  C119 5131   5.941   4.062   2.637  0.5761  0.2152 -0.1643
   13CHTO  H223 5132   5.959   4.147   2.703 -0.5991 -0.4346  1.0376
   13CHTO  C117 5133   6.018   3.940   2.698  0.0087 -0.0024  0.5187
   13CHTO  H221 5134   6.016   3.845   2.645 -3.6808 -1.0690  2.4352
   13CHTO   N20 5135   5.957   3.909   2.828 -0.1321 -0.3819  0.3678
   13CHTO  H209 5136   6.022   3.920   2.914 -0.2699  0.2465  0.3929
   13CHTO  H210 5137   5.863   3.960   2.844 -0.9454 -2.2112  1.5865
   13CHTO   O80 5138   5.790   4.068   2.634  0.1578  0.8907 -0.4091
   13CHTO  C103 5139   5.703   4.125   2.761  0.2996  0.2859  0.4546
   13CHTO  H190 5140   5.712   4.047   2.838 -1.4670 -0.9317 -0.5353
   13CHTO  C101 5141   5.743   4.269   2.811 -0.1081  0.1806 -0.5823
   13CHTO  H188 5142   5.759   4.331   2.723 -0.1547 -0.7592 -1.2585
   13CHTO   O68 5143   5.870   4.268   2.878 -0.2339 -0.1389 -0.5589
   13CHTO  H168 5144   5.939   4.239   2.822  0.2955 -1.4602  0.7333
   13CHTO   C99 5145   5.616   4.330   2.897 -0.0410  0.0113  0.0695
   13CHTO  H186 5146   5.597   4.265   2.985 -1.7390 -1.5265 -1.3766
   13CHTO   N17 5147   5.644   4.471   2.939  0.4224  0.0284  0.1823
   13CHTO  H174 5148   5.613   4.488   3.041  0.1586 -2.0449  0.4781
   13CHTO  H175 5149   5.739   4.506   2.904 -0.0182 -0.7804 -1.9022
   13CHTO   C97 5150   5.481   4.323   2.821 -0.6661  0.4615 -0.1973
   13CHTO  H184 5151   5.487   4.385   2.731 -0.5957  1.7334  0.6696
   13CHTO   O64 5152   5.458   4.184   2.796  0.6382  0.3004  0.0758
   13CHTO  C104 5153   5.552   4.116   2.710  0.2770  0.0295 -0.6029
   13CHTO  H191 5154   5.547   4.163   2.612  1.7631 -1.6111 -1.4811
   13CHTO  C108 5155   5.514   3.971   2.689  0.1859 -0.0770 -0.1641
   13CHTO   O71 5156   5.488   3.892   2.805 -0.4183  0.2082 -0.3011
   13CHTO  H171 5157   5.409   3.916   2.849 -0.4779  1.1310 -0.9036
   13CHTO   O62 5158   5.373   4.352   2.920  0.5120 -0.1528  0.2202
   13CHTO   C91 5159   5.272   4.440   2.872 -0.2896  0.3780 -0.1619
   13CHTO  H178 5160   5.325   4.513   2.810 -0.3422  0.3443 -0.2466
   13CHTO   C92 5161   5.223   4.527   2.995 -0.6295  0.2784 -0.5703
   13CHTO  H179 5162   5.178   4.458   3.067 -1.3366  0.8587 -0.4557
   13CHTO   O66 5163   5.335   4.595   3.047  0.0513  0.7854 -0.7324
   13CHTO  H166 5164   5.302   4.646   3.119  0.9440 -1.3780  1.2583
   13CHTO   C93 5165   5.118   4.635   2.952  0.7851 -1.3740 -0.2322
   13CHTO  H180 5166   5.161   4.707   2.881 -0.1559 -0.9573 -0.3891
   13CHTO   N16 5167   5.062   4.723   3.058 -0.0077  0.3043 -0.5374
   13CHTO  H172 5168   5.136   4.768   3.123 -0.5844  0.1954  0.1993
   13CHTO  H173 5169   5.008   4.807   3.015 -0.5057 -0.4798 -1.4565
   13CHTO   C94 5170   4.996   4.560   2.878 -0.5427 -0.8348  0.0898
   13CHTO  H181 5171   4.941   4.495   2.946 -1.3545  1.8706  2.0847
   13CHTO   O61 5172   5.046   4.487   2.766 -0.1555 -0.2680  0.1235
   13CHTO   C95 5173   5.141   4.383   2.798  0.5837 -0.1252  0.1166
   13CHTO  H182 5174   5.091   4.313   2.864  0.1232 -1.5650 -1.7344
   13CHTO  C106 5175   5.174   4.315   2.663  0.1557  0.1353 -0.1055
   13CHTO   O69 5176   5.065   4.228   2.634  0.0129  0.4725  0.3465
   13CHTO  H169 5177   5.021   4.269   2.563  1.1431  3.3894  1.2576
   13CHTO   O63 5178   4.894   4.669   2.785  0.1430  0.5014 -0.1526
   13CHTO   C96 5179   4.754   4.650   2.827 -0.3791 -0.7511 -0.3195
   13CHTO  H183 5180   4.745   4.633   2.935 -1.5783 -0.1450 -0.3205
   13CHTO   C98 5181   4.682   4.528   2.764 -0.0551  0.4057 -0.1160
   13CHTO  H185 5182   4.727   4.508   2.666  0.9447 -0.0662  0.4401
   13CHTO   O67 5183   4.702   4.414   2.842  0.4821  0.4388 -0.0880
   13CHTO  H167 5184   4.788   4.384   2.816  1.4022  2.9750 -0.1146
   13CHTO  C102 5185   4.525   4.541   2.750  0.3543  1.1032 -0.8848
   13CHTO  H189 5186   4.483   4.515   2.848 -0.3635  0.1442 -1.4325
   13CHTO   N18 5187   4.468   4.443   2.660  0.3497 -0.4649  0.6376
   13CHTO  H176 5188   4.457   4.492   2.565  0.3413 -0.7671  0.4812
   13CHTO  H177 5189   4.380   4.388   2.693 -0.7531  0.5386 -0.5949
   13CHTO  C105 5190   4.482   4.685   2.714 -0.3692  0.1091 -0.5303
   13CHTO  H192 5191   4.515   4.703   2.612 -1.4579  0.4458 -0.8313
   13CHTO   O65 5192   4.534   4.776   2.812 -0.4451  0.3704 -0.3770
   13CHTO  C100 5193   4.680   4.791   2.814  0.5430  0.2923 -0.3616
   13CHTO  H187 5194   4.716   4.848   2.727 -1.8338 -0.5024 -1.9197
   13CHTO  C107 5195   4.715   4.879   2.931  0.2847 -0.3664  0.4533
   13CHTO   O70 5196   4.640   4.999   2.916  0.0129 -0.2026 -0.3734
   13CHTO  H170 5197   4.640   5.044   2.998 -0.1490 -1.8992  0.5838
   13CHTO   O57 5198   4.321   4.702   2.711  0.5192 -0.0302  0.1639
   13CHTO   C85 5199   4.274   4.830   2.653  0.7249  0.4428  0.5222
   13CHTO  H157 5200   4.323   4.838   2.553 -1.0622 -0.5275 -0.4563
   13CHTO   C83 5201   4.314   4.958   2.729  0.5170 -0.2875 -0.4957
   13CHTO  H155 5202   4.421   4.975   2.722  0.1746  2.4788  0.2740
   13CHTO   O56 5203   4.265   4.933   2.864  0.1513  0.5745 -0.5901
   13CHTO  H135 5204   4.313   4.870   2.914 -1.6319  0.1387  0.6189
   13CHTO   C81 5205   4.244   5.087   2.671 -0.3649  0.3359 -0.6034
   13CHTO  H153 5206   4.268   5.094   2.565  1.7536 -1.7043 -0.3060
   13CHTO   N14 5207   4.298   5.205   2.742 -0.5327  0.6788 -0.6271
   13CHTO  H141 5208   4.335   5.271   2.667  1.4990  0.3687  0.0704
   13CHTO  H142 5209   4.384   5.176   2.799 -0.6169  0.2251 -0.7285
   13CHTO   C79 5210   4.084   5.071   2.682 -0.0217 -0.8797  0.9784
   13CHTO  H151 5211   4.038   5.148   2.620 -0.1751 -1.9414 -0.2495
   13CHTO   O52 5212   4.045   4.953   2.599 -0.5972  0.3231 -0.1948
   13CHTO   C86 5213   4.114   4.824   2.643 -0.0157 -0.4652  0.3681
   13CHTO  H158 5214   4.070   4.809   2.745  0.3959  1.6971  0.8849
   13CHTO   C90 5215   4.061   4.700   2.566 -0.5538 -0.4290  0.5205
   13CHTO   O60 5216   3.927   4.705   2.530  0.1771 -0.3554  0.2566
   13CHTO  H138 5217   3.894   4.619   2.547  2.2237 -0.9156  1.5492
   13CHTO   O50 5218   4.025   5.062   2.813 -0.9875 -0.5373  0.3288
   13CHTO   C73 5219   3.892   5.127   2.826  0.0831  1.0136  0.5814
   13CHTO  H145 5220   3.856   5.151   2.725 -1.7493 -0.9565  0.7478
   13CHTO   C74 5221   3.906   5.263   2.908  0.7057  0.1643 -0.4215
   13CHTO  H146 5222   3.979   5.327   2.855 -0.0948 -0.6295 -2.5563
   13CHTO   O54 5223   3.774   5.323   2.903  0.0182  0.4408  0.3325
   13CHTO  H133 5224   3.773   5.414   2.926  0.1238  0.4455  0.3175
   13CHTO   C75 5225   3.944   5.242   3.059  0.2045 -0.0370 -0.2922
   13CHTO  H147 5226   4.047   5.205   3.058 -0.1743 -1.1855  0.7440
   13CHTO   N13 5227   3.940   5.360   3.147  0.1457 -0.0293 -0.4428
   13CHTO  H139 5228   4.020   5.432   3.134  0.6621 -0.7036 -0.9858
   13CHTO  H140 5229   3.932   5.336   3.252  2.3945  1.8454  0.1882
   13CHTO   C76 5230   3.843   5.126   3.117  1.0267  0.0707 -0.7052
   13CHTO  H148 5231   3.740   5.162   3.115  0.5820 -1.0291  1.6010
   13CHTO   O49 5232   3.846   5.004   3.032  0.1205  0.2782  0.0414
   13CHTO   C77 5233   3.803   5.024   2.899  0.2399  0.0581 -0.3825
   13CHTO  H149 5234   3.700   5.061   2.902  0.6546  1.2255  0.1767
   13CHTO   C88 5235   3.802   4.889   2.830 -0.2907 -0.2174 -0.4024
   13CHTO   O58 5236   3.751   4.916   2.693 -0.1793 -0.1892  0.1088
   13CHTO  H136 5237   3.698   4.842   2.669  0.0732 -0.5523  0.6612
   13CHTO   O51 5238   3.891   5.076   3.262 -0.1202 -0.3864  0.0760
   13CHTO   C78 5239   4.005   4.964   3.298  0.1390  0.3178  0.0641
   13CHTO  H150 5240   4.017   4.952   3.408 -0.1415 -0.2677  0.0293
   13CHTO   C80 5241   4.144   4.994   3.236 -0.1785  0.2614 -0.3826
   13CHTO  H152 5242   4.133   4.977   3.127  0.3246 -2.9915  0.0446
   13CHTO   O55 5243   4.175   5.126   3.290 -0.8779  0.5781  0.0979
   13CHTO  H134 5244   4.157   5.130   3.382  0.0075 -1.9606  0.4254
   13CHTO   C84 5245   4.249   4.881   3.278  0.1671 -0.6371  0.1933
   13CHTO  H156 5246   4.270   4.888   3.385  0.6396 -0.7151  0.1101
   13CHTO   N15 5247   4.383   4.899   3.216 -0.0189  0.1218  0.5917
   13CHTO  H143 5248   4.457   4.863   3.285  2.0051  2.8380 -0.0784
   13CHTO  H144 5249   4.396   5.005   3.204 -0.7844  0.1422 -0.1033
   13CHTO   C87 5250   4.186   4.739   3.247 -0.1149  0.3278  0.2637
   13CHTO  H159 5251   4.190   4.727   3.139  0.2690 -0.5719  0.3776
   13CHTO   O53 5252   4.031   4.727   3.303  0.3993 -0.4634 -0.6987
   13CHTO   C82 5253   3.944   4.829   3.254 -0.0742 -0.6677  0.6969
   13CHTO  H154 5254   3.933   4.822   3.146 -1.1216  0.7373  0.6850
   13CHTO   C89 5255   3.803   4.810   3.311  0.3698  0.5296  0.2092
   13CHTO   O59 5256   3.702   4.829   3.207  0.1651 -0.2691  0.4425
   13CHTO  H137 5257   3.618   4.799   3.233  0.8877 -0.9791  2.0106
   13CHTO   O45 5258   4.269   4.630   3.320  0.0527 -0.2144 -0.1342
   13CHTO   C67 5259   4.309   4.504   3.262  0.6817 -0.3449  0.9257
   13CHTO  H124 5260   4.227   4.467   3.201 -1.7640  2.9448  2.1083
   13CHTO   C65 5261   4.441   4.511   3.172 -0.0824  0.1942 -0.0350
   13CHTO  H122 5262   4.422   4.590   3.099 -1.4484 -0.7142 -0.6897
   13CHTO   O44 5263   4.448   4.396   3.091 -0.4441  0.3482  0.3799
   13CHTO  H102 5264   4.497   4.417   3.014 -0.4014  0.3872  0.4173
   13CHTO   C63 5265   4.565   4.550   3.261  0.2998  0.4386 -0.5666
   13CHTO  H120 5266   4.543   4.638   3.321  0.8411  0.8634 -0.9857
   13CHTO   N11 5267   4.686   4.589   3.182  0.0904  1.0516  0.2728
   13CHTO  H108 5268   4.775   4.580   3.241  0.3460  1.3801 -0.0645
   13CHTO  H109 5269   4.687   4.608   3.077  2.9590 -0.8152 -0.0847
   13CHTO   C61 5270   4.589   4.438   3.372  0.8240  0.2897 -0.3849
   13CHTO  H118 5271   4.656   4.492   3.441  1.8814 -1.6937  0.1750
   13CHTO   O40 5272   4.467   4.405   3.450 -0.0661  0.1179 -0.0331
   13CHTO   C68 5273   4.335   4.394   3.381  0.1352 -0.5440  0.3230
   13CHTO  H125 5274   4.271   4.411   3.470  0.0886  0.1307  0.1643
   13CHTO   C72 5275   4.310   4.247   3.335 -0.4183  0.0461 -0.2170
   13CHTO   O48 5276   4.321   4.143   3.432  0.7037  0.0359  0.0730
   13CHTO  H105 5277   4.384   4.079   3.406 -0.4776 -0.7099 -1.0149
   13CHTO   O38 5278   4.646   4.314   3.339  0.3530 -0.3466 -0.1736
   13CHTO   C55 5279   4.753   4.266   3.422 -0.4453 -0.0997  0.8605
   13CHTO  H112 5280   4.786   4.174   3.371  3.9815  1.4146  0.7419
   13CHTO   C56 5281   4.704   4.241   3.575 -0.1276 -0.2879  0.2639
   13CHTO  H113 5282   4.668   4.336   3.618  0.0352  0.2878 -0.8487
   13CHTO   O42 5283   4.601   4.140   3.576 -0.5111  0.0004  0.0859
   13CHTO  H100 5284   4.548   4.144   3.653 -1.4503 -0.4607 -0.5292
   13CHTO   C57 5285   4.821   4.180   3.663 -0.2077 -0.1658  0.8147
   13CHTO  H114 5286   4.843   4.084   3.615  0.4413  0.0104  0.7468
   13CHTO   N10 5287   4.798   4.160   3.802  0.2525  0.2958 -0.3679
   13CHTO  H106 5288   4.829   4.066   3.847  0.2406  1.1146  1.3795
   13CHTO  H107 5289   4.694   4.175   3.823  0.2375 -0.4795  0.1505
   13CHTO   C58 5290   4.947   4.268   3.634 -0.6817 -0.3202 -0.4298
   13CHTO  H115 5291   4.927   4.370   3.673 -0.6713  0.2098 -1.7977
   13CHTO   O37 5292   4.986   4.279   3.500  0.0587  0.3138  0.5586
   13CHTO   C59 5293   4.884   4.350   3.424  0.6594  0.3277  0.9380
   13CHTO  H116 5294   4.877   4.447   3.472  1.3506  1.3285 -0.9248
   13CHTO   C70 5295   4.953   4.371   3.284 -0.0921  0.6551  0.3739
   13CHTO   O46 5296   5.096   4.406   3.286 -0.2220  0.3062  0.2724
   13CHTO  H103 5297   5.117   4.478   3.344 -1.0468  0.3872  0.4764
   13CHTO   O39 5298   5.082   4.218   3.714  0.4153 -0.0355  0.6782
   13CHTO   C60 5299   5.195   4.312   3.703  0.1340  0.1973  0.3575
   13CHTO  H117 5300   5.222   4.321   3.598 -1.3082 -1.9671 -0.2155
   13CHTO   C62 5301   5.154   4.448   3.761  0.3386 -0.7622 -0.4546
   13CHTO  H119 5302   5.084   4.483   3.682  0.8162 -1.3685 -1.1550
   13CHTO   O43 5303   5.095   4.436   3.890  0.0234 -0.0569 -0.0215
   13CHTO  H101 5304   5.006   4.408   3.882  0.4083 -0.9462 -1.4485
   13CHTO   C66 5305   5.275   4.557   3.760 -0.1071  0.2836  0.2115
   13CHTO  H123 5306   5.312   4.562   3.657 -0.9918 -2.9353 -0.3233
   13CHTO   N12 5307   5.242   4.698   3.783  0.3576  0.4548 -0.5695
   13CHTO  H110 5308   5.305   4.745   3.857 -1.1797  0.1025  0.9970
   13CHTO  H111 5309   5.240   4.753   3.690 -0.1801 -0.3719 -1.0590
   13CHTO   C69 5310   5.392   4.506   3.851  0.3808  0.2609  0.1778
   13CHTO  H126 5311   5.345   4.495   3.951  0.1326  0.0114  0.0364
   13CHTO   O41 5312   5.431   4.358   3.779 -0.1562 -0.7724 -0.5223
   13CHTO   C64 5313   5.322   4.270   3.779  0.9319  0.0826 -0.3827
   13CHTO  H121 5314   5.296   4.257   3.886  1.8402 -0.2476 -0.1931
   13CHTO   C71 5315   5.376   4.130   3.742  0.7484 -0.2761  0.3571
   13CHTO   O47 5316   5.473   4.076   3.835 -0.3228 -0.1511 -0.4665
   13CHTO  H104 5317   5.458   3.984   3.843  1.0908 -0.5602 -2.1396
   13CHTO   O34 5318   5.533   4.615   3.866 -0.5736 -0.6073  0.2944
   13CHTO   C49 5319   5.598   4.692   3.743  0.3723  0.3160 -0.3092
   13CHTO   H91 5320   5.530   4.674   3.660  0.0360 -2.0454  0.4463
   13CHTO   C47 5321   5.744   4.641   3.726 -0.4536  0.4263  0.1253
   13CHTO   H89 5322   5.792   4.685   3.636  2.3302  1.2331  1.9417
   13CHTO   O33 5323   5.732   4.504   3.700 -0.9739  0.0525 -0.2180
   13CHTO   H70 5324   5.697   4.489   3.614 -2.3943  0.3799  0.2866
   13CHTO   C45 5325   5.818   4.677   3.870  0.0297 -0.0949  0.2325
   13CHTO   H87 5326   5.749   4.637   3.946  0.0654 -0.4122  0.0978
   13CHTO    N8 5327   5.948   4.614   3.889  0.1204 -0.1089  0.2709
   13CHTO   H75 5328   5.915   4.524   3.939  1.2901 -0.0966  1.0637
   13CHTO   H76 5329   6.011   4.607   3.802 -0.4763  1.1658 -0.2801
   13CHTO   C43 5330   5.828   4.838   3.891  0.0966  0.1739  0.2058
   13CHTO   H85 5331   5.872   4.851   3.990  1.1230  0.3931 -0.2688
   13CHTO   O29 5332   5.692   4.893   3.883 -0.3009 -0.2343  0.3529
   13CHTO   C50 5333   5.603   4.847   3.781  0.0019 -0.0211 -0.0473
   13CHTO   H92 5334   5.499   4.868   3.812  0.0344  0.5158 -0.2994
   13CHTO   C54 5335   5.621   4.930   3.649  0.3976  0.2133 -0.4767
   13CHTO   O36 5336   5.591   5.068   3.667 -0.2510 -0.5497 -0.6389
   13CHTO   H72 5337   5.583   5.116   3.587  3.7269  1.9206  0.3000
   13CHTO   O27 5338   5.914   4.906   3.790  0.0903 -0.6955 -0.1485
   13CHTO   C37 5339   6.012   5.019   3.781  0.0678 -0.1358  0.1762
   13CHTO   H79 5340   6.070   5.042   3.872  0.5538  1.0952 -0.4238
   13CHTO   C38 5341   6.125   4.966   3.680  0.3396  0.0333  0.3588
   13CHTO   H80 5342   6.085   4.899   3.602 -0.0989  0.2653  0.3842
   13CHTO   O31 5343   6.218   4.892   3.757  0.0844 -0.4092  0.3054
   13CHTO   H68 5344   6.287   4.857   3.704 -0.2547 -0.6146  0.0029
   13CHTO   C39 5345   6.206   5.083   3.611  0.5198  0.9148 -0.5640
   13CHTO   H81 5346   6.274   5.118   3.688 -0.3129 -1.9678  1.5302
   13CHTO    N7 5347   6.297   5.045   3.494  0.0906 -0.0839 -0.2238
   13CHTO   H73 5348   6.262   5.088   3.402 -0.4784  2.1737  0.9944
   13CHTO   H74 5349   6.292   4.937   3.489 -1.0836 -0.1097  1.0595
   13CHTO   C40 5350   6.112   5.203   3.582  0.4310 -0.1281  0.7712
   13CHTO   H82 5351   6.037   5.177   3.507  2.8245 -2.1239 -1.0003
   13CHTO   O26 5352   6.050   5.238   3.706 -0.0677  0.4955  0.0802
   13CHTO   C41 5353   5.943   5.153   3.741  0.0188  0.3080  0.1793
   13CHTO   H83 5354   5.875   5.130   3.657 -0.0516  0.6873  0.1320
   13CHTO   C52 5355   5.855   5.207   3.857 -0.1728 -0.3793  0.1768
   13CHTO   O35 5356   5.762   5.311   3.830  0.2246  0.2179  0.1136
   13CHTO   H71 5357   5.763   5.380   3.893 -0.1491 -0.0059  0.3697
   13CHTO   O28 5358   6.182   5.330   3.548  0.0361 -0.7319 -0.1829
   13CHTO   C42 5359   6.136   5.466   3.548  0.2745 -0.7561  0.3470
   13CHTO   H84 5360   6.215   5.531   3.509 -1.3546  1.6511  0.9382
   13CHTO   C44 5361   6.102   5.526   3.686  0.3843  0.1948 -0.2121
   13CHTO   H86 5362   6.014   5.475   3.725 -0.2519  1.3917 -0.0252
   13CHTO   O32 5363   6.223   5.511   3.762  0.0412 -0.1774 -0.5631
   13CHTO   H69 5364   6.192   5.497   3.849 -1.3160  0.3632 -0.9349
   13CHTO   C48 5365   6.045   5.672   3.685  0.3225  0.1459 -0.2719
   13CHTO   H90 5366   6.133   5.725   3.650  0.3877  0.5548  0.5022
   13CHTO    N9 5367   6.016   5.728   3.820  0.1512  0.1583  0.4601
   13CHTO   H77 5368   6.093   5.695   3.889 -0.2274 -0.4769  0.5857
   13CHTO   H78 5369   6.011   5.835   3.814  0.3529  0.1161 -0.5218
   13CHTO   C51 5370   5.922   5.694   3.586  0.2108 -0.1592  0.2239
   13CHTO   H93 5371   5.833   5.639   3.617  0.2883 -0.6107 -0.3497
   13CHTO   O30 5372   5.967   5.652   3.454 -0.2045  0.1326 -0.4709
   13CHTO   C46 5373   6.016   5.490   3.448 -0.1925  0.0586  0.0604
   13CHTO   H88 5374   5.933   5.425   3.476 -0.3216  0.4525  0.6084
   13CHTO   C53 5375   6.063   5.466   3.312  0.4504 -0.6594  0.0377
   13CHTO   O72 5376   5.978   5.503   3.201 -0.0716 -0.7890 -0.0777
   13CHTO  H199 5377   5.945   5.590   3.209  0.1000 -0.7797  0.5526
   13CHTO   O22 5378   5.889   5.833   3.562 -0.7272  0.9110 -0.0215
   13CHTO   C31 5379   5.778   5.884   3.475 -0.3503 -0.4283  0.3390
   13CHTO   H59 5380   5.829   5.912   3.381  2.8964 -1.0014  1.8219
   13CHTO   C29 5381   5.665   5.792   3.437 -0.1783 -0.2755 -0.2782
   13CHTO   H57 5382   5.611   5.753   3.524  0.1001  2.5156  1.2180
   13CHTO   O21 5383   5.721   5.677   3.376  0.3012 -0.2260  0.1063
   13CHTO   H37 5384   5.750   5.689   3.288  1.6900 -0.1252  0.5656
   13CHTO   C27 5385   5.556   5.864   3.343 -0.4290  0.9818 -0.3995
   13CHTO   H55 5386   5.603   5.884   3.246  3.9109 -1.9929  0.9174
   13CHTO    N5 5387   5.440   5.776   3.320 -0.4723 -0.0196 -0.3413
   13CHTO   H43 5388   5.470   5.686   3.269 -3.4154  0.1098 -2.4025
   13CHTO   H44 5389   5.368   5.774   3.399  0.4239  1.6201  0.5465
   13CHTO   C25 5390   5.508   5.998   3.416 -0.0230 -0.4364  0.4061
   13CHTO   H53 5391   5.460   5.969   3.511 -0.5594  0.2023  0.3308
   13CHTO   O17 5392   5.629   6.082   3.443  0.2736  0.2111  0.3922
   13CHTO   C32 5393   5.721   6.018   3.531  0.0402 -0.0789  0.2880
   13CHTO   H60 5394   5.672   5.999   3.626 -2.0358 -0.9142 -0.9125
   13CHTO   C36 5395   5.832   6.111   3.567 -0.1478  0.6103  0.4100
   13CHTO   O25 5396   5.790   6.214   3.657  0.1643  0.2825  0.2857
   13CHTO   H40 5397   5.740   6.173   3.724 -1.1676 -0.5338 -1.1580
   13CHTO   O15 5398   5.420   6.073   3.337 -0.1607 -0.1421 -0.0244
   13CHTO   C19 5399   5.306   6.166   3.374 -0.8923  0.0081  0.7415
   13CHTO   H47 5400   5.315   6.177   3.484 -0.3514 -0.7546  0.7738
   13CHTO   C20 5401   5.322   6.308   3.304  0.6424 -1.1991  0.1259
   13CHTO   H48 5402   5.325   6.307   3.194  1.1437  0.6689  0.1032
   13CHTO   O19 5403   5.445   6.354   3.355 -0.9266  0.2213 -0.8337
   13CHTO   H35 5404   5.488   6.402   3.287  0.8289  0.2301  0.2257
   13CHTO   C21 5405   5.210   6.411   3.337  0.2759 -0.0033 -1.1851
   13CHTO   H49 5406   5.222   6.439   3.442  0.4696 -1.5574 -0.7801
   13CHTO    N4 5407   5.219   6.532   3.255  0.3814 -0.3171  0.0944
   13CHTO   H41 5408   5.239   6.495   3.156 -0.5284  0.8507 -0.5483
   13CHTO   H42 5409   5.298   6.598   3.286 -1.2186  0.8159  1.9048
   13CHTO   C22 5410   5.072   6.347   3.337 -0.4412 -0.3096  0.7380
   13CHTO   H50 5411   5.045   6.338   3.231 -1.4874 -2.5345  1.1550
   13CHTO   O14 5412   5.072   6.220   3.404  0.2932 -0.6551 -0.2358
   13CHTO   C23 5413   5.159   6.122   3.353 -0.0456 -0.5949  0.4292
   13CHTO   H51 5414   5.139   6.101   3.247  0.9583 -1.2292  0.3556
   13CHTO   C34 5415   5.140   5.983   3.416 -0.5786  0.0554  0.0253
   13CHTO   O23 5416   5.020   5.921   3.371 -0.6715 -0.2890  0.2031
   13CHTO   H38 5417   4.959   5.898   3.438 -0.3073 -3.0056 -0.3202
   13CHTO   O16 5418   4.970   6.417   3.411 -0.0183  0.9165 -0.0983
   13CHTO   C24 5419   4.863   6.471   3.314  0.5188 -0.2928 -0.0947
   13CHTO   H52 5420   4.896   6.470   3.210 -3.1712  0.5033 -1.3261
   13CHTO   C26 5421   4.818   6.611   3.352 -0.0551 -0.2762 -0.6658
   13CHTO   H54 5422   4.791   6.611   3.460  0.7358 -1.8865 -0.4499
   13CHTO   O20 5423   4.931   6.695   3.340 -0.1806 -0.5110  0.4199
   13CHTO   H36 5424   4.948   6.692   3.247 -0.4855 -0.6905  0.3685
   13CHTO   C30 5425   4.704   6.670   3.265 -0.7875  0.2468 -0.1359
   13CHTO   H58 5426   4.744   6.707   3.169 -0.2411  0.6272  0.2347
   13CHTO    N6 5427   4.645   6.789   3.328  0.3257 -0.1362  0.0549
   13CHTO   H45 5428   4.697   6.815   3.418  1.2511  1.5529 -0.9531
   13CHTO   H46 5429   4.658   6.869   3.257 -1.8511 -0.8678 -1.2189
   13CHTO   C33 5430   4.593   6.562   3.238 -0.1577  0.1655  1.5454
   13CHTO   H61 5431   4.525   6.545   3.323  0.1117  1.4759  2.0267
   13CHTO   O18 5432   4.665   6.442   3.207  0.3055 -0.5137 -0.2111
   13CHTO   C28 5433   4.732   6.386   3.320 -0.6900  0.2600 -0.2408
   13CHTO   H56 5434   4.678   6.406   3.413  1.3635 -0.3180  1.1155
   13CHTO   C35 5435   4.749   6.227   3.308  0.2910 -0.2628  0.0850
   13CHTO   O24 5436   4.813   6.164   3.412 -0.8155 -0.2705 -0.8096
   13CHTO   H39 5437   4.750   6.112   3.457 -0.7844 -0.3721 -0.8824
   13CHTO    O9 5438   4.508   6.594   3.130 -0.1012 -0.2650 -0.0932
   13CHTO   C13 5439   4.365   6.512   3.152 -0.3225 -0.4076 -0.2789
   13CHTO   H26 5440   4.321   6.558   3.243  0.6634  1.4250 -0.7051
   13CHTO   C11 5441   4.385   6.354   3.167  0.6206 -0.4291 -0.0837
   13CHTO   H24 5442   4.447   6.335   3.255 -0.0981  0.4979  0.6350
   13CHTO    O8 5443   4.453   6.302   3.049 -0.1552  0.1085  0.0081
   13CHTO    H3 5444   4.478   6.214   3.067 -1.1193 -0.3425 -0.8150
   13CHTO    C9 5445   4.244   6.286   3.179  0.8349 -0.5957 -0.8080
   13CHTO   H22 5446   4.198   6.337   3.265  3.3801  1.8164 -0.8126
   13CHTO    N2 5447   4.247   6.146   3.226 -0.2772  0.2123  0.1615
   13CHTO   H10 5448   4.292   6.085   3.150  0.3578 -0.4422  1.0529
   13CHTO   H11 5449   4.150   6.102   3.240 -0.0931 -0.3486 -0.3269
   13CHTO    C7 5450   4.151   6.319   3.061 -0.2233 -0.1159 -0.2721
   13CHTO   H20 5451   4.046   6.299   3.090  0.1228 -2.6631 -0.6326
   13CHTO    O4 5452   4.153   6.462   3.031  0.0539 -0.0923 -0.1516
   13CHTO   C14 5453   4.268   6.546   3.034  0.5263  0.2232 -0.7151
   13CHTO   H27 5454   4.225   6.646   3.055 -1.0169 -0.5792  0.0569
   13CHTO   C18 5455   4.338   6.561   2.889  0.8696  0.2939 -0.0920
   13CHTO   O13 5456   4.382   6.687   2.837 -0.5451 -0.1092  0.7022
   13CHTO    H7 5457   4.307   6.717   2.789  2.0150 -0.2590 -3.6408
   13CHTO    O2 5458   4.184   6.247   2.944  0.3238  0.9117 -0.1110
   13CHTO    C1 5459   4.074   6.204   2.856 -0.1008  0.0709  0.3181
   13CHTO   H14 5460   3.988   6.274   2.864  0.2787  0.5363  0.3677
   13CHTO    C2 5461   4.027   6.057   2.900  0.0211 -0.0912 -0.5338
   13CHTO   H15 5462   4.123   6.004   2.908 -0.2117 -0.5687 -0.9205
   13CHTO    O6 5463   3.957   6.053   3.031  0.6650  0.1305  0.5203
   13CHTO    H1 5464   4.016   6.047   3.104 -0.7671 -0.5469  1.6611
   13CHTO    C3 5465   3.929   5.983   2.796  0.1413  0.3305  0.2760
   13CHTO   H16 5466   3.828   6.026   2.806 -0.0119 -0.1515  0.8478
   13CHTO    N1 5467   3.910   5.837   2.835 -0.1300 -0.3705  0.9769
   13CHTO    H8 5468   4.008   5.795   2.852  0.6094  0.0547 -1.9742
   13CHTO    H9 5469   3.855   5.784   2.758 -0.7461 -1.3521  2.0752
   13CHTO    C4 5470   3.965   5.997   2.647 -0.3540  0.2310 -0.7554
   13CHTO   H17 5471   4.042   5.924   2.623 -0.1522 -0.2746  1.2766
   13CHTO    O1 5472   4.004   6.135   2.628 -0.0400  0.4705  0.1585
   13CHTO    C5 5473   4.113   6.186   2.705 -0.0705  0.8821  0.2677
   13CHTO   H18 5474   4.196   6.115   2.714 -3.0547 -2.6849  0.9735
   13CHTO   C16 5475   4.156   6.316   2.635 -0.1018 -0.4043  0.3770
   13CHTO   O11 5476   4.066   6.425   2.659  0.2054 -0.1632 -0.0428
   13CHTO    H5 5477   3.983   6.419   2.615  0.6524  1.7948 -1.1726
   13CHTO    O3 5478   3.845   5.990   2.564  0.0938  0.2841 -0.0202
   13CHTO    C6 5479   3.853   5.890   2.458 -0.0496  0.6679 -0.3785
   13CHTO   H19 5480   3.932   5.818   2.479  0.9053  1.6205 -0.6070
   13CHTO    C8 5481   3.717   5.816   2.447  0.5910  1.1700 -0.2201
   13CHTO   H21 5482   3.643   5.890   2.416  0.5564  0.9070 -0.7833
   13CHTO    O7 5483   3.686   5.760   2.575  0.2824  0.3581 -0.4426
   13CHTO    H2 5484   3.653   5.673   2.575 -1.9233  1.1522 -0.4261
   13CHTO   C12 5485   3.722   5.708   2.331 -0.0773  0.1508 -0.0469
   13CHTO   H25 5486   3.788   5.627   2.368 -1.2499 -0.1444  1.4315
   13CHTO    N3 5487   3.588   5.633   2.322  0.2783  0.4765  0.0718
   13CHTO   H12 5488   3.535   5.661   2.232  1.0630  0.4546 -0.3977
   13CHTO   H13 5489   3.529   5.637   2.412 -0.6542 -1.6220 -0.4036
   13CHTO   C15 5490   3.778   5.763   2.203 -0.0205 -0.0413  0.1330
   13CHTO   H28 5491   3.702   5.810   2.141  1.3271  0.8113 -0.9199
   13CHTO   O10 5492   3.844   5.639   2.127  0.8709  0.0726 -0.1431
   13CHTO    H4 5493   3.935   5.639   2.149  0.9382 -0.9835 -0.3594
   13CHTO    O5 5494   3.891   5.845   2.225  0.2868 -0.1074  0.3949
   13CHTO   C10 5495   3.885   5.955   2.313 -0.1315  0.4277  0.1321
   13CHTO   H23 5496   3.805   6.023   2.284 -0.4058 -0.3081 -0.8614
   13CHTO   C17 5497   4.020   6.024   2.320  0.3754  0.4622 -0.2898
   13CHTO   O12 5498   4.066   6.072   2.195 -0.0673 -0.4525  0.2720
   13CHTO    H6 5499   4.017   6.040   2.121  0.7978 -0.4463 -0.3228
   14CHTO  H203 5500   5.891   4.114   0.519  1.7595  0.3839 -0.3627
   14CHTO   O82 5501   5.832   4.185   0.538  0.4228 -0.8416  0.2225
   14CHTO  C123 5502   5.707   4.135   0.596 -0.1474  0.1216  0.0998
   14CHTO  H227 5503   5.727   4.088   0.694  1.1472 -3.4544 -1.7673
   14CHTO   O77 5504   5.629   4.254   0.615 -0.1308  0.0835  0.2482
   14CHTO  C118 5505   5.495   4.234   0.659  0.0975 -0.8316  0.0476
   14CHTO  H222 5506   5.495   4.193   0.761  0.7159 -2.5934 -0.6455
   14CHTO  C125 5507   5.431   4.380   0.662 -0.3521 -0.1974  0.0240
   14CHTO   O84 5508   5.500   4.464   0.750 -0.1823  0.2587  0.2629
   14CHTO  H205 5509   5.467   4.552   0.747 -2.7817 -0.7092 -2.5176
   14CHTO  C114 5510   5.411   4.143   0.578  0.1873 -0.3599  0.6136
   14CHTO  H218 5511   5.393   4.195   0.484  0.0315  1.2577  1.5077
   14CHTO  C116 5512   5.487   4.014   0.541  0.9459  0.9208 -0.3891
   14CHTO  H220 5513   5.490   3.939   0.623  0.3484  2.3195  0.9217
   14CHTO   O79 5514   5.413   3.957   0.427 -0.5848 -0.5224 -0.4311
   14CHTO  H201 5515   5.438   3.867   0.421  0.3513 -0.4769  2.0116
   14CHTO  C120 5516   5.635   4.038   0.493  1.0812  0.0616  0.4875
   14CHTO  H224 5517   5.624   4.078   0.390  2.5329 -1.8784 -0.4611
   14CHTO   N21 5518   5.713   3.918   0.482 -0.2917  0.0799 -0.8045
   14CHTO  H211 5519   5.671   3.851   0.556 -1.9567  0.5867 -1.2637
   14CHTO  H212 5520   5.701   3.872   0.385 -1.1181  0.3975 -0.8575
   14CHTO   O75 5521   5.289   4.127   0.651  0.4199 -0.4766 -0.2589
   14CHTO  C112 5522   5.189   4.016   0.586  0.1943  0.2421 -0.8300
   14CHTO  H216 5523   5.247   3.925   0.564  0.1286  0.0731 -0.3031
   14CHTO   O73 5524   5.133   4.070   0.470 -0.4030 -0.0165 -0.2314
   14CHTO  C113 5525   5.072   3.967   0.394  0.3805  0.7826  0.6619
   14CHTO  H217 5526   5.138   3.878   0.401  0.2262  0.4836 -1.5236
   14CHTO  C124 5527   5.062   4.020   0.248 -0.2398  0.7658 -0.0115
   14CHTO   O83 5528   5.188   4.069   0.195  0.5353  0.1789  0.1033
   14CHTO  H204 5529   5.200   4.040   0.107 -1.3457  0.9567 -0.4179
   14CHTO  C109 5530   4.943   3.935   0.467  0.3599 -0.9993  0.0075
   14CHTO  H213 5531   4.889   4.030   0.476  3.2686  0.7912 -0.8816
   14CHTO  C110 5532   4.975   3.880   0.611  0.2757  0.3652 -0.4061
   14CHTO  H214 5533   5.028   3.786   0.606  0.6530  0.5762 -0.3608
   14CHTO   O78 5534   4.850   3.871   0.677  0.0842 -0.0549 -0.4382
   14CHTO  H200 5535   4.870   3.819   0.753 -1.6737 -0.1270  0.0043
   14CHTO  C111 5536   5.071   3.977   0.687 -0.0524  0.2877  0.2046
   14CHTO  H215 5537   5.011   4.064   0.717  0.6039  0.4468  1.0783
   14CHTO   N19 5538   5.126   3.923   0.811  0.1725  0.1106  0.3516
   14CHTO  H207 5539   5.144   3.817   0.801  1.2247  0.4978 -2.0917
   14CHTO  H208 5540   5.191   3.993   0.861  1.0990 -0.8896  0.5533
   14CHTO   O74 5541   4.857   3.835   0.402 -0.0439 -0.6753 -0.2256
   14CHTO  C115 5542   4.760   3.895   0.280  0.3137  0.6676 -0.1489
   14CHTO  H219 5543   4.806   3.979   0.229  1.9472 -0.5328 -0.7023
   14CHTO   O76 5544   4.741   3.779   0.158 -0.2852 -0.3883  0.3053
   14CHTO  C122 5545   4.654   3.677   0.194  0.5456  0.2319  0.3990
   14CHTO  H226 5546   4.694   3.610   0.270 -0.3056 -0.4739  0.2256
   14CHTO  C126 5547   4.637   3.590   0.069  0.4627  0.0175 -0.0919
   14CHTO   O85 5548   4.544   3.485   0.095 -0.3551 -0.1614 -0.5787
   14CHTO  H206 5549   4.583   3.432   0.162 -0.0921  3.1079  1.9919
   14CHTO  C121 5550   4.514   3.741   0.223 -0.5374 -0.1766 -0.1347
   14CHTO  H225 5551   4.447   3.717   0.137 -1.0593  0.5042  0.0751
   14CHTO   O81 5552   4.459   3.665   0.331 -0.0542  0.5597  0.1738
   14CHTO  H202 5553   4.517   3.674   0.404  0.6910  1.1072 -0.4716
   14CHTO  C119 5554   4.507   3.900   0.250 -0.4623  0.0443 -0.7023
   14CHTO  H223 5555   4.521   3.955   0.157 -3.5201  0.4331 -0.9917
   14CHTO  C117 5556   4.620   3.941   0.345 -0.5422  0.3456  0.4985
   14CHTO  H221 5557   4.621   3.896   0.445  0.6556  1.0319  0.8029
   14CHTO   N20 5558   4.623   4.087   0.370  0.5809 -0.4900  0.3320
   14CHTO  H209 5559   4.674   4.129   0.455  1.5664  1.3268 -1.1283
   14CHTO  H210 5560   4.521   4.122   0.378  0.8188  0.2324  0.2920
   14CHTO   O80 5561   4.355   3.950   0.285  0.0291 -0.6340  0.1957
   14CHTO  C103 5562   4.238   3.959   0.164 -0.5830 -0.6258  0.9638
   14CHTO  H190 5563   4.287   3.962   0.066  1.7772 -1.1715  2.0900
   14CHTO  C101 5564   4.135   3.848   0.157  0.2094 -0.7102  0.0590
   14CHTO  H188 5565   4.080   3.842   0.250 -0.8308 -1.4167 -0.5828
   14CHTO   O68 5566   4.207   3.709   0.134  0.8040  0.1453 -0.0548
   14CHTO  H168 5567   4.152   3.635   0.151  1.1950 -0.6300 -2.0078
   14CHTO   C99 5568   4.029   3.870   0.039 -0.0690 -0.5562 -0.0891
   14CHTO  H186 5569   4.079   3.883  -0.059  2.0590 -1.0056  0.9298
   14CHTO   N17 5570   3.928   3.761   0.021  0.2969 -0.1534  0.1303
   14CHTO  H174 5571   3.948   3.671   0.077  1.7444 -0.0522 -0.2045
   14CHTO  H175 5572   3.915   3.736  -0.084 -2.2408 -1.4933  0.7202
   14CHTO   C97 5573   3.958   4.007   0.065  0.2928  0.0715  0.4887
   14CHTO  H184 5574   3.897   3.997   0.156 -2.1171  1.0351 -0.9647
   14CHTO   O64 5575   4.061   4.110   0.076  0.1957 -0.2734  0.0969
   14CHTO  C104 5576   4.160   4.093   0.177 -0.4199  0.3007  0.3987
   14CHTO  H191 5577   4.114   4.099   0.276 -2.3355 -0.6611 -0.4050
   14CHTO  C108 5578   4.257   4.214   0.166 -0.5209 -0.2174  0.4298
   14CHTO   O71 5579   4.213   4.336   0.225  0.1688  0.6696 -0.4071
   14CHTO  H171 5580   4.133   4.364   0.187 -0.6522 -0.9552  0.0731
   14CHTO   O62 5581   3.876   4.057  -0.048  0.5254  0.2700  0.2445
   14CHTO   C91 5582   3.770   4.149  -0.024  0.2110  0.1962 -0.2665
   14CHTO  H178 5583   3.776   4.172   0.082  1.8223 -1.8759  0.1297
   14CHTO   C92 5584   3.638   4.070  -0.028 -0.1190  0.1394 -0.0215
   14CHTO  H179 5585   3.630   4.023  -0.128 -1.4872  1.3486 -0.5015
   14CHTO   O66 5586   3.639   3.972   0.071 -0.7439  0.3175  0.3105
   14CHTO  H166 5587   3.679   3.895   0.036  1.1344  3.0266 -3.8286
   14CHTO   C93 5588   3.511   4.167  -0.013  0.5476 -0.3392 -0.3642
   14CHTO  H180 5589   3.517   4.185   0.096  0.3565 -0.2465 -0.3687
   14CHTO   N16 5590   3.380   4.101  -0.038  0.9673  0.3206  0.9422
   14CHTO  H172 5591   3.304   4.177  -0.032 -0.1658 -0.7946  1.1076
   14CHTO  H173 5592   3.353   4.030   0.039  0.9274 -1.6023 -0.7869
   14CHTO   C94 5593   3.520   4.306  -0.088  0.2050 -0.2150 -0.8112
   14CHTO  H181 5594   3.492   4.296  -0.193 -1.9027 -0.9405 -0.2062
   14CHTO   O61 5595   3.658   4.355  -0.076 -0.0860  0.1908 -0.4487
   14CHTO   C95 5596   3.768   4.274  -0.114 -0.4860  0.0856  0.3902
   14CHTO  H182 5597   3.759   4.261  -0.222  0.1335  0.2967  0.3119
   14CHTO  C106 5598   3.903   4.354  -0.096 -0.2848  0.0591 -0.1692
   14CHTO   O69 5599   3.919   4.419   0.035  0.2501 -0.0562  0.1879
   14CHTO  H169 5600   4.012   4.424   0.050  0.5449 -2.1527 -0.6742
   14CHTO   O63 5601   3.408   4.430  -0.016 -0.3570 -0.2514  0.2900
   14CHTO   C96 5602   3.331   4.534  -0.130  0.0360 -0.3853  0.0708
   14CHTO  H183 5603   3.304   4.623  -0.071  1.7460 -0.5887  1.1971
   14CHTO   C98 5604   3.205   4.476  -0.194 -0.3218 -0.1459  0.6051
   14CHTO  H185 5605   3.229   4.376  -0.233  1.1317  0.6167 -0.5040
   14CHTO   O67 5606   3.114   4.456  -0.088  0.6596 -0.0038 -0.2839
   14CHTO  H167 5607   3.059   4.383  -0.107  0.4850  0.2489 -0.7590
   14CHTO  C102 5608   3.152   4.570  -0.316  0.3484 -0.4373  0.3291
   14CHTO  H189 5609   3.122   4.665  -0.269  0.6976  0.5784 -1.4694
   14CHTO   N18 5610   3.037   4.511  -0.399  0.3352 -0.2298  0.3687
   14CHTO  H176 5611   2.945   4.567  -0.392 -0.1831 -0.9327 -0.6841
   14CHTO  H177 5612   3.017   4.413  -0.358  2.6922 -0.8429  0.1401
   14CHTO  C105 5613   3.272   4.611  -0.409  0.1026  0.4460 -0.1127
   14CHTO  H192 5614   3.316   4.526  -0.461  2.3532  1.4237  0.1469
   14CHTO   O65 5615   3.368   4.678  -0.327 -0.1433 -0.3086  0.2387
   14CHTO  C100 5616   3.435   4.587  -0.235 -0.3507  0.5248 -0.6636
   14CHTO  H187 5617   3.472   4.496  -0.286  0.0226 -0.3985  1.2250
   14CHTO  C107 5618   3.549   4.669  -0.162  0.0150 -0.4872 -0.2855
   14CHTO   O70 5619   3.658   4.710  -0.248  0.0675 -0.3663  0.1046
   14CHTO  H170 5620   3.623   4.776  -0.306  0.8876  1.1966  1.3445
   14CHTO   O57 5621   3.215   4.715  -0.510  0.0154  0.1793  0.5220
   14CHTO   C85 5622   3.290   4.797  -0.600  0.1851  0.0922  0.4101
   14CHTO  H157 5623   3.223   4.833  -0.681  2.5433  0.8073 -1.2783
   14CHTO   C83 5624   3.399   4.711  -0.682 -0.4089  0.0858  0.3780
   14CHTO  H155 5625   3.350   4.634  -0.742  1.3482 -0.9484  0.2379
   14CHTO   O56 5626   3.492   4.644  -0.595 -0.0107 -0.5070  0.5818
   14CHTO  H135 5627   3.553   4.698  -0.549  0.5514  1.1505 -2.0026
   14CHTO   C81 5628   3.477   4.803  -0.780 -0.6566 -1.0029  0.0288
   14CHTO  H153 5629   3.400   4.849  -0.842  0.5170  1.5563  0.4293
   14CHTO   N14 5630   3.567   4.741  -0.876  0.0089 -0.7032 -0.3553
   14CHTO  H141 5631   3.654   4.798  -0.900 -0.0277 -0.3120  0.4364
   14CHTO  H142 5632   3.516   4.718  -0.968 -0.2656  1.5685 -0.7954
   14CHTO   C79 5633   3.546   4.917  -0.690  0.0681 -0.8177 -0.0161
   14CHTO  H151 5634   3.590   4.987  -0.760  1.3701 -0.7901  0.8082
   14CHTO   O52 5635   3.448   4.995  -0.615  0.0982 -0.3112  0.3526
   14CHTO   C86 5636   3.365   4.917  -0.528  0.0251  0.5653 -0.6407
   14CHTO  H158 5637   3.427   4.879  -0.444  1.3497 -0.0820 -1.9042
   14CHTO   C90 5638   3.256   5.011  -0.465  0.1001 -0.8599 -0.1129
   14CHTO   O60 5639   3.163   5.050  -0.562 -0.0862  0.1100 -0.4897
   14CHTO  H138 5640   3.126   4.971  -0.594 -2.0165  0.7303  0.1664
   14CHTO   O50 5641   3.654   4.882  -0.596  0.8646  0.5656  0.0054
   14CHTO   C73 5642   3.739   4.929  -0.493  0.0380 -0.2352 -0.4512
   14CHTO  H145 5643   3.718   4.880  -0.397  1.3226  0.2463  0.0836
   14CHTO   C74 5644   3.722   5.082  -0.461 -0.5901  0.1108 -0.8883
   14CHTO  H146 5645   3.612   5.083  -0.456 -0.4852  2.3274  1.8012
   14CHTO   O54 5646   3.771   5.107  -0.329 -0.8569 -0.4128 -0.2042
   14CHTO  H133 5647   3.701   5.119  -0.267 -1.8823  2.8001 -1.8671
   14CHTO   C75 5648   3.777   5.171  -0.582  0.1119 -0.5844  0.3891
   14CHTO  H147 5649   3.713   5.158  -0.670 -0.1667  2.1653  0.1415
   14CHTO   N13 5650   3.777   5.316  -0.568  0.6283 -0.3751 -0.2392
   14CHTO  H139 5651   3.715   5.332  -0.481  0.6547 -3.1986  0.3450
   14CHTO  H140 5652   3.747   5.370  -0.657 -0.4167 -2.5127 -1.2080
   14CHTO   C76 5653   3.923   5.123  -0.622  0.0232 -0.3811  0.5469
   14CHTO  H148 5654   4.000   5.149  -0.549  0.8740 -0.9592 -0.1385
   14CHTO   O49 5655   3.925   4.977  -0.645  0.1068  0.0297 -0.0405
   14CHTO   C77 5656   3.888   4.900  -0.534  0.3791  1.0438  0.1576
   14CHTO  H149 5657   3.958   4.923  -0.454  1.0078 -2.7673  0.8357
   14CHTO   C88 5658   3.907   4.749  -0.572 -0.1772  0.1168 -0.1549
   14CHTO   O58 5659   4.050   4.703  -0.632  0.1138  0.3374  0.1032
   14CHTO  H136 5660   4.063   4.613  -0.610  1.2662  0.3807 -0.3813
   14CHTO   O51 5661   3.951   5.168  -0.772 -0.3858 -0.1449 -0.1144
   14CHTO   C78 5662   4.103   5.206  -0.810 -0.6020  1.0838  0.5232
   14CHTO  H150 5663   4.171   5.192  -0.723  1.0461  0.0900 -0.9015
   14CHTO   C80 5664   4.110   5.351  -0.858 -0.0069 -0.6545  0.1694
   14CHTO  H152 5665   4.038   5.367  -0.941  0.4001 -1.9246 -0.4419
   14CHTO   O55 5666   4.069   5.433  -0.748  0.5174  0.3222 -0.0213
   14CHTO  H134 5667   4.034   5.511  -0.787 -0.3900 -0.9163 -1.7304
   14CHTO   C84 5668   4.251   5.399  -0.913 -0.3065 -0.6715 -0.1177
   14CHTO  H156 5669   4.310   5.408  -0.821  1.6981 -0.8607 -1.3655
   14CHTO   N15 5670   4.248   5.537  -0.975 -0.4370  0.2231 -0.0167
   14CHTO  H143 5671   4.353   5.558  -0.989 -0.3362 -0.1533  0.1855
   14CHTO  H144 5672   4.207   5.603  -0.901 -1.6637 -0.4353 -0.1047
   14CHTO   C87 5673   4.322   5.301  -1.012  0.7250  0.6274  0.4425
   14CHTO  H159 5674   4.286   5.309  -1.115  0.2454 -0.9371  0.4680
   14CHTO   O53 5675   4.287   5.146  -0.956  0.6053  0.3998  0.8213
   14CHTO   C82 5676   4.149   5.113  -0.925 -0.0074 -0.2506  0.9121
   14CHTO  H154 5677   4.082   5.131  -1.009  1.6602  0.3142 -0.3455
   14CHTO   C89 5678   4.141   4.960  -0.891 -0.1304 -0.2225  0.0793
   14CHTO   O59 5679   4.227   4.907  -0.795  0.1122 -0.3932 -0.1215
   14CHTO  H137 5680   4.310   4.887  -0.836  0.5889  0.6695  0.3005
   14CHTO   O45 5681   4.488   5.325  -1.024  0.2787 -0.0834  0.2044
   14CHTO   C67 5682   4.570   5.359  -0.907  0.1410  0.5386  0.2156
   14CHTO  H124 5683   4.534   5.451  -0.861 -0.5611 -0.3058  1.3885
   14CHTO   C65 5684   4.558   5.238  -0.807 -0.2564 -0.9552 -0.2298
   14CHTO  H122 5685   4.453   5.210  -0.801 -1.1764  1.9749 -1.7596
   14CHTO   O44 5686   4.597   5.282  -0.677 -0.0308  0.6265  0.1874
   14CHTO  H102 5687   4.642   5.209  -0.638  0.6331  0.7615 -0.3180
   14CHTO   C63 5688   4.626   5.114  -0.873  0.2490 -0.3231 -0.7695
   14CHTO  H120 5689   4.589   5.110  -0.975 -0.1078  1.4615 -0.7248
   14CHTO   N11 5690   4.595   4.980  -0.823  0.1705  0.2028  0.0409
   14CHTO  H108 5691   4.499   4.971  -0.777 -0.0366 -0.4196 -0.5087
   14CHTO  H109 5692   4.613   4.901  -0.893  0.6728 -0.0896  0.4881
   14CHTO   C61 5693   4.775   5.141  -0.888 -0.2258  0.1918  0.2611
   14CHTO  H118 5694   4.814   5.066  -0.958  1.4808  0.9713  0.3425
   14CHTO   O40 5695   4.805   5.270  -0.950  0.1959  0.5161 -0.4281
   14CHTO   C68 5696   4.723   5.384  -0.943  0.5656  0.0316 -0.5094
   14CHTO  H125 5697   4.728   5.435  -1.042 -0.5454 -2.2562 -1.7740
   14CHTO   C72 5698   4.782   5.485  -0.841  0.3113  0.3400  0.6638
   14CHTO   O48 5699   4.742   5.621  -0.856 -0.4157 -0.1670 -0.2753
   14CHTO  H105 5700   4.803   5.675  -0.810 -0.2043 -2.1122  1.7568
   14CHTO   O38 5701   4.840   5.127  -0.760 -0.1579 -0.4433  0.2864
   14CHTO   C55 5702   4.978   5.081  -0.753 -0.2697  0.4641  0.3928
   14CHTO  H112 5703   5.030   5.108  -0.846 -0.5509  0.7603  0.3178
   14CHTO   C56 5704   4.977   4.924  -0.728 -0.4792 -1.1213 -0.7178
   14CHTO  H113 5705   4.915   4.902  -0.640  0.3011 -0.1048  0.1046
   14CHTO   O42 5706   4.912   4.863  -0.841 -0.6795  0.6685  0.3926
   14CHTO  H100 5707   4.971   4.829  -0.906 -2.2834  0.6184 -1.0502
   14CHTO   C57 5708   5.130   4.885  -0.710  0.1444 -0.3512 -0.5083
   14CHTO  H114 5709   5.174   4.911  -0.806  1.6890  0.7430  0.4703
   14CHTO   N10 5710   5.149   4.741  -0.683 -0.4765 -0.4823  0.0439
   14CHTO  H106 5711   5.072   4.699  -0.622  0.5426  0.9122  2.3745
   14CHTO  H107 5712   5.246   4.715  -0.641  0.1593  1.3576 -0.2201
   14CHTO   C58 5713   5.200   4.961  -0.601  0.0285 -0.1287  0.5679
   14CHTO  H115 5714   5.171   4.925  -0.500  0.9435  1.7216  1.5231
   14CHTO   O37 5715   5.186   5.101  -0.626 -0.3572  0.3424  0.1885
   14CHTO   C59 5716   5.052   5.146  -0.630 -0.2109 -0.4281  0.7959
   14CHTO  H116 5717   4.992   5.122  -0.542  1.7101  0.1373  2.3103
   14CHTO   C70 5718   5.040   5.295  -0.655 -0.2960  0.5212 -0.6893
   14CHTO   O46 5719   5.098   5.376  -0.554  0.0022 -0.1732  0.5454
   14CHTO  H103 5720   5.139   5.452  -0.590 -0.8578  0.0732  0.0636
   14CHTO   O39 5721   5.365   4.951  -0.623 -0.2656  0.1199  0.0295
   14CHTO   C60 5722   5.443   4.864  -0.531  0.7056 -0.6272  0.9249
   14CHTO  H117 5723   5.375   4.808  -0.467 -1.2779  0.7778  0.0993
   14CHTO   C62 5724   5.539   4.780  -0.620  0.4520 -0.0276 -0.2827
   14CHTO  H119 5725   5.478   4.703  -0.671  0.6607 -0.7877  0.6055
   14CHTO   O43 5726   5.598   4.852  -0.723 -0.4300 -0.1227 -0.3196
   14CHTO  H101 5727   5.636   4.933  -0.695 -1.0235  0.4443 -1.1340
   14CHTO   C66 5728   5.642   4.706  -0.526 -0.5918  0.5071  0.5498
   14CHTO  H123 5729   5.582   4.646  -0.458 -1.8362  2.3630  1.1288
   14CHTO   N12 5730   5.735   4.613  -0.595 -0.0027  0.3940 -0.5823
   14CHTO  H110 5731   5.688   4.536  -0.655  1.2239  0.1869 -1.3049
   14CHTO  H111 5732   5.815   4.571  -0.535  0.9722  0.8536 -1.5315
   14CHTO   C69 5733   5.716   4.807  -0.438  0.6695  0.1562  0.1263
   14CHTO  H126 5734   5.770   4.879  -0.504  0.4305  0.2176 -0.0064
   14CHTO   O41 5735   5.613   4.889  -0.360 -0.7293  0.2283  0.7191
   14CHTO   C64 5736   5.517   4.967  -0.442 -0.0059 -0.5477 -0.4274
   14CHTO  H121 5737   5.562   5.048  -0.504 -1.2855 -0.0936 -0.7646
   14CHTO   C71 5738   5.425   5.049  -0.345  0.4606  0.2819 -0.0309
   14CHTO   O47 5739   5.494   5.148  -0.268  0.3974  0.0591  0.1457
   14CHTO  H104 5740   5.450   5.160  -0.186 -0.8363 -0.1373 -0.4760
   14CHTO   O34 5741   5.828   4.729  -0.336 -0.5139  0.8236  0.3294
   14CHTO   C49 5742   5.943   4.817  -0.282 -0.4823  0.3617 -0.8034
   14CHTO   H91 5743   6.013   4.822  -0.365  0.1107  0.5072 -0.2978
   14CHTO   C47 5744   6.013   4.741  -0.166 -0.7654 -0.9425 -0.1308
   14CHTO   H89 5745   6.106   4.791  -0.133 -0.5589 -1.0959 -0.4739
   14CHTO   O33 5746   6.050   4.614  -0.212  0.3221 -0.4758  0.2580
   14CHTO   H70 5747   6.131   4.624  -0.259 -0.3602  1.0191 -0.6471
   14CHTO   C45 5748   5.908   4.720  -0.041 -0.3113 -0.2040 -0.1703
   14CHTO   H87 5749   5.860   4.622  -0.054  2.1571 -1.4334 -0.1803
   14CHTO    N8 5750   5.978   4.724   0.088 -0.3513  0.1479 -0.1813
   14CHTO   H75 5751   6.010   4.824   0.111  0.8023 -0.3326  0.3680
   14CHTO   H76 5752   5.911   4.704   0.171 -0.5968  0.1463 -0.3815
   14CHTO   C43 5753   5.786   4.825  -0.059  0.8552  0.7402 -0.4104
   14CHTO   H85 5754   5.725   4.784  -0.139  1.6169 -1.4003  0.0866
   14CHTO   O29 5755   5.841   4.956  -0.100  0.5467  0.4073 -0.0387
   14CHTO   C50 5756   5.911   4.958  -0.227  0.1616 -0.3139 -0.0221
   14CHTO   H92 5757   5.843   5.011  -0.295 -3.6323 -0.6421  3.3625
   14CHTO   C54 5758   6.039   5.047  -0.213 -0.1935 -0.1090 -0.1734
   14CHTO   O36 5759   5.997   5.173  -0.167  0.0404 -0.2306 -0.4042
   14CHTO   H72 5760   5.948   5.179  -0.087  0.1160  0.5579 -0.4184
   14CHTO   O27 5761   5.704   4.841   0.057  0.3510  0.3721  0.1053
   14CHTO   C37 5762   5.561   4.874   0.082 -0.1823  1.0919 -0.0268
   14CHTO   H79 5763   5.525   4.831   0.176 -1.0629 -0.7530 -1.1729
   14CHTO   C38 5764   5.546   5.026   0.102  0.6547 -0.6631 -0.3811
   14CHTO   H80 5765   5.588   5.082   0.017  0.8188 -1.4195 -0.8037
   14CHTO   O31 5766   5.633   5.062   0.212  0.1847 -0.4390 -0.0799
   14CHTO   H68 5767   5.671   5.147   0.199 -1.2335  0.3355  0.6803
   14CHTO   C39 5768   5.398   5.066   0.133 -0.5020 -0.2489 -0.5119
   14CHTO   H81 5769   5.373   5.027   0.232 -4.0474  0.8065 -0.9164
   14CHTO    N7 5770   5.379   5.215   0.126  0.0039 -0.1297 -0.5147
   14CHTO   H73 5771   5.390   5.259   0.027  0.8282  0.2568 -0.2498
   14CHTO   H74 5772   5.285   5.238   0.175  0.2616  0.6459 -0.3756
   14CHTO   C40 5773   5.301   5.004   0.027  0.6709  0.7174  0.4849
   14CHTO   H82 5774   5.290   5.050  -0.071  1.5088 -1.0994 -0.4939
   14CHTO   O26 5775   5.331   4.859   0.012  0.4066  0.3733 -0.2562
   14CHTO   C41 5776   5.466   4.835  -0.030 -0.2807 -0.0778 -0.4199
   14CHTO   H83 5777   5.481   4.894  -0.122 -0.6357 -0.2410 -0.5828
   14CHTO   C52 5778   5.471   4.681  -0.063  0.0513 -0.2154 -0.4462
   14CHTO   O35 5779   5.382   4.651  -0.195 -0.0212  0.4768 -0.0441
   14CHTO   H71 5780   5.298   4.691  -0.186  0.4721  1.5031 -0.0038
   14CHTO   O28 5781   5.173   4.985   0.091  0.4778  0.0866  0.0783
   14CHTO   C42 5782   5.055   4.964   0.007 -0.0320  0.2936  0.1059
   14CHTO   H84 5783   4.981   4.918   0.073  0.5388 -1.6761 -0.5998
   14CHTO   C44 5784   5.057   4.873  -0.118 -0.4778  0.2553  0.0688
   14CHTO   H86 5785   5.126   4.918  -0.190  0.3617  0.5867  1.0812
   14CHTO   O32 5786   5.101   4.741  -0.083  0.2648  0.1896 -0.1881
   14CHTO   H69 5787   5.135   4.690  -0.154 -0.7842 -0.8214  0.0117
   14CHTO   C48 5788   4.916   4.870  -0.188 -0.2859 -0.5981  0.1185
   14CHTO   H90 5789   4.845   4.819  -0.124 -2.1190  1.7188 -0.0059
   14CHTO    N9 5790   4.927   4.789  -0.311 -0.1016  0.5652  0.1370
   14CHTO   H77 5791   5.004   4.834  -0.372  0.3127  0.6990  0.7554
   14CHTO   H78 5792   4.833   4.784  -0.364 -0.9875  1.5029  1.5854
   14CHTO   C51 5793   4.860   5.013  -0.210 -0.1773  0.2058  0.4260
   14CHTO   H93 5794   4.907   5.055  -0.299 -0.0442 -2.4438 -0.8074
   14CHTO   O30 5795   4.878   5.092  -0.093  0.0447 -0.4635  0.0533
   14CHTO   C46 5796   5.004   5.100  -0.043 -0.0951 -0.4389  0.3247
   14CHTO   H88 5797   5.065   5.121  -0.131 -0.8608 -1.0982 -0.3697
   14CHTO   C53 5798   5.013   5.218   0.057  0.2531 -0.3436  0.1386
   14CHTO   O72 5799   4.941   5.197   0.182  0.6644 -0.1804  0.1828
   14CHTO  H199 5800   5.006   5.206   0.249  1.9481 -0.0849 -1.0410
   14CHTO   O22 5801   4.717   5.002  -0.228 -0.3099 -0.2562 -0.3605
   14CHTO   C31 5802   4.634   5.068  -0.331  0.0748 -0.9734 -0.2514
   14CHTO   H59 5803   4.700   5.077  -0.420  0.7765 -0.8915  0.2655
   14CHTO   C29 5804   4.509   4.987  -0.377 -0.2121 -0.2854 -0.4405
   14CHTO   H57 5805   4.466   4.967  -0.278 -1.9552  2.2931 -0.6560
   14CHTO   O21 5806   4.549   4.860  -0.425 -0.2904  0.0655 -0.0256
   14CHTO   H37 5807   4.617   4.823  -0.372 -0.5940  0.5962  0.7512
   14CHTO   C27 5808   4.400   5.068  -0.463 -0.2708  0.1461  0.4306
   14CHTO   H55 5809   4.445   5.086  -0.562 -0.0743  1.2537  0.7147
   14CHTO    N5 5810   4.272   5.002  -0.488  1.3414 -0.2475  0.2380
   14CHTO   H43 5811   4.284   4.895  -0.494  1.1596 -0.2842  0.5367
   14CHTO   H44 5812   4.228   5.040  -0.579 -0.8638  1.1120  1.7969
   14CHTO   C25 5813   4.377   5.207  -0.398 -0.1903  0.3644 -0.1221
   14CHTO   H53 5814   4.336   5.197  -0.296  1.0397 -0.8705  0.2661
   14CHTO   O17 5815   4.504   5.264  -0.394 -0.0876 -0.1372 -0.4867
   14CHTO   C32 5816   4.595   5.215  -0.293  0.1668 -0.1842  0.2216
   14CHTO   H60 5817   4.550   5.214  -0.194  2.9555  0.3671  1.5095
   14CHTO   C36 5818   4.715   5.313  -0.293 -0.6147  0.0259 -0.2417
   14CHTO   O25 5819   4.799   5.300  -0.411 -0.2920  0.1576 -0.2107
   14CHTO   H40 5820   4.877   5.352  -0.408  0.0715 -0.4264  0.9909
   14CHTO   O15 5821   4.295   5.304  -0.468  0.3033 -0.4019  0.2183
   14CHTO   C19 5822   4.249   5.434  -0.414  0.5148  0.2806  0.1614
   14CHTO   H47 5823   4.185   5.479  -0.491  0.2506 -1.0398 -0.4134
   14CHTO   C20 5824   4.155   5.414  -0.287 -0.7491 -0.2618 -0.0671
   14CHTO   H48 5825   4.202   5.354  -0.208 -0.4087  0.6284  0.4181
   14CHTO   O19 5826   4.045   5.334  -0.340  0.2728 -0.4787  0.3754
   14CHTO   H35 5827   4.071   5.269  -0.401 -0.3404  0.1231 -0.5444
   14CHTO   C21 5828   4.123   5.553  -0.215  0.4466  0.2756 -0.0980
   14CHTO   H49 5829   4.065   5.613  -0.285 -0.5417  0.7862  1.1459
   14CHTO    N4 5830   4.042   5.548  -0.092  0.1277 -0.3696 -0.1634
   14CHTO   H41 5831   4.015   5.446  -0.069 -0.4892  0.1279  1.3889
   14CHTO   H42 5832   3.947   5.598  -0.102  0.1071 -0.5724 -1.0301
   14CHTO   C22 5833   4.248   5.642  -0.198  0.4288  0.2015  0.4453
   14CHTO   H50 5834   4.306   5.604  -0.114  0.8423  0.0868  0.1089
   14CHTO   O14 5835   4.317   5.649  -0.320 -0.8094  0.1297 -0.7362
   14CHTO   C23 5836   4.366   5.530  -0.379  0.9141  1.1772 -0.1226
   14CHTO   H51 5837   4.431   5.489  -0.300 -1.4436 -3.2286 -0.3506
   14CHTO   C34 5838   4.452   5.570  -0.501 -0.1818 -0.1436 -0.1820
   14CHTO   O23 5839   4.585   5.613  -0.472 -0.5769 -0.6684 -0.0973
   14CHTO   H38 5840   4.632   5.537  -0.444 -1.5321 -0.7406  1.3781
   14CHTO   O16 5841   4.228   5.782  -0.165  0.2906  0.8137 -0.1875
   14CHTO   C24 5842   4.371   5.850  -0.116 -0.7679 -0.8596  0.1023
   14CHTO   H52 5843   4.459   5.794  -0.149  0.2708  0.9606 -0.2735
   14CHTO   C26 5844   4.365   5.863   0.038  0.2533  0.0504  0.2926
   14CHTO   H54 5845   4.263   5.902   0.059 -0.4466 -1.6351  0.1540
   14CHTO   O20 5846   4.370   5.730   0.093  0.1305  0.3095  0.2453
   14CHTO   H36 5847   4.283   5.700   0.114 -1.2998  3.4400 -0.8678
   14CHTO   C30 5848   4.474   5.958   0.098 -0.0971 -0.5783  0.6051
   14CHTO   H58 5849   4.571   5.908   0.087 -0.0303 -0.5143  0.9042
   14CHTO    N6 5850   4.454   5.993   0.241  0.1450  0.0973 -0.7599
   14CHTO   H45 5851   4.411   5.913   0.299  1.4009  0.2358  0.3736
   14CHTO   H46 5852   4.401   6.086   0.255  0.3711  0.3676 -1.6154
   14CHTO   C33 5853   4.491   6.087   0.012  0.2833 -0.0910  0.9655
   14CHTO   H61 5854   4.402   6.146   0.035 -1.1082 -1.2361 -1.3657
   14CHTO   O18 5855   4.499   6.053  -0.128  0.0324  0.2903 -0.0953
   14CHTO   C28 5856   4.382   5.995  -0.188 -0.1137  0.9011  0.7832
   14CHTO   H56 5857   4.294   6.056  -0.170  0.8988  3.2520 -1.8522
   14CHTO   C35 5858   4.403   5.985  -0.344 -0.0707  0.2601  0.6694
   14CHTO   O24 5859   4.432   6.122  -0.391  0.4836 -0.0904  0.6122
   14CHTO   H39 5860   4.355   6.154  -0.433  0.5618 -1.1587 -0.3879
   14CHTO    O9 5861   4.602   6.174   0.056 -0.2457  0.0169 -0.3552
   14CHTO   C13 5862   4.744   6.098   0.017 -0.1552 -0.0084  0.2654
   14CHTO   H26 5863   4.719   6.003  -0.035  2.2209 -0.0627 -0.8302
   14CHTO   C11 5864   4.818   6.069   0.158  0.0608 -0.4996  0.0081
   14CHTO   H24 5865   4.805   5.963   0.185 -1.3445 -0.6229 -1.0998
   14CHTO    O8 5866   4.755   6.140   0.265 -0.3484 -0.4564 -0.4367
   14CHTO    H3 5867   4.774   6.231   0.257 -0.6713 -0.5509 -2.6239
   14CHTO    C9 5868   4.969   6.100   0.145 -0.7557  0.0372 -0.0908
   14CHTO   H22 5869   5.010   6.024   0.076  1.1556  2.1498 -1.3387
   14CHTO    N2 5870   5.051   6.068   0.264 -0.3100 -1.1035 -0.3069
   14CHTO   H10 5871   5.040   5.967   0.298 -4.1663 -0.2824  1.1251
   14CHTO   H11 5872   5.032   6.139   0.344 -2.8336  0.1516 -1.9585
   14CHTO    C7 5873   4.997   6.247   0.084  0.3365 -0.3297 -0.6919
   14CHTO   H20 5874   5.107   6.255   0.068  1.1868 -0.7794  4.1509
   14CHTO    O4 5875   4.924   6.276  -0.034 -0.3548 -0.1542 -0.0022
   14CHTO   C14 5876   4.831   6.183  -0.084 -0.0767  0.1031  0.1442
   14CHTO   H27 5877   4.897   6.117  -0.143 -1.0315  0.0095 -0.8397
   14CHTO   C18 5878   4.755   6.269  -0.193 -0.1679 -0.0748  0.2521
   14CHTO   O13 5879   4.679   6.375  -0.131  0.2311  0.5264 -0.1287
   14CHTO    H7 5880   4.590   6.374  -0.159  0.4684  0.1138 -0.8849
   14CHTO    O2 5881   4.972   6.356   0.196  0.0319  0.7690  0.2850
   14CHTO    C1 5882   5.003   6.491   0.163  0.0908 -0.1401  0.0007
   14CHTO   H14 5883   4.978   6.505   0.056 -0.4646  0.4004  0.1996
   14CHTO    C2 5884   5.155   6.535   0.184  0.5751  0.1824 -0.2289
   14CHTO   H15 5885   5.185   6.502   0.284 -0.9347 -2.3878 -0.5681
   14CHTO    O6 5886   5.241   6.472   0.089  0.4281  0.0471 -0.0413
   14CHTO    H1 5887   5.303   6.420   0.138  1.9149 -0.2631 -2.1944
   14CHTO    C3 5888   5.170   6.699   0.179 -0.0793 -0.2393 -0.3242
   14CHTO   H16 5889   5.141   6.731   0.078  0.9426 -0.4729 -0.6993
   14CHTO    N1 5890   5.308   6.756   0.205  0.0063 -0.2119  0.3097
   14CHTO    H8 5891   5.378   6.709   0.137  0.1055  1.1709 -0.5645
   14CHTO    H9 5892   5.306   6.862   0.183  0.6199 -0.0738  0.9023
   14CHTO    C4 5893   5.065   6.760   0.278  0.5573 -0.4967 -0.1314
   14CHTO   H17 5894   5.075   6.724   0.380 -1.2029  0.1190  0.2821
   14CHTO    O1 5895   4.932   6.718   0.230 -0.8491 -0.3285 -0.0350
   14CHTO    C5 5896   4.903   6.572   0.235  0.3581  0.1997 -1.0126
   14CHTO   H18 5897   4.908   6.547   0.341  1.3891  3.6287 -0.1823
   14CHTO   C16 5898   4.748   6.560   0.189  0.5125  0.1115  0.1218
   14CHTO   O11 5899   4.703   6.427   0.212 -0.6829 -0.0041  0.2956
   14CHTO    H5 5900   4.638   6.428   0.280 -0.8783 -3.0405  0.2229
   14CHTO    O3 5901   5.059   6.910   0.275  0.5929 -0.0794 -0.9769
   14CHTO    C6 5902   4.961   6.967   0.374  0.6375  0.6634 -0.3121
   14CHTO   H19 5903   4.904   6.893   0.430 -1.2238 -0.3905 -3.4459
   14CHTO    C8 5904   5.041   7.045   0.479 -0.1849  0.3103 -0.0776
   14CHTO   H21 5905   5.096   7.126   0.432  0.1625 -1.6209 -3.1287
   14CHTO    O7 5906   5.130   6.951   0.540  0.1087 -0.4664 -0.9036
   14CHTO    H2 5907   5.213   6.991   0.559 -0.3660 -0.9540  2.6601
   14CHTO   C12 5908   4.938   7.107   0.586  0.1392 -0.5529 -0.4543
   14CHTO   H25 5909   4.899   7.017   0.638 -0.3102  0.0869  0.3306
   14CHTO    N3 5910   4.999   7.186   0.696 -0.1825 -0.4598  0.8309
   14CHTO   H12 5911   4.935   7.256   0.748  0.8461  0.7584  0.4761
   14CHTO   H13 5912   5.046   7.120   0.768  1.6650 -1.2144 -1.0063
   14CHTO   C15 5913   4.819   7.185   0.520 -0.2309 -0.5180 -0.6640
   14CHTO   H28 5914   4.855   7.276   0.472  1.4689 -1.8224 -1.9161
   14CHTO   O10 5915   4.709   7.200   0.597  0.0750  0.6037 -0.2238
   14CHTO    H4 5916   4.726   7.246   0.677  0.2109  0.7016 -0.3097
   14CHTO    O5 5917   4.759   7.101   0.419  0.2346 -0.0781  0.0952
   14CHTO   C10 5918   4.852   7.068   0.317  0.1283  0.0019 -0.0422
   14CHTO   H23 5919   4.908   7.152   0.277  1.6832 -0.3046  1.4308
   14CHTO   C17 5920   4.779   7.013   0.196  0.2578 -0.2737  0.5034
   14CHTO   O12 5921   4.717   6.894   0.225 -0.0634  0.0908  0.2816
   14CHTO    H6 5922   4.652   6.906   0.292  0.4581  2.4899  0.3991
   15CHTO  H203 5923   5.660   4.174   2.327  1.1604  0.6333  1.1888
   15CHTO   O82 5924   5.697   4.096   2.292 -0.2793  0.4682 -0.0015
   15CHTO  C123 5925   5.616   4.027   2.199  0.5731  0.4587  0.5679
   15CHTO  H227 5926   5.605   4.087   2.107 -2.4171  0.2581  0.7276
   15CHTO   O77 5927   5.697   3.914   2.180 -0.2689  0.6400 -0.7660
   15CHTO  C118 5928   5.642   3.821   2.084  0.4006 -1.0089  0.0459
   15CHTO  H222 5929   5.631   3.865   1.984 -2.4245 -1.0324  0.3204
   15CHTO  C125 5930   5.740   3.699   2.079 -0.3973 -0.2641  0.2767
   15CHTO   O84 5931   5.875   3.725   2.043 -0.4337 -0.2963 -0.1626
   15CHTO  H205 5932   5.921   3.764   2.115 -4.1259  1.3765  1.4740
   15CHTO  C114 5933   5.502   3.771   2.123 -0.0604 -0.0474  0.0667
   15CHTO  H218 5934   5.508   3.720   2.220 -1.2818 -0.9180 -0.3051
   15CHTO  C116 5935   5.405   3.894   2.154  0.4074 -0.6785  0.1822
   15CHTO  H220 5936   5.382   3.939   2.055  1.6377 -1.6689 -0.5576
   15CHTO   O79 5937   5.277   3.856   2.198  0.2610 -0.1044 -0.0422
   15CHTO  H201 5938   5.256   3.789   2.136 -0.0816 -0.6473  0.6652
   15CHTO  C120 5939   5.474   3.991   2.259  0.8931  1.0597  0.5389
   15CHTO  H224 5940   5.489   3.937   2.355 -1.4063  0.2255  0.4554
   15CHTO   N21 5941   5.390   4.109   2.289 -0.5673 -0.1694 -0.7733
   15CHTO  H211 5942   5.327   4.150   2.211  0.2403  0.5091 -1.0709
   15CHTO  H212 5943   5.444   4.185   2.343 -0.0800 -1.9155  1.2578
   15CHTO   O75 5944   5.453   3.677   2.020 -0.7284 -0.1675 -0.1450
   15CHTO  C112 5945   5.336   3.540   2.060 -0.0102 -0.4161  0.5726
   15CHTO  H216 5946   5.268   3.572   2.141  1.2614  3.4598  0.2168
   15CHTO   O73 5947   5.406   3.418   2.090 -0.3493 -0.0896 -1.1694
   15CHTO  C113 5948   5.327   3.308   2.136 -0.7958  0.4580  0.2419
   15CHTO  H217 5949   5.277   3.339   2.230 -1.0523  1.0835 -0.0955
   15CHTO  C124 5950   5.429   3.196   2.164  0.0465 -0.5910  0.0056
   15CHTO   O83 5951   5.386   3.097   2.251  0.1756  0.8362  0.3723
   15CHTO  H204 5952   5.456   3.042   2.281  2.1346  2.5821 -0.9018
   15CHTO  C109 5953   5.225   3.271   2.029  0.8036 -0.0404  0.1993
   15CHTO  H213 5954   5.280   3.227   1.945 -1.1830  2.2325 -2.3838
   15CHTO  C110 5955   5.150   3.401   1.969 -0.8752 -0.5160 -0.0517
   15CHTO  H214 5956   5.083   3.446   2.043 -2.2478 -0.7676 -1.1341
   15CHTO   O78 5957   5.070   3.364   1.859 -0.5072 -0.0347  0.4543
   15CHTO  H200 5958   5.030   3.436   1.815  0.5752  0.1166 -0.3207
   15CHTO  C111 5959   5.251   3.512   1.933 -0.0655  0.2910  0.3138
   15CHTO  H215 5960   5.319   3.477   1.854 -1.2068 -0.5507 -0.3141
   15CHTO   N19 5961   5.185   3.637   1.882  0.8774 -0.4624 -0.0400
   15CHTO  H207 5962   5.079   3.630   1.901  0.7448 -2.1379 -1.2696
   15CHTO  H208 5963   5.205   3.652   1.777 -0.8747 -2.7664 -0.7555
   15CHTO   O74 5964   5.135   3.170   2.083  0.1659  0.0914  0.7601
   15CHTO  C115 5965   5.152   3.017   2.019  0.0205 -0.1017 -0.4162
   15CHTO  H219 5966   5.246   3.008   1.964  0.1565  2.8651 -0.7534
   15CHTO   O76 5967   5.161   2.905   2.133  0.4307  0.0302  0.0360
   15CHTO  C122 5968   5.033   2.877   2.185  0.1508  0.1965  0.0768
   15CHTO  H226 5969   4.993   2.966   2.234 -0.0878  0.3866 -0.4597
   15CHTO  C126 5970   5.051   2.772   2.299 -0.0098  0.7300  0.7044
   15CHTO   O85 5971   4.930   2.738   2.355 -0.5995 -0.2137 -0.1470
   15CHTO  H206 5972   4.907   2.650   2.331  0.3111 -1.2482  2.5533
   15CHTO  C121 5973   4.934   2.825   2.070  0.8020  0.2754  0.2346
   15CHTO  H225 5974   4.929   2.714   2.076 -0.1511  0.1830 -1.7079
   15CHTO   O81 5975   4.801   2.888   2.086  0.1480  0.2691  0.2599
   15CHTO  H202 5976   4.766   2.901   1.999 -2.2371 -0.7696  1.0185
   15CHTO  C119 5977   4.990   2.861   1.929 -0.0729  0.3073  0.3697
   15CHTO  H223 5978   5.076   2.794   1.917  1.0624  1.4714  1.7885
   15CHTO  C117 5979   5.040   3.004   1.912  0.1060 -0.6346 -0.0139
   15CHTO  H221 5980   4.973   3.087   1.933  1.7769  0.6079  0.3954
   15CHTO   N20 5981   5.097   3.034   1.771 -0.2574 -0.6620 -0.5195
   15CHTO  H209 5982   5.139   3.134   1.769 -2.3105  0.2200 -0.5006
   15CHTO  H210 5983   5.173   2.962   1.744 -2.1188 -2.1617 -1.8629
   15CHTO   O80 5984   4.900   2.801   1.824 -0.3438  0.1992 -0.5388
   15CHTO  C103 5985   4.896   2.645   1.814 -0.7907  0.0621  0.5781
   15CHTO  H190 5986   4.933   2.595   1.904  1.7064  1.9599  0.6480
   15CHTO  C101 5987   4.753   2.596   1.770 -0.5044  0.3204  0.6142
   15CHTO  H188 5988   4.720   2.657   1.686 -0.5175 -1.1456 -0.4624
   15CHTO   O68 5989   4.660   2.616   1.884 -0.3188 -0.0158 -0.0492
   15CHTO  H168 5990   4.701   2.595   1.965  1.5227 -1.7157 -1.3845
   15CHTO   C99 5991   4.751   2.445   1.718  0.3315  0.1885  0.6533
   15CHTO  H186 5992   4.792   2.379   1.797 -1.3470 -1.0077  0.5507
   15CHTO   N17 5993   4.618   2.391   1.688  0.5217  0.0491  0.3974
   15CHTO  H174 5994   4.594   2.454   1.603  1.6456 -0.9194 -0.6510
   15CHTO  H175 5995   4.636   2.287   1.668  1.2960 -0.0897  1.7851
   15CHTO   C97 5996   4.852   2.437   1.598 -0.2610 -0.4778 -0.3966
   15CHTO  H184 5997   4.826   2.509   1.519  0.2404 -0.4641 -0.5498
   15CHTO   O64 5998   4.985   2.466   1.646 -0.1049  0.4529  0.6293
   15CHTO  C104 5999   4.992   2.602   1.696 -0.4043 -0.1403  0.0998
   15CHTO  H191 6000   4.971   2.667   1.610 -0.1744 -0.8440 -0.4932
   15CHTO  C108 6001   5.146   2.618   1.724 -0.4058  0.9012  0.1878
   15CHTO   O71 6002   5.177   2.569   1.857  0.2528  0.3089  0.0351
   15CHTO  H171 6003   5.193   2.478   1.844 -1.5514  0.1537 -1.2355
   15CHTO   O62 6004   4.861   2.300   1.558 -0.1414 -0.0445 -0.1517
   15CHTO   C91 6005   4.924   2.282   1.428 -0.1251  0.2958 -0.5515
   15CHTO  H178 6006   4.933   2.380   1.381  1.0961  1.5870  2.2667
   15CHTO   C92 6007   4.839   2.193   1.327 -0.4881  0.7276 -0.5307
   15CHTO  H179 6008   4.733   2.222   1.320 -0.6471  0.4229  0.5344
   15CHTO   O66 6009   4.898   2.219   1.198  0.0223 -0.4785  0.3133
   15CHTO  H166 6010   4.954   2.151   1.165  1.0045  1.3899 -1.9490
   15CHTO   C93 6011   4.848   2.035   1.355  0.3331  0.3804  0.3547
   15CHTO  H180 6012   4.836   1.980   1.261 -0.1825  0.5787  0.3029
   15CHTO   N16 6013   4.738   1.992   1.447  0.0814 -0.4248 -0.4479
   15CHTO  H172 6014   4.770   1.988   1.551 -0.7085  0.0418 -0.1847
   15CHTO  H173 6015   4.688   1.899   1.425  0.8497 -0.9023 -0.2169
   15CHTO   C94 6016   4.997   1.997   1.407  0.4432 -0.4974  0.8542
   15CHTO  H181 6017   5.004   1.983   1.515 -0.2541  0.3479  1.0124
   15CHTO   O61 6018   5.090   2.100   1.373  0.4504  0.3220 -0.1232
   15CHTO   C95 6019   5.069   2.219   1.451 -0.0741 -0.6050 -0.0124
   15CHTO  H182 6020   5.089   2.195   1.556  0.7457 -1.0514 -0.2683
   15CHTO  C106 6021   5.189   2.312   1.416 -0.2937 -0.0747 -0.0437
   15CHTO   O69 6022   5.319   2.261   1.439 -0.2220  0.4992 -0.0876
   15CHTO  H169 6023   5.384   2.276   1.374  1.3682 -1.6426  0.9578
   15CHTO   O63 6024   5.033   1.872   1.341 -0.2145  0.0293  0.7648
   15CHTO   C96 6025   5.163   1.798   1.408  0.3337  0.8031  0.0786
   15CHTO  H183 6026   5.198   1.853   1.496 -1.7330  2.5825 -0.1777
   15CHTO   C98 6027   5.286   1.782   1.316 -0.8347  0.4961  0.8039
   15CHTO  H185 6028   5.257   1.745   1.216  3.1569  0.3347 -0.3955
   15CHTO   O67 6029   5.342   1.908   1.294 -0.1488  0.0682 -0.3023
   15CHTO  H167 6030   5.363   1.955   1.373 -1.1328 -1.8295  1.1133
   15CHTO  C102 6031   5.402   1.686   1.374 -0.3812  0.0132  0.3546
   15CHTO  H189 6032   5.461   1.739   1.451  0.1088 -0.9261  0.6271
   15CHTO   N18 6033   5.510   1.650   1.276  0.2348 -1.0876 -0.1367
   15CHTO  H176 6034   5.598   1.607   1.322  0.4458 -0.0729  0.4317
   15CHTO  H177 6035   5.550   1.733   1.221 -1.2749 -0.2934 -0.0459
   15CHTO  C105 6036   5.329   1.553   1.420 -0.5557 -0.0690 -0.1099
   15CHTO  H192 6037   5.282   1.503   1.336  1.5068  1.0555 -1.9798
   15CHTO   O65 6038   5.234   1.593   1.517 -0.1114 -0.5124  0.6239
   15CHTO  C100 6039   5.122   1.656   1.453  0.2098 -0.2785  0.3031
   15CHTO  H187 6040   5.089   1.603   1.363  1.7291  0.1768 -0.5473
   15CHTO  C107 6041   5.008   1.669   1.553 -0.1322  0.0114  0.3149
   15CHTO   O70 6042   4.985   1.536   1.604 -0.3008 -0.1017 -0.2662
   15CHTO  H170 6043   4.942   1.479   1.543 -0.1624 -1.3194  0.7393
   15CHTO   O57 6044   5.438   1.456   1.506 -0.1081  0.7607  0.0008
   15CHTO   C85 6045   5.403   1.354   1.606  0.0804 -0.5922  0.0317
   15CHTO  H157 6046   5.318   1.387   1.669  0.5847  1.1766 -0.1763
   15CHTO   C83 6047   5.522   1.346   1.706 -0.5388 -0.3996  0.3924
   15CHTO  H155 6048   5.532   1.443   1.756  0.2291  0.6343 -1.6799
   15CHTO   O56 6049   5.645   1.338   1.631  0.2810 -0.0009  0.2011
   15CHTO  H135 6050   5.658   1.420   1.586  0.4175  0.2080  0.6197
   15CHTO   C81 6051   5.488   1.237   1.812  0.0477 -0.4602 -0.0171
   15CHTO  H153 6052   5.398   1.267   1.865  0.6403  2.7395 -0.6697
   15CHTO   N14 6053   5.595   1.223   1.915 -0.3621  0.7051  0.1125
   15CHTO  H141 6054   5.551   1.218   2.012  1.5190  0.5429  0.9818
   15CHTO  H142 6055   5.660   1.308   1.912 -0.9201  1.1155 -0.4530
   15CHTO   C79 6056   5.457   1.103   1.741 -0.5113 -0.1686 -0.7243
   15CHTO  H151 6057   5.426   1.031   1.817  0.0998 -0.5968 -0.8762
   15CHTO   O52 6058   5.358   1.102   1.642 -0.0822 -0.4345  0.1268
   15CHTO   C86 6059   5.374   1.213   1.545 -0.5826  0.0756  0.0652
   15CHTO  H158 6060   5.456   1.180   1.478 -1.2745 -1.0452 -0.2450
   15CHTO   C90 6061   5.250   1.206   1.456  0.2537  0.2837 -0.7613
   15CHTO   O60 6062   5.135   1.262   1.518  0.4787  0.0831 -0.4967
   15CHTO  H138 6063   5.062   1.207   1.499  0.2939  0.3213 -0.4772
   15CHTO   O50 6064   5.569   1.043   1.677  0.2941  0.1197 -0.2499
   15CHTO   C73 6065   5.588   0.933   1.585  0.2093 -0.3723 -0.7685
   15CHTO  H145 6066   5.511   0.917   1.509 -0.5082 -3.1789  0.4910
   15CHTO   C74 6067   5.586   0.808   1.671  0.0387  0.4423 -0.9096
   15CHTO  H146 6068   5.489   0.790   1.720  1.2779 -1.1620  1.0457
   15CHTO   O54 6069   5.614   0.690   1.590  0.2015 -0.0630 -0.6289
   15CHTO  H133 6070   5.705   0.689   1.569 -0.1295  0.8550 -2.2178
   15CHTO   C75 6071   5.698   0.817   1.780  0.3654 -0.8989  0.5935
   15CHTO  H147 6072   5.683   0.912   1.835  0.6067 -1.5082  1.7281
   15CHTO   N13 6073   5.702   0.712   1.881 -0.1050  0.8955  0.4414
   15CHTO  H139 6074   5.608   0.705   1.935 -2.4440 -0.8621 -3.6245
   15CHTO  H140 6075   5.788   0.714   1.945 -0.3269 -0.7170  0.8174
   15CHTO   C76 6076   5.840   0.847   1.720 -0.0154  0.1841  0.7596
   15CHTO  H148 6077   5.886   0.757   1.679 -0.4259  0.8033 -1.1047
   15CHTO   O49 6078   5.835   0.958   1.613 -0.0900 -0.6795  0.1002
   15CHTO   C77 6079   5.725   0.943   1.520 -0.9155  0.0442 -0.5464
   15CHTO  H149 6080   5.750   0.851   1.467  0.8394  1.7690 -2.8223
   15CHTO   C88 6081   5.732   1.053   1.411  0.2720 -0.0520  0.5413
   15CHTO   O58 6082   5.617   1.051   1.316  0.6651 -0.2056  0.2831
   15CHTO  H136 6083   5.577   1.135   1.316 -0.3555 -0.6799  0.4267
   15CHTO   O51 6084   5.956   0.918   1.836 -0.0474 -0.2315 -0.5236
   15CHTO   C78 6085   6.101   0.907   1.780  0.1299 -0.4975 -0.3130
   15CHTO  H150 6086   6.099   0.885   1.671  2.0796 -0.6349 -0.3442
   15CHTO   C80 6087   6.185   0.799   1.846 -0.3252  0.4182  0.2771
   15CHTO  H152 6088   6.173   0.809   1.956  2.7867 -0.3333  0.7522
   15CHTO   O55 6089   6.122   0.669   1.827  0.6233  0.0251 -0.0819
   15CHTO  H134 6090   6.049   0.673   1.886  0.7379  0.3408  0.0347
   15CHTO   C84 6091   6.331   0.802   1.796 -0.0235 -0.5459 -0.2868
   15CHTO  H156 6092   6.327   0.755   1.698 -0.3998  1.3956 -1.2117
   15CHTO   N15 6093   6.430   0.727   1.880 -0.1573  0.0473  0.0640
   15CHTO  H143 6094   6.525   0.709   1.833 -0.3701 -0.9202  0.0124
   15CHTO  H144 6095   6.389   0.637   1.921 -0.7398  0.5247  0.5317
   15CHTO   C87 6096   6.397   0.944   1.789 -0.2903  0.5891 -0.4200
   15CHTO  H159 6097   6.413   0.982   1.890 -1.5543 -1.4591  0.5933
   15CHTO   O53 6098   6.293   1.048   1.718  0.3082  0.1707 -0.7866
   15CHTO   C82 6099   6.166   1.044   1.784 -0.4783  0.1225 -0.8476
   15CHTO  H154 6100   6.180   1.079   1.887  0.8555  0.8956 -1.2904
   15CHTO   C89 6101   6.082   1.155   1.716 -0.1887 -0.1772  0.6049
   15CHTO   O59 6102   6.078   1.145   1.569 -0.1940 -0.1825 -0.2833
   15CHTO  H137 6103   6.002   1.195   1.548 -0.2672 -0.2601 -0.1984
   15CHTO   O45 6104   6.523   0.946   1.690  0.0264 -0.7530 -0.1721
   15CHTO   C67 6105   6.599   1.071   1.699 -0.4721  0.3559  0.4928
   15CHTO  H124 6106   6.545   1.149   1.753 -0.3884  0.1302  0.9062
   15CHTO   C65 6107   6.730   1.052   1.768 -0.7570  0.5784 -0.0058
   15CHTO  H122 6108   6.764   0.951   1.744 -0.9287  0.5013  0.0732
   15CHTO   O44 6109   6.691   1.047   1.907  0.7541 -0.5610  0.5099
   15CHTO  H102 6110   6.690   1.135   1.939  0.3673 -0.7608  1.0590
   15CHTO   C63 6111   6.849   1.149   1.733  0.4678 -0.9660 -0.3509
   15CHTO  H120 6112   6.899   1.113   1.643  0.7869  0.1875 -0.6465
   15CHTO   N11 6113   6.963   1.153   1.830  0.3765  0.2076 -0.1543
   15CHTO  H108 6114   7.038   1.229   1.817 -0.2151  0.9694  0.8208
   15CHTO  H109 6115   7.019   1.062   1.833  1.6459  0.9552 -0.4592
   15CHTO   C61 6116   6.789   1.287   1.687 -0.2040  0.0553 -0.1475
   15CHTO  H118 6117   6.874   1.346   1.650  0.8515 -1.8679 -0.8668
   15CHTO   O40 6118   6.693   1.262   1.571  0.3437 -0.0548 -0.0019
   15CHTO   C68 6119   6.623   1.129   1.558  0.2533  0.4362 -0.1610
   15CHTO  H125 6120   6.692   1.066   1.497 -0.2365  1.7835 -2.1438
   15CHTO   C72 6121   6.487   1.129   1.478  0.1934 -0.3926  0.2857
   15CHTO   O48 6122   6.396   1.228   1.524  0.3922 -0.1280 -0.1015
   15CHTO  H105 6123   6.331   1.244   1.458 -0.9871  0.5997  1.3696
   15CHTO   O38 6124   6.730   1.371   1.797 -0.3395 -0.0162  0.0615
   15CHTO   C55 6125   6.659   1.489   1.762  0.4708  0.0638  0.0400
   15CHTO  H112 6126   6.594   1.468   1.675  0.6182 -1.8871  0.3729
   15CHTO   C56 6127   6.760   1.604   1.737 -0.1716  0.1153  0.2653
   15CHTO  H113 6128   6.809   1.612   1.835 -0.1074 -0.4293  0.2789
   15CHTO   O42 6129   6.860   1.570   1.635  0.5623  0.4634  0.0317
   15CHTO  H100 6130   6.926   1.635   1.625  0.8808  0.0672 -0.4902
   15CHTO   C57 6131   6.681   1.731   1.707  0.3753  0.2949  0.4939
   15CHTO  H114 6132   6.638   1.711   1.608  1.9824 -1.5651  0.1258
   15CHTO   N10 6133   6.765   1.855   1.705  0.0036 -0.0782  0.0566
   15CHTO  H106 6134   6.844   1.849   1.778  1.1433 -0.8897 -1.2070
   15CHTO  H107 6135   6.807   1.845   1.606  0.4429 -1.2960  0.3553
   15CHTO   C58 6136   6.560   1.762   1.804 -0.6700  0.2932 -0.7066
   15CHTO  H115 6137   6.598   1.793   1.904 -0.0713  0.1232 -0.8784
   15CHTO   O37 6138   6.487   1.644   1.839  0.0979  0.0093 -0.3680
   15CHTO   C59 6139   6.559   1.524   1.873 -0.4164 -0.0801 -0.2443
   15CHTO  H116 6140   6.609   1.538   1.968 -0.6801 -0.6270 -0.0220
   15CHTO   C70 6141   6.455   1.405   1.883  0.3834 -0.1676  0.3283
   15CHTO   O46 6142   6.359   1.390   1.781  0.4288 -0.1208  0.0417
   15CHTO  H103 6143   6.276   1.362   1.815 -0.2893  0.5071 -1.1643
   15CHTO   O39 6144   6.454   1.878   1.739 -0.0089  0.4466 -0.0747
   15CHTO   C60 6145   6.384   1.848   1.615 -0.3248 -0.3482 -0.2975
   15CHTO  H117 6146   6.457   1.854   1.535 -0.2482  1.4623 -0.0936
   15CHTO   C62 6147   6.310   1.710   1.605 -0.2328  0.3003  0.5237
   15CHTO  H119 6148   6.389   1.633   1.600 -0.3936  0.1878 -0.4362
   15CHTO   O43 6149   6.237   1.692   1.729  0.0888  0.2892  0.6033
   15CHTO  H101 6150   6.165   1.752   1.736 -0.1558  0.1900 -0.8794
   15CHTO   C66 6151   6.224   1.699   1.474 -0.0328 -0.7048  0.1610
   15CHTO  H123 6152   6.292   1.703   1.389 -0.0435  1.0894  0.2266
   15CHTO   N12 6153   6.165   1.562   1.455  0.2907 -0.6030 -0.1541
   15CHTO  H110 6154   6.124   1.565   1.355  1.0960 -0.9735 -0.4986
   15CHTO  H111 6155   6.100   1.539   1.539  0.2372 -0.8266 -0.2546
   15CHTO   C69 6156   6.122   1.814   1.484 -0.4696 -0.5956  0.3703
   15CHTO  H126 6157   6.068   1.802   1.580  2.0894 -2.4460  1.6486
   15CHTO   O41 6158   6.213   1.941   1.485 -0.1645 -0.2752  0.4009
   15CHTO   C64 6159   6.292   1.966   1.601 -0.3460 -0.4031  0.3012
   15CHTO  H121 6160   6.235   1.978   1.696  1.3846 -3.6117  1.8629
   15CHTO   C71 6161   6.363   2.101   1.561 -0.2513 -0.0795  0.3598
   15CHTO   O47 6162   6.449   2.171   1.653  0.1792 -0.4310  0.2505
   15CHTO  H104 6163   6.535   2.135   1.664  0.0996 -0.5096  0.6288
   15CHTO   O34 6164   6.036   1.827   1.373 -0.0649  0.1451  0.2479
   15CHTO   C49 6165   5.979   1.858   1.240  0.3558  0.4945 -0.0347
   15CHTO   H91 6166   6.044   1.802   1.172 -2.1245 -1.0194 -1.2192
   15CHTO   C47 6167   6.006   2.006   1.226 -0.0307 -0.2315  0.2242
   15CHTO   H89 6168   5.986   2.034   1.121 -0.9002 -0.1350  0.4092
   15CHTO   O33 6169   6.143   2.037   1.251 -0.4275 -0.8173  0.0721
   15CHTO   H70 6170   6.177   2.013   1.335  2.2317 -2.4282 -1.4045
   15CHTO   C45 6171   5.910   2.094   1.333 -0.4768  0.0381  0.4908
   15CHTO   H87 6172   5.926   2.050   1.432  0.6024 -1.2564 -0.2442
   15CHTO    N8 6173   5.933   2.239   1.340  0.0480  0.7252 -0.0918
   15CHTO   H75 6174   5.918   2.273   1.442 -1.8348 -0.0501 -0.0777
   15CHTO   H76 6175   5.882   2.302   1.269  0.4337 -0.5662 -1.5320
   15CHTO   C43 6176   5.755   2.060   1.284  0.1860 -0.3372 -0.5070
   15CHTO   H85 6177   5.690   2.109   1.357 -0.7105 -0.1323 -1.4332
   15CHTO   O29 6178   5.735   1.916   1.291  0.4008 -0.0776 -0.3134
   15CHTO   C50 6179   5.827   1.821   1.231 -0.8221  0.6572  1.5055
   15CHTO   H92 6180   5.829   1.719   1.272  0.5929 -0.1087 -0.4437
   15CHTO   C54 6181   5.786   1.806   1.083 -0.0429 -0.1695  0.0986
   15CHTO   O36 6182   5.859   1.707   1.009 -0.0593  0.0267  0.1409
   15CHTO   H72 6183   5.943   1.696   1.047 -0.4923 -2.5529  0.4284
   15CHTO   O27 6184   5.720   2.109   1.153  0.4906  0.4984 -0.1927
   15CHTO   C37 6185   5.661   2.204   1.062 -0.1139  0.3272 -0.2166
   15CHTO   H79 6186   5.603   2.157   0.980 -1.9892 -0.9589  1.7843
   15CHTO   C38 6187   5.558   2.282   1.147  0.2100  0.5257 -0.0731
   15CHTO   H80 6188   5.602   2.330   1.235  0.1249  1.7588 -0.6948
   15CHTO   O31 6189   5.458   2.188   1.193 -0.1635 -0.5622 -0.1333
   15CHTO   H68 6190   5.381   2.236   1.217 -0.8080 -1.5849 -0.1082
   15CHTO   C39 6191   5.502   2.403   1.058 -0.1430  0.4457 -0.6082
   15CHTO   H81 6192   5.445   2.359   0.977  1.8336  1.4989 -2.6347
   15CHTO    N7 6193   5.411   2.493   1.129 -0.5105  1.1358  0.1648
   15CHTO   H73 6194   5.431   2.594   1.097  1.4497  0.3071 -1.3420
   15CHTO   H74 6195   5.312   2.454   1.110  0.5708 -2.0665  0.6840
   15CHTO   C40 6196   5.622   2.482   0.977  0.3213  0.3349  0.7107
   15CHTO   H82 6197   5.685   2.550   1.034  0.7857  0.0897  0.4917
   15CHTO   O26 6198   5.700   2.380   0.913 -0.4241  0.4276  0.1405
   15CHTO   C41 6199   5.768   2.292   1.004  0.7739  0.0228  0.2137
   15CHTO   H83 6200   5.805   2.353   1.087 -0.1027  0.1056  0.5544
   15CHTO   C52 6201   5.879   2.218   0.932 -0.5873  0.2090  0.0595
   15CHTO   O35 6202   5.988   2.301   0.905  0.1526 -0.1834 -0.0890
   15CHTO   H71 6203   5.972   2.373   0.848 -0.1834 -0.3936 -0.2623
   15CHTO   O28 6204   5.559   2.557   0.870  0.0654 -0.0042  0.4093
   15CHTO   C42 6205   5.603   2.683   0.807 -0.0934 -0.1239  0.2399
   15CHTO   H84 6206   5.589   2.667   0.700  1.1622 -1.5953  0.2841
   15CHTO   C44 6207   5.759   2.711   0.821  0.0910  0.3618  0.6147
   15CHTO   H86 6208   5.784   2.709   0.927 -0.1394  1.4817  0.6946
   15CHTO   O32 6209   5.824   2.591   0.760 -0.0373 -0.4805  0.3227
   15CHTO   H69 6210   5.790   2.517   0.805  0.1546  0.1377  1.5103
   15CHTO   C48 6211   5.795   2.843   0.748 -0.7249 -0.3012  0.2718
   15CHTO   H90 6212   5.785   2.830   0.640  0.3095 -2.4053  0.3845
   15CHTO    N9 6213   5.939   2.885   0.764  0.6890 -0.6886  0.4741
   15CHTO   H77 6214   5.959   2.897   0.870  2.3513  3.1464 -0.1790
   15CHTO   H78 6215   6.019   2.832   0.714  1.9624  2.1912 -0.6116
   15CHTO   C51 6216   5.706   2.961   0.797  0.1035  0.3728  0.3493
   15CHTO   H93 6217   5.729   2.977   0.902  0.0499 -1.2721  0.6212
   15CHTO   O30 6218   5.573   2.927   0.783 -0.5006  0.2034 -0.0994
   15CHTO   C46 6219   5.517   2.808   0.854  0.5224  0.0673  0.2248
   15CHTO   H88 6220   5.543   2.825   0.959 -0.1436 -1.2951  0.6178
   15CHTO   C53 6221   5.364   2.788   0.814  0.1788  0.1594  0.1427
   15CHTO   O72 6222   5.287   2.910   0.832  0.0810  0.3235 -0.6851
   15CHTO  H199 6223   5.259   2.961   0.758 -1.8521 -3.0188 -2.3519
   15CHTO   O22 6224   5.707   3.077   0.713  0.5151 -0.1454 -0.6495
   15CHTO   C31 6225   5.687   3.213   0.774  0.0512  0.3242  0.3208
   15CHTO   H59 6226   5.667   3.285   0.692  0.8530 -0.4157 -0.5435
   15CHTO   C29 6227   5.563   3.212   0.867 -0.3619 -0.2117 -0.1741
   15CHTO   H57 6228   5.580   3.133   0.942 -1.1607 -0.8281 -0.6309
   15CHTO   O21 6229   5.448   3.176   0.797  0.9038  0.6949 -0.0717
   15CHTO   H37 6230   5.445   3.082   0.792 -0.5659  0.8310 -2.6691
   15CHTO   C27 6231   5.560   3.356   0.942 -0.0714  0.7754  0.1101
   15CHTO   H55 6232   5.530   3.426   0.862  0.7750 -1.1784 -1.9688
   15CHTO    N5 6233   5.461   3.356   1.055  0.5682  0.0301  0.0915
   15CHTO   H43 6234   5.487   3.430   1.130 -0.1323  0.3294  0.0453
   15CHTO   H44 6235   5.447   3.257   1.096  1.7443  0.3732  1.3696
   15CHTO   C25 6236   5.695   3.405   0.992 -0.0858 -0.0868  0.2371
   15CHTO   H53 6237   5.723   3.338   1.075 -0.6876 -0.4051  0.1870
   15CHTO   O17 6238   5.797   3.400   0.889 -0.2577 -0.4678 -0.2385
   15CHTO   C32 6239   5.808   3.263   0.845  0.5804  1.0780 -0.3058
   15CHTO   H60 6240   5.830   3.196   0.928 -3.7813 -1.2068 -0.8599
   15CHTO   C36 6241   5.934   3.260   0.756  0.1943 -0.7410 -0.6530
   15CHTO   O25 6242   6.048   3.302   0.832 -0.1161 -0.1582  0.2684
   15CHTO   H40 6243   6.107   3.229   0.834 -1.4457 -1.2867 -0.5543
   15CHTO   O15 6244   5.695   3.560   1.049  0.1623  0.1711 -0.0721
   15CHTO   C19 6245   5.788   3.655   1.102 -0.6028 -0.1433 -0.3383
   15CHTO   H47 6246   5.863   3.671   1.023  0.6132  1.5522  1.1194
   15CHTO   C20 6247   5.720   3.790   1.152 -0.1240 -0.6498 -0.3400
   15CHTO   H48 6248   5.632   3.770   1.215 -0.1290  0.6494  0.0966
   15CHTO   O19 6249   5.674   3.857   1.032  0.2076  0.0369  0.0152
   15CHTO   H35 6250   5.708   3.819   0.954 -0.3293 -0.9028  0.2310
   15CHTO   C21 6251   5.809   3.888   1.247 -0.6562  0.0884  0.7784
   15CHTO   H49 6252   5.898   3.919   1.192 -0.5933 -1.6940 -0.1448
   15CHTO    N4 6253   5.748   4.010   1.300 -0.7021 -0.1686  0.0307
   15CHTO   H41 6254   5.672   4.056   1.238  0.0252 -1.7948 -2.1272
   15CHTO   H42 6255   5.824   4.085   1.316 -0.0891 -0.8157  0.1481
   15CHTO   C22 6256   5.883   3.803   1.355 -0.4936  0.2207  0.4164
   15CHTO   H50 6257   5.806   3.746   1.409 -1.5402  1.6630  0.4730
   15CHTO   O14 6258   5.960   3.708   1.281  0.1957 -0.4201  0.0435
   15CHTO   C23 6259   5.877   3.606   1.219  0.0607 -0.3573  1.0391
   15CHTO   H51 6260   5.817   3.557   1.296 -1.3553 -1.9444 -1.0334
   15CHTO   C34 6261   5.983   3.499   1.171  0.3234 -0.4256  0.1900
   15CHTO   O23 6262   6.066   3.552   1.067  0.0454 -0.0479  0.2586
   15CHTO   H38 6263   6.021   3.537   0.986  0.8801 -1.3433  0.0161
   15CHTO   O16 6264   5.967   3.871   1.457 -0.5494  0.0914  0.0601
   15CHTO   C24 6265   6.088   3.792   1.515 -0.6915 -0.3596  0.2043
   15CHTO   H52 6266   6.150   3.748   1.437 -0.6878 -1.8244  1.0145
   15CHTO   C26 6267   6.050   3.685   1.618 -0.4056  0.2923 -0.1055
   15CHTO   H54 6268   5.991   3.736   1.697  1.3081  0.0669  1.3606
   15CHTO   O20 6269   5.970   3.589   1.539  0.4717 -0.6522 -0.6318
   15CHTO   H36 6270   5.895   3.556   1.585  1.6076 -0.6026  1.3323
   15CHTO   C30 6271   6.177   3.626   1.678 -0.7030 -0.2878 -0.2722
   15CHTO   H58 6272   6.242   3.585   1.599 -0.3986  0.9982 -0.7053
   15CHTO    N6 6273   6.147   3.510   1.767 -0.1987 -0.2141  0.1416
   15CHTO   H45 6274   6.120   3.429   1.701 -0.9637 -0.1457  0.3689
   15CHTO   H46 6275   6.236   3.478   1.819  0.0028  1.0449  0.6033
   15CHTO   C33 6276   6.271   3.731   1.742  0.5097  0.0412  0.3122
   15CHTO   H61 6277   6.211   3.776   1.823  0.3138 -0.6486  0.5558
   15CHTO   O18 6278   6.301   3.833   1.646 -0.2668 -0.5991  0.3799
   15CHTO   C28 6279   6.182   3.899   1.592  0.7059  0.4060  0.4571
   15CHTO   H56 6280   6.120   3.936   1.674 -0.5154  0.6913 -0.5721
   15CHTO   C35 6281   6.235   3.998   1.489  0.6161  0.0898 -0.4209
   15CHTO   O24 6282   6.347   4.078   1.528 -0.2843  0.4918 -0.1665
   15CHTO   H39 6283   6.421   4.021   1.537 -1.2855 -1.0864 -1.6087
   15CHTO    O9 6284   6.393   3.688   1.802  0.5878  0.3364 -0.6275
   15CHTO   C13 6285   6.417   3.717   1.941 -0.7556 -0.4171 -0.2021
   15CHTO   H26 6286   6.329   3.674   1.994 -1.1830  1.8432  1.0330
   15CHTO   C11 6287   6.431   3.872   1.965  0.0031 -0.0219 -0.2128
   15CHTO   H24 6288   6.335   3.916   1.934  0.6073  0.5554 -1.2945
   15CHTO    O8 6289   6.525   3.935   1.886 -0.1674 -0.1161  0.2013
   15CHTO    H3 6290   6.533   4.024   1.915 -2.3196 -0.4356  1.9400
   15CHTO    C9 6291   6.454   3.888   2.116 -0.4831  0.4525 -0.1700
   15CHTO   H22 6292   6.375   3.824   2.157 -0.3050 -0.1429 -0.7598
   15CHTO    N2 6293   6.437   4.023   2.171  0.0991  0.0391  0.2337
   15CHTO   H10 6294   6.501   4.088   2.112  0.8068  0.9255  1.9367
   15CHTO   H11 6295   6.459   4.019   2.276  1.0947 -1.0438 -0.0046
   15CHTO    C7 6296   6.599   3.826   2.145  0.6292  0.1863  0.5953
   15CHTO   H20 6297   6.602   3.833   2.256  1.9430 -0.8393  0.6256
   15CHTO    O4 6298   6.599   3.686   2.117 -0.5472 -0.0728  0.0006
   15CHTO   C14 6299   6.554   3.646   1.983  0.3195  0.1479  0.1126
   15CHTO   H27 6300   6.525   3.539   1.985  1.3934 -0.1542 -0.2336
   15CHTO   C18 6301   6.673   3.655   1.882  0.2040  0.4051 -0.2957
   15CHTO   O13 6302   6.781   3.569   1.920  0.1819 -0.2606 -0.4340
   15CHTO    H7 6303   6.836   3.553   1.846 -1.0651 -0.2238 -1.3896
   15CHTO    O2 6304   6.735   3.916   2.077 -0.8421  0.1948 -0.2255
   15CHTO    C1 6305   6.862   3.926   2.148  0.0084  0.5883  0.4831
   15CHTO   H14 6306   6.897   3.823   2.168 -1.1893  0.0575 -0.0489
   15CHTO    C2 6307   6.859   4.007   2.285  0.1165 -0.0521  0.7516
   15CHTO   H15 6308   6.811   4.104   2.265 -0.8991 -1.5296 -4.9056
   15CHTO    O6 6309   6.793   3.931   2.386  0.8516  0.0247 -0.0135
   15CHTO    H1 6310   6.843   3.863   2.427  3.0549  1.4334 -0.2947
   15CHTO    C3 6311   7.021   4.031   2.337  0.3999 -0.0501 -0.2222
   15CHTO   H16 6312   7.064   3.934   2.364  1.6041  0.6621  0.4476
   15CHTO    N1 6313   7.029   4.118   2.460  0.0149 -0.3859  0.0211
   15CHTO    H8 6314   7.022   4.043   2.538 -1.3477 -0.6175 -0.3004
   15CHTO    H9 6315   7.122   4.166   2.486  0.5879 -0.5573 -1.6361
   15CHTO    C4 6316   7.109   4.082   2.217 -0.3248 -0.2797  0.0935
   15CHTO   H17 6317   7.077   4.177   2.174  4.6208  1.8083  0.7389
   15CHTO    O1 6318   7.085   3.991   2.108  0.8255 -0.5874 -0.0540
   15CHTO    C5 6319   6.955   3.995   2.048 -0.2488  0.0563  0.4909
   15CHTO   H18 6320   6.928   4.100   2.039  0.0232  0.5099  4.1397
   15CHTO   C16 6321   6.961   3.934   1.906  0.2436  0.4413  1.1647
   15CHTO   O11 6322   7.046   4.007   1.809  0.0916  0.1466  0.1068
   15CHTO    H5 6323   7.092   3.943   1.759  0.2553 -1.1920  1.8951
   15CHTO    O3 6324   7.249   4.091   2.231  0.4871  0.2328 -0.5893
   15CHTO    C6 6325   7.327   4.218   2.200 -0.1325  0.1824 -0.2262
   15CHTO   H19 6326   7.259   4.303   2.195 -0.9026 -0.4524 -0.8009
   15CHTO    C8 6327   7.434   4.240   2.304 -0.0938  0.1961 -0.9674
   15CHTO   H21 6328   7.480   4.144   2.324 -0.2054  0.0542 -1.3741
   15CHTO    O7 6329   7.364   4.274   2.425 -0.4348  0.8886 -0.1132
   15CHTO    H2 6330   7.419   4.324   2.482 -2.4768  1.9138  1.0498
   15CHTO   C12 6331   7.545   4.346   2.260  0.3409 -0.0075  0.3476
   15CHTO   H25 6332   7.500   4.447   2.254  2.6683  0.9268 -1.8895
   15CHTO    N3 6333   7.652   4.357   2.364  0.1754 -0.5048  0.3258
   15CHTO   H12 6334   7.707   4.265   2.370  1.6204  0.3344  0.2731
   15CHTO   H13 6335   7.604   4.389   2.455  0.0600 -1.2710  0.5327
   15CHTO   C15 6336   7.601   4.309   2.117 -0.8683  0.3225 -0.4738
   15CHTO   H28 6337   7.653   4.215   2.130  0.1004  0.5592 -2.4211
   15CHTO   O10 6338   7.694   4.412   2.046 -0.1007 -0.5952  0.8145
   15CHTO    H4 6339   7.762   4.444   2.103  1.4552 -3.2937  0.5591
   15CHTO    O5 6340   7.489   4.304   2.026  0.0373 -0.3772  0.2524
   15CHTO   C10 6341   7.392   4.208   2.059 -0.1543  0.1121  0.6628
   15CHTO   H23 6342   7.448   4.115   2.070  2.8747  1.7242 -0.6574
   15CHTO   C17 6343   7.297   4.190   1.937 -0.5859  0.0776  0.1919
   15CHTO   O12 6344   7.363   4.114   1.831  0.2757 -0.5060  0.5301
   15CHTO    H6 6345   7.359   4.165   1.752  0.5770 -2.1117 -0.5427
   16CHTO  H203 6346   3.663   3.460   0.405  0.4421 -2.1953 -1.0961
   16CHTO   O82 6347   3.749   3.497   0.407 -0.0957 -0.9002 -0.7528
   16CHTO  C123 6348   3.840   3.407   0.468 -0.0028  0.1548  0.5325
   16CHTO  H227 6349   3.828   3.306   0.428 -0.0552 -0.1214  1.2329
   16CHTO   O77 6350   3.980   3.449   0.436  0.7395 -0.0001 -0.4444
   16CHTO  C118 6351   4.079   3.351   0.476 -0.1619 -0.6807 -0.5192
   16CHTO  H222 6352   4.062   3.259   0.418  1.6898 -2.3912  1.5572
   16CHTO  C125 6353   4.217   3.405   0.428 -0.0003 -0.3977 -0.4862
   16CHTO   O84 6354   4.304   3.298   0.392 -0.0554  0.2431  0.0156
   16CHTO  H205 6355   4.396   3.307   0.410 -0.2435  0.4024  0.9080
   16CHTO  C114 6356   4.075   3.331   0.630  0.3486  0.8357  0.0573
   16CHTO  H218 6357   4.114   3.420   0.680  2.7312 -0.2536  0.2296
   16CHTO  C116 6358   3.934   3.297   0.682 -0.2759 -0.3046  0.2057
   16CHTO  H220 6359   3.909   3.196   0.644  1.7408 -0.6967 -0.1218
   16CHTO   O79 6360   3.939   3.285   0.824  0.3110 -0.0337 -0.0371
   16CHTO  H201 6361   3.854   3.257   0.851  1.2504 -0.7611  2.3057
   16CHTO  C120 6362   3.828   3.405   0.628  0.1373  0.5277 -0.1180
   16CHTO  H224 6363   3.857   3.500   0.678  2.1041  0.9473 -2.0173
   16CHTO   N21 6364   3.693   3.374   0.678 -0.0616 -0.2281  0.3839
   16CHTO  H211 6365   3.653   3.453   0.739  1.4057  0.7151  0.1537
   16CHTO  H212 6366   3.693   3.278   0.728  0.5379  0.6107  2.0589
   16CHTO   O75 6367   4.173   3.226   0.648  0.3098  0.3093  0.3451
   16CHTO  C112 6368   4.298   3.233   0.772  1.3991  0.4315  0.1333
   16CHTO  H216 6369   4.246   3.270   0.862 -1.4503 -0.0439 -1.2851
   16CHTO   O73 6370   4.391   3.327   0.720 -0.7967  0.0937  0.4886
   16CHTO  C113 6371   4.507   3.350   0.804 -0.1168  0.2465 -0.0276
   16CHTO  H217 6372   4.468   3.397   0.897 -1.4759  1.0657 -0.9854
   16CHTO  C124 6373   4.590   3.460   0.725  0.0942 -1.1559  0.9334
   16CHTO   O83 6374   4.722   3.486   0.760  0.2009 -0.0779  0.4494
   16CHTO  H204 6375   4.737   3.497   0.852  1.8579 -2.9059  0.5807
   16CHTO  C109 6376   4.587   3.217   0.827 -0.2322 -0.5438 -0.1402
   16CHTO  H213 6377   4.622   3.184   0.727 -1.7925  0.4401 -1.0248
   16CHTO  C110 6378   4.491   3.111   0.891 -1.0448 -0.4282 -0.2630
   16CHTO  H214 6379   4.466   3.151   0.989  1.5688  1.3862 -0.2746
   16CHTO   O78 6380   4.571   2.996   0.904  0.1770  0.2592 -0.2270
   16CHTO  H200 6381   4.544   2.921   0.853  2.1368 -1.3161  0.9973
   16CHTO  C111 6382   4.363   3.098   0.801 -0.8488  0.7619  0.0866
   16CHTO  H215 6383   4.395   3.051   0.707 -1.5111 -1.3055  0.8532
   16CHTO   N19 6384   4.262   3.005   0.860 -0.0520 -0.0372  0.4452
   16CHTO  H207 6385   4.307   2.917   0.903  2.7706  1.4565  0.6821
   16CHTO  H208 6386   4.200   2.967   0.780 -1.4829  1.4557  0.8099
   16CHTO   O74 6387   4.703   3.249   0.910 -0.1249  0.4414 -0.2194
   16CHTO  C115 6388   4.825   3.160   0.901 -0.0230 -0.7090  0.2174
   16CHTO  H219 6389   4.804   3.076   0.835 -0.5220 -0.9220  0.6393
   16CHTO   O76 6390   4.940   3.233   0.828  0.3735 -0.1160  0.2655
   16CHTO  C122 6391   4.993   3.348   0.901 -0.1315  0.2249  0.5184
   16CHTO  H226 6392   4.911   3.414   0.929 -0.8791 -0.6593  0.4347
   16CHTO  C126 6393   5.089   3.431   0.818 -0.6277 -0.0503  0.0739
   16CHTO   O85 6394   5.206   3.366   0.767  0.1770  0.2466  0.2267
   16CHTO  H206 6395   5.257   3.351   0.844  1.6551  0.1493 -0.7570
   16CHTO  C121 6396   5.071   3.296   1.031 -0.5362 -0.3464 -0.3909
   16CHTO  H225 6397   5.181   3.297   1.020 -0.1949 -1.1869  2.4554
   16CHTO   O81 6398   5.028   3.382   1.132 -0.7614 -0.1388 -0.4052
   16CHTO  H202 6399   4.985   3.463   1.111 -0.0618  0.6876  1.2155
   16CHTO  C119 6400   5.030   3.148   1.075  0.2935 -0.6129 -0.2336
   16CHTO  H223 6401   5.091   3.083   1.012  0.9134  0.8268 -1.1194
   16CHTO  C117 6402   4.880   3.117   1.047  0.6098  0.5322  0.3365
   16CHTO  H221 6403   4.813   3.147   1.127 -0.4064 -1.9353  0.4742
   16CHTO   N20 6404   4.868   2.967   1.053 -0.0072 -0.8666  0.0247
   16CHTO  H209 6405   4.765   2.949   1.079 -0.4435 -0.6371 -1.5122
   16CHTO  H210 6406   4.879   2.940   0.949 -1.0539 -0.1624 -0.2802
   16CHTO   O80 6407   5.085   3.095   1.221  0.6363 -0.0185  0.0797
   16CHTO  C103 6408   5.232   3.124   1.263 -0.2826 -0.7022 -0.2850
   16CHTO  H190 6409   5.285   3.168   1.178  0.0516 -0.9217 -0.1918
   16CHTO  C101 6410   5.241   3.221   1.384  0.4666  0.1995 -0.0649
   16CHTO  H188 6411   5.163   3.197   1.456 -1.7012  3.1895 -1.2982
   16CHTO   O68 6412   5.218   3.367   1.329  0.0165  0.5410 -0.3644
   16CHTO  H168 6413   5.215   3.418   1.408  1.7479 -0.0664  0.1027
   16CHTO   C99 6414   5.384   3.206   1.456  0.2838  1.2419  0.3913
   16CHTO  H186 6415   5.459   3.252   1.389  1.1417  1.3599  1.4300
   16CHTO   N17 6416   5.404   3.285   1.582 -0.2170 -0.1682 -0.5099
   16CHTO  H174 6417   5.331   3.261   1.658 -0.9625  0.6651 -0.9559
   16CHTO  H175 6418   5.507   3.278   1.611  0.5789  2.8898 -2.3520
   16CHTO   C97 6419   5.422   3.055   1.477 -0.2406 -0.5030  0.4287
   16CHTO  H184 6420   5.344   3.014   1.543 -1.0091  0.3558  0.0598
   16CHTO   O64 6421   5.420   2.994   1.349 -0.2225  0.2929  0.2464
   16CHTO  C104 6422   5.288   2.981   1.299  0.7627 -0.5563  0.4934
   16CHTO  H191 6423   5.220   2.928   1.365 -0.7124 -0.1612 -0.6678
   16CHTO  C108 6424   5.282   2.889   1.174 -0.2831 -0.3089  0.1955
   16CHTO   O71 6425   5.163   2.815   1.146 -0.7696 -0.4872  0.0196
   16CHTO  H171 6426   5.099   2.870   1.106 -0.2667  0.2687  0.2395
   16CHTO   O62 6427   5.555   3.020   1.519  0.2751  0.8845 -0.1822
   16CHTO   C91 6428   5.593   2.897   1.580 -0.7695  0.0174  0.6463
   16CHTO  H178 6429   5.695   2.897   1.617 -0.4268  2.6041 -0.1925
   16CHTO   C92 6430   5.587   2.773   1.481  0.3642  0.4678 -0.0811
   16CHTO  H179 6431   5.484   2.750   1.449  0.8240  0.3856 -1.5373
   16CHTO   O66 6432   5.647   2.813   1.361 -0.4448 -0.4260 -0.0853
   16CHTO  H166 6433   5.739   2.830   1.375 -0.3551 -1.1384  0.2450
   16CHTO   C93 6434   5.663   2.649   1.552 -0.3455 -0.0750  0.6136
   16CHTO  H180 6435   5.767   2.684   1.560 -0.0633 -1.3663  3.3122
   16CHTO   N16 6436   5.670   2.530   1.462 -0.5646 -0.5448 -0.0580
   16CHTO  H172 6437   5.702   2.563   1.365  0.1607  0.7826  0.6039
   16CHTO  H173 6438   5.736   2.455   1.503  0.6084 -0.7268 -2.2364
   16CHTO   C94 6439   5.592   2.624   1.693  0.6203  0.1904  0.2667
   16CHTO  H181 6440   5.490   2.589   1.679  1.1980 -1.2496 -0.3823
   16CHTO   O61 6441   5.592   2.747   1.765 -0.1000  0.0744  0.8291
   16CHTO   C95 6442   5.517   2.858   1.712  0.4915  0.2808 -0.0790
   16CHTO  H182 6443   5.414   2.827   1.694  0.2440  1.5327 -0.8878
   16CHTO  C106 6444   5.520   2.977   1.815 -0.0196 -0.0411 -0.5441
   16CHTO   O69 6445   5.505   2.937   1.950  0.3641 -0.2218  0.0920
   16CHTO  H169 6446   5.530   3.002   2.012 -0.9743  1.2700 -0.8588
   16CHTO   O63 6447   5.704   2.530   1.777  0.0971 -0.1539 -0.3085
   16CHTO   C96 6448   5.643   2.389   1.843  0.4829 -0.7021 -0.0521
   16CHTO  H183 6449   5.717   2.343   1.908  1.0089  0.1221 -0.0659
   16CHTO   C98 6450   5.607   2.272   1.746  1.0443 -0.2556 -0.4508
   16CHTO  H185 6451   5.562   2.312   1.655  2.6228  1.7835 -0.3806
   16CHTO   O67 6452   5.726   2.213   1.695 -0.3265  0.3802  0.3608
   16CHTO  H167 6453   5.723   2.120   1.684 -2.3153  0.6711 -1.8735
   16CHTO  C102 6454   5.528   2.158   1.824  0.1069  0.3180  0.3867
   16CHTO  H189 6455   5.599   2.125   1.901  1.2588  1.0431 -0.3550
   16CHTO   N18 6456   5.488   2.031   1.751 -0.0511  0.0944 -0.5962
   16CHTO  H176 6457   5.575   1.973   1.722  0.4839  0.0225  1.0613
   16CHTO  H177 6458   5.440   2.072   1.664 -1.5235  0.4712  0.3812
   16CHTO  C105 6459   5.404   2.223   1.893 -0.1056 -0.1889  0.4054
   16CHTO  H192 6460   5.353   2.286   1.820  0.0762  0.6313  0.9802
   16CHTO   O65 6461   5.459   2.308   1.992 -0.2513 -0.2273 -0.7024
   16CHTO  C100 6462   5.524   2.425   1.940 -0.1781  0.1198  0.5414
   16CHTO  H187 6463   5.446   2.480   1.884 -0.7998  0.9485  2.2038
   16CHTO  C107 6464   5.568   2.522   2.050 -0.3321  0.3582 -0.0855
   16CHTO   O70 6465   5.696   2.499   2.108 -0.4202 -0.0914  0.1927
   16CHTO  H170 6466   5.755   2.495   2.035 -1.2496 -1.1072 -0.4377
   16CHTO   O57 6467   5.295   2.113   1.949 -0.1019  0.3133 -0.1966
   16CHTO   C85 6468   5.157   2.154   1.942 -0.0075  0.1071 -0.1571
   16CHTO  H157 6469   5.143   2.209   1.847  1.7361  0.5960 -0.1435
   16CHTO   C83 6470   5.113   2.258   2.057  0.4448  0.0297  0.7918
   16CHTO  H155 6471   5.171   2.349   2.048 -2.3761  1.9356  1.2097
   16CHTO   O56 6472   5.131   2.207   2.184 -0.6920 -0.0861 -0.6204
   16CHTO  H135 6473   5.057   2.169   2.228  1.2687 -1.2956  1.8411
   16CHTO   C81 6474   4.966   2.296   2.020  0.5601  0.1178 -1.0247
   16CHTO  H153 6475   4.970   2.345   1.922 -0.5687  2.3634  0.0031
   16CHTO   N14 6476   4.906   2.398   2.107 -0.3542 -0.2891  0.0382
   16CHTO  H141 6477   4.969   2.484   2.101  1.9365 -1.9576 -1.0828
   16CHTO  H142 6478   4.898   2.362   2.208  3.1138  0.9187  0.8287
   16CHTO   C79 6479   4.874   2.169   2.010 -0.0172  0.1438  0.4141
   16CHTO  H151 6480   4.781   2.207   1.970  1.3870  0.1181 -3.0962
   16CHTO   O52 6481   4.919   2.071   1.915  0.2179  0.8727  0.1708
   16CHTO   C86 6482   5.060   2.034   1.949 -0.1275 -0.1134  0.3295
   16CHTO  H158 6483   5.042   1.988   2.048  0.0337  1.4897  1.1311
   16CHTO   C90 6484   5.106   1.924   1.859  0.3771 -0.2642 -0.0411
   16CHTO   O60 6485   5.115   1.960   1.720  0.1359  0.4434 -0.3980
   16CHTO  H138 6486   5.115   1.885   1.663  0.1904  1.8246 -2.2392
   16CHTO   O50 6487   4.839   2.101   2.131 -0.3425  0.3019  0.4848
   16CHTO   C73 6488   4.758   1.992   2.177 -0.1809  0.4501 -0.2629
   16CHTO  H145 6489   4.808   1.896   2.159 -1.7034 -0.5999  0.9496
   16CHTO   C74 6490   4.619   1.986   2.103  0.4675 -0.5992  0.1853
   16CHTO  H146 6491   4.637   1.982   1.994 -0.2068 -0.0713  0.0492
   16CHTO   O54 6492   4.539   1.866   2.124 -0.2211 -0.0988  0.0961
   16CHTO  H133 6493   4.497   1.857   2.207  0.4720  0.6580  0.5454
   16CHTO   C75 6494   4.541   2.120   2.140 -0.0479 -0.0690  0.3094
   16CHTO  H147 6495   4.601   2.206   2.106  0.8494 -0.8246 -0.0288
   16CHTO   N13 6496   4.411   2.138   2.075 -0.0935 -0.1473  0.1307
   16CHTO  H139 6497   4.420   2.218   2.002  0.1409  0.0235  0.3470
   16CHTO  H140 6498   4.370   2.048   2.031 -0.0879 -0.3358  0.5149
   16CHTO   C76 6499   4.533   2.135   2.302  0.1788 -0.6234  0.4085
   16CHTO  H148 6500   4.467   2.055   2.336 -2.4828  1.2150 -0.3023
   16CHTO   O49 6501   4.666   2.124   2.366  0.1184  0.1501 -0.0358
   16CHTO   C77 6502   4.734   2.004   2.332 -0.8244 -0.0614  0.1059
   16CHTO  H149 6503   4.679   1.917   2.366 -1.5130  0.3032 -0.0670
   16CHTO   C88 6504   4.859   1.992   2.414 -0.1347  0.0766 -0.0223
   16CHTO   O58 6505   4.921   1.866   2.419  0.2153 -0.3360 -0.5669
   16CHTO  H136 6506   5.009   1.879   2.447 -0.4259 -1.3961  2.1280
   16CHTO   O51 6507   4.470   2.292   2.343  0.3268 -0.3520 -0.0848
   16CHTO   C78 6508   4.579   2.393   2.431 -0.1940 -0.3959  0.5463
   16CHTO  H150 6509   4.687   2.381   2.410 -0.0033  2.2556 -0.2311
   16CHTO   C80 6510   4.553   2.358   2.584  0.0041  0.1680 -0.2121
   16CHTO  H152 6511   4.443   2.345   2.592  0.0272  1.1396  1.9030
   16CHTO   O55 6512   4.586   2.224   2.616 -0.0779 -0.5809 -0.2194
   16CHTO  H134 6513   4.539   2.194   2.692  0.1655 -1.1507 -0.2879
   16CHTO   C84 6514   4.615   2.454   2.695 -0.0168 -0.2364  0.6624
   16CHTO  H156 6515   4.722   2.432   2.687  0.1773  1.5733 -2.6254
   16CHTO   N15 6516   4.558   2.429   2.838  0.2168 -0.5047  0.0923
   16CHTO  H143 6517   4.609   2.349   2.887 -1.8489 -2.2714 -0.5141
   16CHTO  H144 6518   4.553   2.519   2.895  0.7582 -0.3230 -0.1436
   16CHTO   C87 6519   4.580   2.598   2.651 -0.1664  0.3689  0.0992
   16CHTO  H159 6520   4.474   2.622   2.662 -0.0896  0.4862  0.5707
   16CHTO   O53 6521   4.614   2.621   2.496  0.2484 -0.3709  0.5484
   16CHTO   C82 6522   4.546   2.543   2.403  0.1558  0.4139 -0.4147
   16CHTO  H154 6523   4.439   2.559   2.415 -0.0463 -1.5197  0.6367
   16CHTO   C89 6524   4.593   2.580   2.259 -0.2323 -0.3497  0.0476
   16CHTO   O59 6525   4.528   2.698   2.216 -0.2796  0.1858 -0.1903
   16CHTO  H137 6526   4.577   2.766   2.258  1.2549 -1.1163  0.1928
   16CHTO   O45 6527   4.653   2.701   2.743  0.2723  0.2728 -0.7984
   16CHTO   C67 6528   4.758   2.787   2.698 -0.1116  0.1074  0.1715
   16CHTO  H124 6529   4.815   2.738   2.619  1.7603  0.3183  1.3427
   16CHTO   C65 6530   4.703   2.925   2.642  0.1373 -0.0018  0.3837
   16CHTO  H122 6531   4.594   2.930   2.645 -0.0716 -1.2706 -2.9557
   16CHTO   O44 6532   4.731   2.929   2.499 -0.0736  0.0440 -0.1894
   16CHTO  H102 6533   4.707   3.015   2.470  1.3166  0.7347  0.6198
   16CHTO   C63 6534   4.751   3.044   2.727 -0.0912 -0.7460  0.3277
   16CHTO  H120 6535   4.709   3.032   2.827 -1.0472  0.4944  0.0800
   16CHTO   N11 6536   4.696   3.174   2.685  0.2100  0.0079  0.0716
   16CHTO  H108 6537   4.593   3.160   2.662  0.2481 -2.9927  1.5218
   16CHTO  H109 6538   4.707   3.244   2.765  0.1211  0.5046 -0.3505
   16CHTO   C61 6539   4.904   3.044   2.732  0.1116  0.0469  0.3551
   16CHTO  H118 6540   4.915   3.116   2.814  2.2336 -0.4016  0.5185
   16CHTO   O40 6541   4.969   2.911   2.784  0.3714  0.2854  0.0449
   16CHTO   C68 6542   4.866   2.807   2.817  0.6906  0.0814  0.0443
   16CHTO  H125 6543   4.805   2.826   2.907 -2.4425 -1.5553 -1.6505
   16CHTO   C72 6544   4.938   2.667   2.837 -0.6692  0.1391 -0.3578
   16CHTO   O48 6545   5.006   2.655   2.966  0.1665  0.8780 -0.0703
   16CHTO  H105 6546   5.100   2.661   2.959  0.3197 -0.0287  1.0216
   16CHTO   O38 6547   4.983   3.089   2.620 -0.1848  0.4094 -0.1562
   16CHTO   C55 6548   5.114   3.153   2.659 -0.1805 -0.4177  0.1264
   16CHTO  H112 6549   5.144   3.111   2.756  1.1397  0.9418  0.3173
   16CHTO   C56 6550   5.121   3.310   2.662 -0.4733 -0.1225 -0.1647
   16CHTO  H113 6551   5.100   3.329   2.556 -0.1549  0.5863 -0.1061
   16CHTO   O42 6552   5.016   3.354   2.761  0.6294 -0.3544  0.2019
   16CHTO  H100 6553   4.963   3.420   2.720 -1.6151 -0.0591  3.4450
   16CHTO   C57 6554   5.266   3.366   2.702  0.1185 -0.1330 -0.1900
   16CHTO  H114 6555   5.279   3.312   2.796 -1.0337  1.3745  0.8598
   16CHTO   N10 6556   5.280   3.516   2.705  0.1083 -0.3765 -0.1162
   16CHTO  H106 6557   5.379   3.536   2.670  0.1981  0.4594  0.6039
   16CHTO  H107 6558   5.213   3.554   2.630 -2.0998  0.2414  2.0954
   16CHTO   C58 6559   5.354   3.294   2.597  0.2276 -0.0613 -0.4160
   16CHTO  H115 6560   5.333   3.334   2.496  0.7345  1.3287  0.0262
   16CHTO   O37 6561   5.352   3.152   2.605 -0.3871  0.0883 -0.6101
   16CHTO   C59 6562   5.226   3.094   2.566 -0.2178 -0.4453  0.3547
   16CHTO  H116 6563   5.205   3.107   2.460  2.0874  0.9588  0.0472
   16CHTO   C70 6564   5.235   2.940   2.578 -0.4395 -0.1812  0.0997
   16CHTO   O46 6565   5.256   2.900   2.718 -0.1930 -0.1638  0.0898
   16CHTO  H103 6566   5.178   2.853   2.743  1.0060 -1.4470  1.5014
   16CHTO   O39 6567   5.513   3.315   2.645  0.6828  0.4235  0.5514
   16CHTO   C60 6568   5.597   3.372   2.537 -0.7308 -0.4980  0.3561
   16CHTO  H117 6569   5.531   3.372   2.450  0.5766 -1.0067 -0.6408
   16CHTO   C62 6570   5.653   3.512   2.575  0.0369 -0.6493  0.5849
   16CHTO  H119 6571   5.556   3.566   2.582  0.2754 -0.4897  3.0541
   16CHTO   O43 6572   5.722   3.507   2.706  0.1344  0.1160  0.0623
   16CHTO  H101 6573   5.788   3.573   2.714  0.4967 -0.1733 -0.5360
   16CHTO   C66 6574   5.739   3.576   2.455  0.2227  0.0377  0.3439
   16CHTO  H123 6575   5.682   3.582   2.362 -0.7154 -0.9211  0.8506
   16CHTO   N12 6576   5.777   3.714   2.485  0.3033 -0.1394 -0.3014
   16CHTO  H110 6577   5.692   3.765   2.528  0.0555 -1.2208  0.5184
   16CHTO  H111 6578   5.804   3.776   2.400 -0.0902  0.3536 -0.0658
   16CHTO   C69 6579   5.850   3.479   2.422 -0.1251  0.3052 -0.5989
   16CHTO  H126 6580   5.911   3.470   2.515  0.0888  2.5071 -0.4938
   16CHTO   O41 6581   5.785   3.330   2.398  0.4278  0.1024 -0.5339
   16CHTO   C64 6582   5.719   3.280   2.501 -0.8285 -0.2774  0.7050
   16CHTO  H121 6583   5.782   3.287   2.592  0.8113  0.7422 -0.4735
   16CHTO   C71 6584   5.674   3.129   2.472  0.0916  0.0574 -0.3778
   16CHTO   O47 6585   5.775   3.032   2.489 -0.8571  0.4327 -0.1390
   16CHTO  H104 6586   5.727   2.952   2.473  0.1506  0.3996 -3.1306
   16CHTO   O34 6587   5.939   3.514   2.293  0.4480 -0.5401  0.2165
   16CHTO   C49 6588   6.044   3.409   2.238 -0.3234 -0.0710 -0.7866
   16CHTO   H91 6589   6.016   3.324   2.301 -3.7181  3.2510  2.4251
   16CHTO   C47 6590   6.186   3.460   2.270  1.0346  0.0270  0.6896
   16CHTO   H89 6591   6.195   3.448   2.380 -0.7534  0.4441  0.8952
   16CHTO   O33 6592   6.191   3.598   2.235 -0.1504  0.0594 -0.0760
   16CHTO   H70 6593   6.271   3.637   2.266 -1.4551  3.4099 -0.7488
   16CHTO   C45 6594   6.290   3.384   2.181  0.2051  0.0865  0.2148
   16CHTO   H87 6595   6.310   3.451   2.096 -0.2552 -1.6619 -1.3083
   16CHTO    N8 6596   6.410   3.371   2.260 -0.1063  0.6347 -0.6004
   16CHTO   H75 6597   6.404   3.285   2.324 -0.3404 -0.4446 -2.0559
   16CHTO   H76 6598   6.433   3.469   2.300 -1.5615  0.8728 -0.3184
   16CHTO   C43 6599   6.235   3.259   2.102  0.3632 -0.2078 -0.7410
   16CHTO   H85 6600   6.317   3.217   2.043  0.0248  0.2282 -1.5327
   16CHTO   O29 6601   6.122   3.296   2.021 -0.4237 -0.5163 -0.5598
   16CHTO   C50 6602   6.028   3.383   2.086  0.0470  1.0355 -0.0099
   16CHTO   H92 6603   6.044   3.478   2.032  1.4991  0.4599 -0.6164
   16CHTO   C54 6604   5.887   3.337   2.036 -0.8751  0.0331  0.0088
   16CHTO   O36 6605   5.861   3.373   1.898 -0.1389 -0.5382  0.5303
   16CHTO   H72 6606   5.819   3.296   1.866 -0.0447  0.7727 -3.0104
   16CHTO   O27 6607   6.203   3.149   2.180  0.1942  0.3271  0.0717
   16CHTO   C37 6608   6.157   3.011   2.197  0.2662 -0.5511  0.1241
   16CHTO   H79 6609   6.161   2.979   2.302 -0.2513  1.4018  0.7617
   16CHTO   C38 6610   6.007   3.000   2.157  0.1272 -0.2035  0.3358
   16CHTO   H80 6611   6.000   3.035   2.053  1.0988  1.1930  0.7229
   16CHTO   O31 6612   5.927   3.075   2.255 -0.0500 -0.9131  0.7713
   16CHTO   H68 6613   5.979   3.101   2.328  1.2688  1.4803 -0.9269
   16CHTO   C39 6614   5.956   2.854   2.152 -0.0312  0.7389 -0.5201
   16CHTO   H81 6615   5.949   2.814   2.253  1.6294 -0.1130 -0.7214
   16CHTO    N7 6616   5.825   2.839   2.082 -0.0390  0.1912 -0.0471
   16CHTO   H73 6617   5.742   2.808   2.143  0.8519 -0.8613  0.6561
   16CHTO   H74 6618   5.820   2.910   2.001  0.8715  1.5811  1.0926
   16CHTO   C40 6619   6.054   2.755   2.091 -0.7463 -0.5725  0.2056
   16CHTO   H82 6620   6.050   2.752   1.982 -2.8923  2.8733  0.1323
   16CHTO   O26 6621   6.193   2.779   2.144 -0.2793 -0.5977  0.3389
   16CHTO   C41 6622   6.249   2.912   2.112 -0.1853 -0.1866  0.9458
   16CHTO   H83 6623   6.236   2.928   2.004  0.5569 -1.3703  0.6653
   16CHTO   C52 6624   6.395   2.934   2.169  0.1713  0.0481  0.5810
   16CHTO   O35 6625   6.475   2.808   2.173  0.9125 -0.1761 -0.1038
   16CHTO   H71 6626   6.504   2.777   2.090  1.0984  1.7245 -0.7697
   16CHTO   O28 6627   6.025   2.618   2.123 -0.4177  0.2669  0.5004
   16CHTO   C42 6628   6.104   2.510   2.062 -0.7000 -0.3533  0.2614
   16CHTO   H84 6629   6.208   2.541   2.065 -0.6423 -0.5255  0.0659
   16CHTO   C44 6630   6.076   2.489   1.917  0.1111  0.2696  0.7981
   16CHTO   H86 6631   5.968   2.494   1.899  0.3304 -0.2653 -0.7567
   16CHTO   O32 6632   6.128   2.593   1.836 -0.0965  0.4276 -0.5969
   16CHTO   H69 6633   6.097   2.680   1.852 -1.3349 -0.2652  0.8502
   16CHTO   C48 6634   6.129   2.352   1.861  0.7965  0.0600  0.5381
   16CHTO   H90 6635   6.235   2.372   1.845  0.8245  2.0772  2.8917
   16CHTO    N9 6636   6.065   2.325   1.728  0.1446 -0.1792 -0.6763
   16CHTO   H77 6637   5.967   2.280   1.734  0.4691 -1.0718 -1.8786
   16CHTO   H78 6638   6.059   2.415   1.668  0.3935 -1.3648 -2.5005
   16CHTO   C51 6639   6.100   2.231   1.960  0.3157  0.1599 -0.1913
   16CHTO   H93 6640   5.992   2.230   1.969  0.3055  0.4414 -0.2529
   16CHTO   O30 6641   6.165   2.259   2.087  0.2901  0.2018  0.5365
   16CHTO   C46 6642   6.084   2.383   2.150 -0.9470 -0.1971 -0.3164
   16CHTO   H88 6643   5.979   2.355   2.152 -1.0755  0.2772 -0.3236
   16CHTO   C53 6644   6.144   2.413   2.287 -0.1640  0.2936 -0.8908
   16CHTO   O72 6645   6.118   2.321   2.392  0.1296  0.1248 -0.1858
   16CHTO  H199 6646   6.121   2.366   2.474 -1.2259  0.2807 -0.2031
   16CHTO   O22 6647   6.145   2.101   1.923  0.1208 -0.1091 -0.5937
   16CHTO   C31 6648   6.126   1.974   2.005 -0.8616 -0.0680 -0.1526
   16CHTO   H59 6649   6.081   2.000   2.103 -0.0933 -2.1807  0.7792
   16CHTO   C29 6650   6.028   1.877   1.934  0.0359  1.0650 -0.1798
   16CHTO   H57 6651   6.072   1.843   1.839 -0.0039  1.1632 -0.2339
   16CHTO   O21 6652   5.908   1.950   1.887 -0.3885  0.0494  0.0631
   16CHTO   H37 6653   5.925   2.033   1.846 -1.0749  0.4091  0.4894
   16CHTO   C27 6654   5.997   1.751   2.024 -0.2412 -0.2910 -0.2238
   16CHTO   H55 6655   5.946   1.781   2.116  1.0373  1.1246  0.0567
   16CHTO    N5 6656   5.912   1.653   1.947  0.3621  0.7481  0.3274
   16CHTO   H43 6657   5.912   1.556   1.994  2.1159  0.4578 -0.2261
   16CHTO   H44 6658   5.929   1.655   1.840 -1.6535  3.6525 -0.0189
   16CHTO   C25 6659   6.133   1.685   2.072  0.0496  0.6657  0.4524
   16CHTO   H53 6660   6.191   1.639   1.991  1.0928  2.2703  0.2547
   16CHTO   O17 6661   6.224   1.786   2.129  0.0510  0.6541 -0.6111
   16CHTO   C32 6662   6.259   1.893   2.041 -0.5861  0.4463  0.2992
   16CHTO   H60 6663   6.297   1.838   1.955 -0.9232  0.1452  0.3395
   16CHTO   C36 6664   6.374   1.976   2.112 -0.2276 -0.3493  0.1101
   16CHTO   O25 6665   6.502   1.903   2.113 -0.0406  0.1706  0.0495
   16CHTO   H40 6666   6.505   1.836   2.047 -1.0558  0.2707 -0.0977
   16CHTO   O15 6667   6.110   1.582   2.176  0.5193 -0.5956 -0.0829
   16CHTO   C19 6668   6.049   1.479   2.257  1.1421 -0.5236 -1.1465
   16CHTO   H47 6669   6.131   1.423   2.304  1.5365  1.2850  0.4215
   16CHTO   C20 6670   5.950   1.546   2.365 -0.5461  0.3180  0.2341
   16CHTO   H48 6671   5.871   1.603   2.314 -1.3476 -0.7877  0.2220
   16CHTO   O19 6672   6.031   1.633   2.441  0.5556  0.3046 -0.5552
   16CHTO   H35 6673   5.973   1.666   2.506 -0.4033 -0.3250 -1.0663
   16CHTO   C21 6674   5.867   1.438   2.445  0.4557  0.1134 -0.5509
   16CHTO   H49 6675   5.935   1.378   2.506 -1.0547  0.1927  1.2766
   16CHTO    N4 6676   5.762   1.489   2.532  0.1280  0.0569 -0.1058
   16CHTO   H41 6677   5.794   1.567   2.600  2.2364 -0.9461  0.1055
   16CHTO   H42 6678   5.717   1.409   2.589 -1.4951  0.5335 -0.7091
   16CHTO   C22 6679   5.810   1.339   2.337  0.0565 -0.3628 -0.6584
   16CHTO   H50 6680   5.750   1.402   2.272  0.5775  1.5226  0.6569
   16CHTO   O14 6681   5.916   1.270   2.262  0.4635 -0.1827 -0.3767
   16CHTO   C23 6682   5.970   1.371   2.172 -0.4384 -0.6259  0.5430
   16CHTO   H51 6683   5.886   1.414   2.115  1.0757  1.5810 -0.1152
   16CHTO   C34 6684   6.057   1.306   2.062  0.2447  0.1451  0.3837
   16CHTO   O23 6685   6.130   1.189   2.101 -0.1077  0.3805 -0.3816
   16CHTO   H38 6686   6.073   1.123   2.135  1.6453 -0.8925  0.1665
   16CHTO   O16 6687   5.723   1.234   2.392  0.5414 -0.5460 -0.7251
   16CHTO   C24 6688   5.615   1.154   2.284  0.5877 -0.1324  0.1814
   16CHTO   H52 6689   5.642   1.168   2.179 -0.2610  0.5795  0.0542
   16CHTO   C26 6690   5.471   1.214   2.309 -0.3985  0.0384  0.4561
   16CHTO   H54 6691   5.454   1.215   2.419 -1.3112 -0.7671  0.3280
   16CHTO   O20 6692   5.481   1.354   2.276 -0.2273  0.2796  0.4203
   16CHTO   H36 6693   5.553   1.391   2.322 -1.9560  1.1105  2.5479
   16CHTO   C30 6694   5.363   1.134   2.235 -0.1078  0.2568 -0.2760
   16CHTO   H58 6695   5.370   1.145   2.125 -0.2119 -1.3708 -0.4479
   16CHTO    N6 6696   5.227   1.178   2.279 -0.3850 -0.3899 -0.2384
   16CHTO   H45 6697   5.204   1.281   2.256 -1.3293 -0.6967 -0.6691
   16CHTO   H46 6698   5.154   1.116   2.230 -0.4715  0.6139 -1.4177
   16CHTO   C33 6699   5.387   0.978   2.254  1.0675  0.1088  0.1703
   16CHTO   H61 6700   5.364   0.946   2.357  2.5717  2.7275  1.3766
   16CHTO   O18 6701   5.525   0.946   2.213  0.7819 -0.7352 -0.3575
   16CHTO   C28 6702   5.620   1.001   2.305  1.0255  0.0928  0.1229
   16CHTO   H56 6703   5.595   0.987   2.410 -2.0756  0.5533 -0.5036
   16CHTO   C35 6704   5.769   0.942   2.276  0.2124 -0.3406  0.4523
   16CHTO   O24 6705   5.834   1.014   2.174  0.1806  0.3455 -0.7353
   16CHTO   H39 6706   5.895   0.958   2.131 -1.9117 -3.1748  0.6489
   16CHTO    O9 6707   5.299   0.909   2.179 -0.7726 -0.1082  0.3668
   16CHTO   C13 6708   5.288   0.735   2.232 -0.6640 -0.0710 -0.1456
   16CHTO   H26 6709   5.327   0.741   2.336 -0.2730  1.8413 -0.3845
   16CHTO   C11 6710   5.379   0.649   2.136 -0.0351 -1.0403 -0.4940
   16CHTO   H24 6711   5.484   0.662   2.167 -0.2073 -2.4135  0.7111
   16CHTO    O8 6712   5.363   0.708   2.007 -0.1350  0.4380  0.5098
   16CHTO    H3 6713   5.381   0.799   2.015  0.1197  0.2407  2.3843
   16CHTO    C9 6714   5.335   0.505   2.140 -0.3951  0.2100 -0.1611
   16CHTO   H22 6715   5.342   0.472   2.245 -1.6916 -1.9408 -0.7300
   16CHTO    N2 6716   5.423   0.408   2.067  0.4380  0.3455 -0.0248
   16CHTO   H10 6717   5.436   0.318   2.125  1.3803  0.1886 -0.4665
   16CHTO   H11 6718   5.514   0.464   2.057 -0.7651  2.5959  1.1583
   16CHTO    C7 6719   5.190   0.495   2.082 -0.3431 -0.6779 -0.4384
   16CHTO   H20 6720   5.148   0.408   2.137 -1.2551 -0.1112 -0.2185
   16CHTO    O4 6721   5.105   0.610   2.110  0.1434 -0.0973 -0.1539
   16CHTO   C14 6722   5.136   0.679   2.236  0.1522 -0.3315 -0.3685
   16CHTO   H27 6723   5.128   0.607   2.320 -1.2803 -0.8578 -0.9392
   16CHTO   C18 6724   5.022   0.780   2.252 -0.1669  0.2933 -0.1748
   16CHTO   O13 6725   5.045   0.859   2.370 -0.5097  0.4495  0.1771
   16CHTO    H7 6726   4.967   0.902   2.400  0.8634  1.4611  2.4844
   16CHTO    O2 6727   5.191   0.470   1.901  0.1713 -0.0066  0.5281
   16CHTO    C1 6728   5.071   0.499   1.821  0.3661 -0.1667  0.5467
   16CHTO   H14 6729   5.078   0.443   1.725 -1.4973 -0.2990  0.4723
   16CHTO    C2 6730   5.065   0.651   1.785 -0.0158  0.2870  0.6063
   16CHTO   H15 6731   5.079   0.709   1.876 -1.7309  1.1758  0.3273
   16CHTO    O6 6732   5.175   0.678   1.692  0.3489 -0.2344 -0.2915
   16CHTO    H1 6733   5.155   0.631   1.613 -1.0887  0.6201 -0.4647
   16CHTO    C3 6734   4.916   0.686   1.722  0.5951 -0.1303 -0.1744
   16CHTO   H16 6735   4.902   0.618   1.637 -0.5463 -1.3610  0.9800
   16CHTO    N1 6736   4.907   0.827   1.678 -0.1526  0.6327 -0.1904
   16CHTO    H8 6737   4.915   0.898   1.759  0.1616  1.1607 -0.6798
   16CHTO    H9 6738   4.826   0.855   1.613 -0.1002  2.5589  0.5348
   16CHTO    C4 6739   4.811   0.639   1.829  0.4708  0.2208  0.4434
   16CHTO   H17 6740   4.826   0.693   1.923 -3.2733 -2.1950  2.5922
   16CHTO    O1 6741   4.822   0.498   1.840  0.0045  0.1962  1.0616
   16CHTO    C5 6742   4.943   0.438   1.884  0.1704 -0.3209  0.6485
   16CHTO   H18 6743   4.955   0.447   1.991 -0.8084  1.1802  0.6328
   16CHTO   C16 6744   4.934   0.288   1.842 -0.2624  0.6693 -0.0203
   16CHTO   O11 6745   4.829   0.204   1.883 -0.4348 -0.1858 -0.2747
   16CHTO    H5 6746   4.754   0.254   1.857  0.1531  1.5331  1.1894
   16CHTO    O3 6747   4.680   0.666   1.788  0.0310  0.4876 -0.0664
   16CHTO    C6 6748   4.583   0.659   1.902 -0.2264 -0.4955  0.3959
   16CHTO   H19 6749   4.623   0.595   1.980  1.0174  1.9488  1.8405
   16CHTO    C8 6750   4.539   0.798   1.953  0.3147  0.2693  0.7504
   16CHTO   H21 6751   4.496   0.857   1.872  2.6071  0.7453 -0.1667
   16CHTO    O7 6752   4.664   0.861   1.992  0.0024 -0.4669 -0.5859
   16CHTO    H2 6753   4.682   0.823   2.076  1.4252  1.1956 -0.1088
   16CHTO   C12 6754   4.429   0.785   2.063 -0.4416  0.2937  0.3643
   16CHTO   H25 6755   4.472   0.740   2.155 -2.0060 -1.6701  0.1712
   16CHTO    N3 6756   4.382   0.914   2.123  0.3362 -0.5891  0.2118
   16CHTO   H12 6757   4.292   0.939   2.068  1.2065 -0.1042 -1.0271
   16CHTO   H13 6758   4.370   0.916   2.230  1.2283 -0.9259  0.3203
   16CHTO   C15 6759   4.305   0.702   2.005 -0.1222  0.0788  1.3833
   16CHTO   H28 6760   4.263   0.757   1.921  0.9612 -0.2990  0.5773
   16CHTO   O10 6761   4.185   0.660   2.111 -0.1161 -0.0441  0.3234
   16CHTO    H4 6762   4.236   0.662   2.190  2.2133  1.9219 -1.1262
   16CHTO    O5 6763   4.360   0.579   1.947  0.2366 -0.0375 -0.5761
   16CHTO   C10 6764   4.459   0.584   1.845 -0.5556  0.2614  0.1694
   16CHTO   H23 6765   4.415   0.637   1.761 -2.4261 -1.1658  0.1951
   16CHTO   C17 6766   4.482   0.432   1.795 -0.8832 -0.0687 -0.5081
   16CHTO   O12 6767   4.540   0.428   1.666  0.2421  0.0280  0.4574
   16CHTO    H6 6768   4.546   0.514   1.628 -1.1534  0.6261  1.5304
   17CHTO  H203 6769   3.693   4.250   1.563 -0.6414 -0.8099  0.1205
   17CHTO   O82 6770   3.645   4.324   1.594  0.2585  0.0809 -0.5726
   17CHTO  C123 6771   3.665   4.449   1.526 -0.3810  0.0413  0.0039
   17CHTO  H227 6772   3.597   4.521   1.573  0.0786  0.5432 -0.1068
   17CHTO   O77 6773   3.811   4.476   1.548  0.2669 -0.3394  0.0251
   17CHTO  C118 6774   3.865   4.590   1.484 -0.9647 -0.3192 -0.9506
   17CHTO  H222 6775   3.802   4.676   1.508  2.5163  2.3307 -0.8724
   17CHTO  C125 6776   4.011   4.615   1.545 -0.2372  0.3298  0.3183
   17CHTO   O84 6777   3.997   4.627   1.689 -0.4019  0.1430 -0.2123
   17CHTO  H205 6778   3.974   4.548   1.736 -0.3511  0.2510 -0.0049
   17CHTO  C114 6779   3.862   4.576   1.333 -0.9923 -0.4033  0.2100
   17CHTO  H218 6780   3.909   4.485   1.296 -0.8106  0.4766 -1.7815
   17CHTO  C116 6781   3.713   4.551   1.289  0.3905  0.1810  0.3538
   17CHTO  H220 6782   3.656   4.646   1.296 -0.1275 -0.2285  1.7005
   17CHTO   O79 6783   3.709   4.507   1.151 -0.1980  0.1557 -0.1048
   17CHTO  H201 6784   3.717   4.574   1.086  4.3461 -0.2465 -0.1599
   17CHTO  C120 6785   3.638   4.440   1.374  0.2324  0.1062  0.5692
   17CHTO  H224 6786   3.676   4.344   1.332  1.6647  1.0534 -0.3276
   17CHTO   N21 6787   3.491   4.450   1.351  0.0948  0.6559 -0.1511
   17CHTO  H211 6788   3.441   4.354   1.343 -1.1727  1.4638 -2.4334
   17CHTO  H212 6789   3.439   4.502   1.430  1.6796  1.4732  0.3665
   17CHTO   O75 6790   3.923   4.693   1.272 -0.0422  0.4302  0.5945
   17CHTO  C112 6791   4.019   4.649   1.127 -0.0790  0.7080  0.0639
   17CHTO  H216 6792   3.975   4.565   1.073  1.6969 -0.1218 -0.1250
   17CHTO   O73 6793   4.155   4.619   1.178 -0.0823  0.2118  0.6139
   17CHTO  C113 6794   4.255   4.593   1.072 -0.7287  0.1532 -0.2583
   17CHTO  H217 6795   4.211   4.515   1.006  0.2439 -0.0326 -0.6885
   17CHTO  C124 6796   4.364   4.506   1.132 -0.4922 -0.1017 -0.3725
   17CHTO   O83 6797   4.467   4.482   1.038  0.3372 -0.0089 -0.3202
   17CHTO  H204 6798   4.518   4.554   1.006  0.2639  0.2154  0.0587
   17CHTO  C109 6799   4.288   4.731   1.014  0.2319 -0.5157  0.8505
   17CHTO  H213 6800   4.312   4.791   1.103 -2.6180  0.9305  0.7018
   17CHTO  C110 6801   4.156   4.790   0.954  0.1246 -0.0029  0.4724
   17CHTO  H214 6802   4.138   4.756   0.853 -2.3597 -0.2763  0.9842
   17CHTO   O78 6803   4.187   4.928   0.922  0.2161  0.5750 -0.4913
   17CHTO  H200 6804   4.247   4.940   0.852 -0.2226 -1.2584 -1.2155
   17CHTO  C111 6805   4.039   4.788   1.050 -0.8227  0.3177 -0.1512
   17CHTO  H215 6806   4.058   4.870   1.122  1.6013 -1.5811  1.4892
   17CHTO   N19 6807   3.908   4.820   0.988 -0.2833  0.3021  0.0310
   17CHTO  H207 6808   3.843   4.837   1.073 -0.3204  0.9112 -0.1127
   17CHTO  H208 6809   3.877   4.732   0.935  0.7289  0.0591 -0.1660
   17CHTO   O74 6810   4.396   4.730   0.918  0.5683 -0.5880  0.1170
   17CHTO  C115 6811   4.548   4.771   0.964  0.1615  0.5554 -0.0107
   17CHTO  H219 6812   4.555   4.772   1.073 -2.9032 -0.4299  0.2546
   17CHTO   O76 6813   4.656   4.654   0.922  0.2210  0.4156 -0.3124
   17CHTO  C122 6814   4.793   4.681   0.962  0.1062  0.2353 -0.1404
   17CHTO  H226 6815   4.856   4.608   0.911  1.2675 -0.7835  2.6480
   17CHTO  C126 6816   4.812   4.665   1.114  0.6935  0.5024 -0.7191
   17CHTO   O85 6817   4.814   4.527   1.161 -0.0033 -0.2817 -0.4096
   17CHTO  H206 6818   4.904   4.506   1.177 -0.1960 -0.4812  0.4829
   17CHTO  C121 6819   4.840   4.816   0.902  0.4150 -0.3904 -0.0564
   17CHTO  H225 6820   4.943   4.828   0.941  0.9929 -0.7615 -1.4136
   17CHTO   O81 6821   4.852   4.810   0.756  0.1127 -0.3938  0.3017
   17CHTO  H202 6822   4.929   4.856   0.729  2.5385 -1.3734  5.1428
   17CHTO  C119 6823   4.754   4.938   0.939  0.0004 -0.9005 -0.0380
   17CHTO  H223 6824   4.766   4.946   1.047 -0.9304 -1.4070  0.1053
   17CHTO  C117 6825   4.603   4.910   0.905  0.4686  0.7616  0.1769
   17CHTO  H221 6826   4.595   4.891   0.797  2.0388  1.6677 -0.1242
   17CHTO   N20 6827   4.514   5.027   0.937 -0.1821 -0.3535 -0.0015
   17CHTO  H209 6828   4.467   5.014   1.034  0.5398  1.9753  0.6808
   17CHTO  H210 6829   4.447   5.044   0.854 -0.7191  0.4751  0.5978
   17CHTO   O80 6830   4.819   5.080   0.883  0.0258  0.2238  0.0319
   17CHTO  C103 6831   4.905   5.169   0.971  0.2028  0.2654 -0.4694
   17CHTO  H190 6832   4.880   5.158   1.077  1.0662 -0.6855 -0.3528
   17CHTO  C101 6833   5.058   5.130   0.958  0.3323  0.3449 -0.2167
   17CHTO  H188 6834   5.092   5.136   0.855  2.1280  0.9292  0.3871
   17CHTO   O68 6835   5.093   4.988   1.014  0.6270 -0.2492  0.3085
   17CHTO  H168 6836   5.045   4.920   0.970 -0.4210 -2.3248  4.4071
   17CHTO   C99 6837   5.140   5.239   1.036  0.1550 -0.1045  0.4250
   17CHTO  H186 6838   5.122   5.237   1.146  2.7246 -0.1968  0.8887
   17CHTO   N17 6839   5.293   5.219   1.020  0.2571  1.4834 -0.2762
   17CHTO  H174 6840   5.317   5.156   0.936 -0.2380 -1.2018  1.5509
   17CHTO  H175 6841   5.333   5.185   1.115 -4.1319  1.2395  1.6040
   17CHTO   C97 6842   5.107   5.383   0.984  0.0826  0.6774 -0.3544
   17CHTO  H184 6843   5.132   5.410   0.880 -2.1975 -3.2296 -2.0238
   17CHTO   O64 6844   4.968   5.403   1.008  0.8765 -0.0291  0.1162
   17CHTO  C104 6845   4.878   5.319   0.939  0.1006  0.4831  0.2811
   17CHTO  H191 6846   4.883   5.335   0.832  0.2403 -1.1796  0.0375
   17CHTO  C108 6847   4.737   5.367   0.979  0.4404 -0.5696 -0.0312
   17CHTO   O71 6848   4.695   5.487   0.911 -0.2192 -0.0725 -0.5008
   17CHTO  H171 6849   4.677   5.469   0.821 -0.6408 -0.6334 -0.3048
   17CHTO   O62 6850   5.153   5.483   1.079 -0.1000  0.5740  0.4382
   17CHTO   C91 6851   5.181   5.623   1.042  0.1426 -0.8763  0.0648
   17CHTO  H178 6852   5.199   5.628   0.935 -2.4620 -1.2518 -0.4235
   17CHTO   C92 6853   5.315   5.656   1.104 -0.2001 -0.3525  0.3995
   17CHTO  H179 6854   5.313   5.645   1.214 -0.3586 -1.7925  0.2547
   17CHTO   O66 6855   5.411   5.552   1.065  0.1497 -0.3417 -0.0802
   17CHTO  H166 6856   5.413   5.474   1.118 -2.4647 -1.7435 -1.9273
   17CHTO   C93 6857   5.361   5.802   1.053  1.0489  0.1660 -0.0926
   17CHTO  H180 6858   5.375   5.800   0.944  0.6681 -1.6225 -0.1128
   17CHTO   N16 6859   5.491   5.840   1.118  0.4415  0.0103 -0.0326
   17CHTO  H172 6860   5.496   5.948   1.118  1.1564  0.0028  1.8123
   17CHTO  H173 6861   5.487   5.803   1.220 -0.3372 -0.4036 -0.2083
   17CHTO   C94 6862   5.252   5.904   1.091 -0.1228  0.2631  0.4984
   17CHTO  H181 6863   5.239   5.908   1.199  0.0628  1.5593  0.4776
   17CHTO   O61 6864   5.128   5.867   1.030 -0.4555 -0.2271  0.0214
   17CHTO   C95 6865   5.081   5.739   1.072 -0.1110  0.4168 -0.0439
   17CHTO  H182 6866   5.050   5.748   1.176 -0.7779 -1.5662 -0.0478
   17CHTO  C106 6867   4.956   5.713   0.983  0.3985 -0.0030  0.4156
   17CHTO   O69 6868   4.837   5.737   1.054 -0.1809  0.5767  0.3386
   17CHTO  H169 6869   4.764   5.711   1.002 -1.6580 -0.5475  2.9120
   17CHTO   O63 6870   5.282   6.045   1.046 -0.0608  0.1507 -0.0680
   17CHTO   C96 6871   5.236   6.169   1.152 -0.3893  0.1756  0.1293
   17CHTO  H183 6872   5.251   6.132   1.254 -0.3957  1.1138  0.4762
   17CHTO   C98 6873   5.089   6.217   1.149 -0.4663 -0.4402 -0.0671
   17CHTO  H185 6874   5.085   6.271   1.053 -1.3465  0.0883  0.2561
   17CHTO   O67 6875   5.004   6.106   1.142 -0.3421 -0.0965  0.0630
   17CHTO  H167 6876   5.023   6.038   1.204 -3.5603 -1.0000  0.0912
   17CHTO  C102 6877   5.069   6.320   1.272 -0.4005 -0.4758 -0.5414
   17CHTO  H189 6878   5.091   6.262   1.363 -2.5808 -0.8827 -0.2436
   17CHTO   N18 6879   4.928   6.373   1.293  0.1099  0.1568  0.2621
   17CHTO  H176 6880   4.870   6.370   1.201 -2.0001 -1.0885  1.5876
   17CHTO  H177 6881   4.880   6.332   1.381 -0.2706  0.8220  0.3696
   17CHTO  C105 6882   5.178   6.431   1.271 -0.4866 -0.4699  0.4014
   17CHTO  H192 6883   5.154   6.511   1.200 -1.0471 -1.8514 -0.9925
   17CHTO   O65 6884   5.312   6.383   1.251 -0.2452  0.1283 -0.1260
   17CHTO  C100 6885   5.337   6.291   1.140  0.0033  0.1147 -0.2104
   17CHTO  H187 6886   5.308   6.351   1.052 -2.2921  1.7762  1.5933
   17CHTO  C107 6887   5.480   6.253   1.126 -0.8123  0.3398  0.4059
   17CHTO   O70 6888   5.521   6.197   0.996 -0.0354  0.1348  0.2303
   17CHTO  H170 6889   5.524   6.104   0.985 -1.7376 -0.0534  1.2067
   17CHTO   O57 6890   5.169   6.478   1.427 -0.0651 -0.3398 -0.0585
   17CHTO   C85 6891   5.271   6.563   1.479 -0.2836 -0.5190 -0.2407
   17CHTO  H157 6892   5.326   6.622   1.403  1.2155  1.1354  2.0565
   17CHTO   C83 6893   5.385   6.473   1.548  0.4048  1.2777 -0.2539
   17CHTO  H155 6894   5.434   6.416   1.468 -2.0178 -0.2052 -0.7531
   17CHTO   O56 6895   5.329   6.383   1.642  0.2662 -0.2779  0.0789
   17CHTO  H135 6896   5.385   6.321   1.686  0.4691 -0.4794 -0.4610
   17CHTO   C81 6897   5.484   6.576   1.605 -0.7216 -0.3408 -0.1190
   17CHTO  H153 6898   5.513   6.649   1.530  0.5482 -2.3397 -1.6224
   17CHTO   N14 6899   5.619   6.516   1.632  0.1652  0.4172  0.0996
   17CHTO  H141 6900   5.703   6.569   1.592 -0.7680 -0.2397 -2.9135
   17CHTO  H142 6901   5.637   6.494   1.735 -1.8269 -3.3808 -0.2710
   17CHTO   C79 6902   5.418   6.644   1.723  0.9657 -0.8101 -0.6026
   17CHTO  H151 6903   5.487   6.718   1.765 -1.0958 -0.1460  1.7333
   17CHTO   O52 6904   5.300   6.729   1.671  0.1775  0.2117 -0.2599
   17CHTO   C86 6905   5.210   6.653   1.589  0.0935 -0.4071  0.0463
   17CHTO  H158 6906   5.152   6.589   1.658  0.5766  1.4432  2.2012
   17CHTO   C90 6907   5.109   6.749   1.521 -0.4334  0.9766  0.1932
   17CHTO   O60 6908   4.994   6.694   1.451 -0.3617  0.6153 -0.2799
   17CHTO  H138 6909   4.914   6.701   1.499 -0.3344 -0.6563 -0.0483
   17CHTO   O50 6910   5.383   6.553   1.819  0.2900  0.4186 -0.8590
   17CHTO   C73 6911   5.387   6.571   1.967 -0.2477  0.7084 -0.0323
   17CHTO  H145 6912   5.429   6.671   1.988  0.4481  1.1888 -3.3662
   17CHTO   C74 6913   5.465   6.460   2.027  0.2734 -0.7379 -0.2265
   17CHTO  H146 6914   5.571   6.463   1.999  0.2329 -0.7661 -0.3909
   17CHTO   O54 6915   5.472   6.477   2.169  0.0064  0.0895 -0.1621
   17CHTO  H133 6916   5.538   6.416   2.197  0.1549  0.3869  0.1452
   17CHTO   C75 6917   5.399   6.322   1.990 -0.6306 -0.9130  0.7640
   17CHTO  H147 6918   5.400   6.308   1.881 -0.6930  0.0691  0.6358
   17CHTO   N13 6919   5.468   6.197   2.046  0.9175  0.0660 -0.1708
   17CHTO  H139 6920   5.574   6.208   2.066  1.1170 -2.0179  0.0634
   17CHTO  H140 6921   5.410   6.166   2.132 -2.2507  0.4798 -2.0992
   17CHTO   C76 6922   5.247   6.322   2.031  0.6544  0.5621 -0.2045
   17CHTO  H148 6923   5.252   6.315   2.140  0.5909  1.6496 -0.1177
   17CHTO   O49 6924   5.174   6.442   1.984  0.4407  0.6123  0.4611
   17CHTO   C77 6925   5.237   6.562   2.019 -0.3797  0.6771  0.2822
   17CHTO  H149 6926   5.234   6.573   2.127  0.2248 -0.5755  0.4377
   17CHTO   C88 6927   5.145   6.674   1.971  0.1768  0.3566  0.3758
   17CHTO   O58 6928   5.187   6.797   2.021 -0.3624 -0.0197  0.2376
   17CHTO  H136 6929   5.149   6.817   2.105 -1.5333 -2.5803  0.3802
   17CHTO   O51 6930   5.160   6.194   1.951 -0.0322  0.0141  0.0572
   17CHTO   C78 6931   5.004   6.187   1.978 -0.0091  0.2942 -0.2338
   17CHTO  H150 6932   4.970   6.289   2.003 -0.9509  0.0617 -0.5166
   17CHTO   C80 6933   4.963   6.096   2.098 -0.0681  0.3319  0.9283
   17CHTO  H152 6934   5.015   5.999   2.084 -2.3002 -0.6832 -0.5035
   17CHTO   O55 6935   5.002   6.160   2.221  0.0644  0.2540 -0.0513
   17CHTO  H134 6936   4.964   6.244   2.239  0.6509  0.6107 -0.4372
   17CHTO   C84 6937   4.802   6.079   2.103  0.2055 -0.1045 -0.5211
   17CHTO  H156 6938   4.765   6.176   2.136  0.6430 -0.2512  0.4274
   17CHTO   N15 6939   4.753   5.983   2.215  0.2928  0.3411  0.0276
   17CHTO  H143 6940   4.700   5.898   2.176  2.9400 -1.7657  0.8652
   17CHTO  H144 6941   4.693   6.035   2.287 -0.4341 -0.6340  0.1384
   17CHTO   C87 6942   4.744   6.045   1.973 -0.6960 -0.4606 -0.1746
   17CHTO  H159 6943   4.779   5.947   1.939 -1.8823 -0.5611 -1.1185
   17CHTO   O53 6944   4.789   6.137   1.882 -0.6679  0.5747  0.1977
   17CHTO   C82 6945   4.935   6.136   1.851  0.5980  0.4297  0.2502
   17CHTO  H154 6946   4.974   6.038   1.825 -0.4539 -0.5545  2.2068
   17CHTO   C89 6947   4.962   6.230   1.735  0.3150  0.2828  0.2393
   17CHTO   O59 6948   4.925   6.368   1.757  0.1990  0.0219 -0.2949
   17CHTO  H137 6949   4.836   6.379   1.784 -0.2984 -3.1140 -0.4483
   17CHTO   O45 6950   4.586   6.048   1.972  0.5142 -0.4497  0.2045
   17CHTO   C67 6951   4.534   6.004   1.841  0.5846 -0.2015 -0.0018
   17CHTO  H124 6952   4.615   5.984   1.770  0.4675  4.4120 -1.6267
   17CHTO   C65 6953   4.444   5.886   1.847 -0.1119  0.3097  0.0982
   17CHTO  H122 6954   4.509   5.810   1.890  1.5903  0.1838 -2.5561
   17CHTO   O44 6955   4.396   5.844   1.715  0.2996 -0.0390  0.1346
   17CHTO  H102 6956   4.368   5.754   1.722  2.9196 -0.8653  0.6374
   17CHTO   C63 6957   4.329   5.921   1.950  0.9234 -0.8967  0.0456
   17CHTO  H120 6958   4.376   5.956   2.042 -0.7910 -0.5015  0.7836
   17CHTO   N11 6959   4.245   5.804   1.996 -0.1954 -0.0203  0.0685
   17CHTO  H108 6960   4.195   5.746   1.921  1.9853 -0.5081 -1.0472
   17CHTO  H109 6961   4.294   5.747   2.073 -0.0456  0.4083  0.2964
   17CHTO   C61 6962   4.243   6.033   1.883 -0.6807 -0.1732 -0.0161
   17CHTO  H118 6963   4.177   6.073   1.961  0.3640  0.4817  0.5406
   17CHTO   O40 6964   4.320   6.145   1.835 -0.0609  0.3764  0.4973
   17CHTO   C68 6965   4.458   6.131   1.784  0.9932  0.7776  0.2470
   17CHTO  H125 6966   4.513   6.220   1.823  0.1323  2.3184 -1.9897
   17CHTO   C72 6967   4.455   6.145   1.632 -0.1468 -0.3862 -0.2681
   17CHTO   O48 6968   4.582   6.138   1.569 -0.0914 -0.3737  0.5573
   17CHTO  H105 6969   4.566   6.153   1.477  0.0651 -2.2215  0.2137
   17CHTO   O38 6970   4.161   6.004   1.769 -0.1063  0.0589  0.6395
   17CHTO   C55 6971   4.019   6.039   1.775 -0.1309 -0.1393  0.1904
   17CHTO  H112 6972   3.988   6.085   1.870 -1.8532 -0.7127 -0.0594
   17CHTO   C56 6973   3.943   5.906   1.751 -0.3815 -0.2785 -0.3061
   17CHTO  H113 6974   3.994   5.858   1.666  1.8679  1.6278 -0.1077
   17CHTO   O42 6975   3.959   5.818   1.865  0.0100  0.4766 -0.0433
   17CHTO  H100 6976   3.929   5.864   1.942  0.2358 -0.5258  0.6486
   17CHTO   C57 6977   3.794   5.926   1.717  0.1078  0.7794  0.3808
   17CHTO  H114 6978   3.748   5.967   1.808 -0.9994 -0.7660  0.5299
   17CHTO   N10 6979   3.720   5.802   1.679 -0.3057 -0.6571 -0.1327
   17CHTO  H106 6980   3.723   5.793   1.572  2.0092 -0.4467 -0.0958
   17CHTO  H107 6981   3.617   5.813   1.710 -0.9161 -1.3218 -1.8957
   17CHTO   C58 6982   3.784   6.035   1.609 -0.1318 -0.0179  0.4151
   17CHTO  H115 6983   3.841   6.001   1.519 -0.3007 -0.7878  0.5967
   17CHTO   O37 6984   3.854   6.157   1.645  0.2272  0.2964  0.6173
   17CHTO   C59 6985   3.993   6.144   1.667  0.7612  0.7619 -0.4642
   17CHTO  H116 6986   4.048   6.113   1.578  2.0338  1.2935  0.1179
   17CHTO   C70 6987   4.044   6.279   1.714  0.3013 -0.1604 -0.0555
   17CHTO   O46 6988   3.998   6.327   1.840  0.1497 -0.1071 -0.2004
   17CHTO  H103 6989   4.045   6.281   1.906 -0.1112  0.3800  0.3289
   17CHTO   O39 6990   3.630   6.058   1.563  0.4395 -0.1748 -0.0897
   17CHTO   C60 6991   3.552   6.170   1.616  0.0485  0.0007 -0.3818
   17CHTO  H117 6992   3.578   6.185   1.721  1.4301  1.4359 -0.9056
   17CHTO   C62 6993   3.582   6.303   1.545  0.5021 -0.6405  0.6631
   17CHTO  H119 6994   3.686   6.324   1.577  0.2466  1.9133 -0.0609
   17CHTO   O43 6995   3.566   6.280   1.403  0.0968  0.2486  0.0136
   17CHTO  H101 6996   3.635   6.236   1.357 -0.0152  0.1975 -0.1051
   17CHTO   C66 6997   3.483   6.417   1.605  0.0742 -0.1194 -0.2749
   17CHTO  H123 6998   3.517   6.436   1.707  2.2489 -4.3157 -0.1343
   17CHTO   N12 6999   3.500   6.543   1.534 -1.1108  0.1240  0.2485
   17CHTO  H110 7000   3.601   6.571   1.508 -0.2916 -1.6754  1.3786
   17CHTO  H111 7001   3.436   6.558   1.449 -0.0258 -1.7865 -0.9299
   17CHTO   C69 7002   3.339   6.362   1.614  0.3213  0.0394  0.4309
   17CHTO  H126 7003   3.289   6.367   1.515 -1.0098  1.1198  1.1313
   17CHTO   O41 7004   3.333   6.224   1.684  0.0025  0.0003 -0.2902
   17CHTO   C64 7005   3.406   6.138   1.610  0.7103  0.3117 -0.5583
   17CHTO  H121 7006   3.382   6.133   1.502  2.3467  1.7170 -1.0107
   17CHTO   C71 7007   3.377   5.992   1.653  0.3977  0.3498 -0.0096
   17CHTO   O47 7008   3.249   5.948   1.606 -0.2101 -0.0447  0.1781
   17CHTO  H104 7009   3.222   5.867   1.645 -2.1190  0.1700 -0.6232
   17CHTO   O34 7010   3.249   6.464   1.701  0.0435  0.4109 -0.0815
   17CHTO   C49 7011   3.228   6.562   1.790  0.1988 -0.2654  0.3681
   17CHTO   H91 7012   3.300   6.641   1.769  0.7692 -0.7051  0.6334
   17CHTO   C47 7013   3.265   6.508   1.935  0.3488 -0.5582 -0.3976
   17CHTO   H89 7014   3.257   6.600   1.997 -0.2422 -1.5345  0.9957
   17CHTO   O33 7015   3.397   6.463   1.942 -0.1973 -0.4780  0.0858
   17CHTO   H70 7016   3.455   6.537   1.938 -0.0060 -0.5313  1.4830
   17CHTO   C45 7017   3.154   6.405   1.992 -0.0844 -0.2522 -0.1552
   17CHTO   H87 7018   3.191   6.302   1.991  0.9122  0.0850  0.9027
   17CHTO    N8 7019   3.127   6.443   2.131 -0.4959  0.1400  0.1243
   17CHTO   H75 7020   3.059   6.527   2.136 -1.7244 -0.4718 -4.4384
   17CHTO   H76 7021   3.075   6.358   2.172 -2.0596  0.6981 -0.6889
   17CHTO   C43 7022   3.030   6.392   1.894 -0.1832 -0.6482 -0.3310
   17CHTO   H85 7023   3.067   6.333   1.811  0.8994  1.9148 -1.7254
   17CHTO   O29 7024   2.989   6.518   1.852 -0.0617  0.1251 -0.2448
   17CHTO   C50 7025   3.083   6.617   1.799  0.0604 -0.0999  0.3752
   17CHTO   H92 7026   3.047   6.633   1.696  1.6326  1.0925 -0.0117
   17CHTO   C54 7027   3.050   6.743   1.878 -0.0960  0.4303  0.2169
   17CHTO   O36 7028   3.123   6.861   1.847  0.2178 -0.1875 -0.2050
   17CHTO   H72 7029   3.093   6.934   1.898  1.1327  0.7409 -0.9764
   17CHTO   O27 7030   2.929   6.310   1.952 -0.0927 -0.3673  0.6208
   17CHTO   C37 7031   2.869   6.181   1.920 -0.3623  0.6649  0.0548
   17CHTO   H79 7032   2.789   6.160   1.992  1.7814  0.1247  2.3890
   17CHTO   C38 7033   2.798   6.181   1.775  0.3919  0.5612  0.4827
   17CHTO   H80 7034   2.875   6.213   1.703 -0.2274 -1.2751 -1.0479
   17CHTO   O31 7035   2.688   6.275   1.783  0.5080  0.2313 -0.4485
   17CHTO   H68 7036   2.637   6.282   1.704  0.3924  2.1948 -0.2452
   17CHTO   C39 7037   2.762   6.030   1.746 -0.1849 -0.1266  0.6058
   17CHTO   H81 7038   2.690   6.003   1.823  1.2051 -1.1567  1.5533
   17CHTO    N7 7039   2.699   6.005   1.613  0.0307  0.0580  0.6420
   17CHTO   H73 7040   2.682   5.900   1.600  0.7293  0.0899 -0.5860
   17CHTO   H74 7041   2.600   6.049   1.616 -0.2367 -0.3421 -1.5831
   17CHTO   C40 7042   2.892   5.939   1.765 -0.1134 -0.2763 -0.2975
   17CHTO   H82 7043   2.977   5.978   1.708 -0.0550  0.3003  0.1837
   17CHTO   O26 7044   2.910   5.948   1.910  0.4336 -0.0720  0.2795
   17CHTO   C41 7045   2.979   6.071   1.940  0.9857 -0.1857  0.0252
   17CHTO   H83 7046   3.064   6.076   1.871 -0.6369  2.1379 -1.9302
   17CHTO   C52 7047   3.035   6.053   2.083 -1.0198  0.1383  0.0516
   17CHTO   O35 7048   3.124   5.952   2.091 -0.1232  0.4290  0.5680
   17CHTO   H71 7049   3.132   5.915   2.176 -1.3920 -0.3519  0.3653
   17CHTO   O28 7050   2.859   5.797   1.752  0.9905 -0.7107  0.0188
   17CHTO   C42 7051   2.965   5.691   1.743 -0.0314  0.2557  0.4109
   17CHTO   H84 7052   2.906   5.604   1.770  0.9736 -0.3526  0.6623
   17CHTO   C44 7053   3.077   5.697   1.851  0.6963 -0.1221 -0.1352
   17CHTO   H86 7054   3.138   5.787   1.835 -0.5910  0.2625 -3.1036
   17CHTO   O32 7055   3.023   5.706   1.986 -0.1153 -0.1596 -0.6167
   17CHTO   H69 7056   2.988   5.793   1.993  1.1211  0.4257 -1.5078
   17CHTO   C48 7057   3.178   5.571   1.838  0.4272 -0.7213  0.2786
   17CHTO   H90 7058   3.129   5.474   1.850 -0.8934 -0.2587 -1.3243
   17CHTO    N9 7059   3.292   5.576   1.937  0.0850  0.9267  0.2502
   17CHTO   H77 7060   3.265   5.513   2.020 -0.8167  1.5164  0.4091
   17CHTO   H78 7061   3.384   5.549   1.887 -0.4701 -0.5173 -0.0350
   17CHTO   C51 7062   3.233   5.562   1.690 -0.7155  0.4479 -0.2522
   17CHTO   H93 7063   3.301   5.644   1.669  0.0859 -0.3736 -0.9040
   17CHTO   O30 7064   3.122   5.553   1.598 -0.1106  0.0044 -0.8564
   17CHTO   C46 7065   3.024   5.671   1.600  0.7072 -0.4964 -0.2471
   17CHTO   H88 7066   3.068   5.762   1.559 -1.8401  0.3706 -1.1637
   17CHTO   C53 7067   2.915   5.635   1.494  0.3100  0.2930  0.0544
   17CHTO   O72 7068   2.969   5.588   1.372  0.1439  0.0368  0.0109
   17CHTO  H199 7069   2.913   5.605   1.299 -0.4540  1.6292  0.8003
   17CHTO   O22 7070   3.300   5.442   1.652 -0.7096 -0.0042 -0.4277
   17CHTO   C31 7071   3.407   5.443   1.547  0.1015  0.2402  0.9173
   17CHTO   H59 7072   3.413   5.336   1.520 -0.0703  0.2436  0.8671
   17CHTO   C29 7073   3.373   5.522   1.413  0.0921  0.0010  0.1712
   17CHTO   H57 7074   3.356   5.626   1.443  0.5593 -0.2104  1.1834
   17CHTO   O21 7075   3.246   5.465   1.371 -0.0035  0.1076  0.0084
   17CHTO   H37 7076   3.258   5.386   1.323 -1.1767  0.3981 -0.7985
   17CHTO   C27 7077   3.491   5.507   1.312 -0.5387 -0.0734  0.1974
   17CHTO   H55 7078   3.500   5.401   1.283 -1.8857 -0.8846  2.5929
   17CHTO    N5 7079   3.466   5.593   1.196 -0.6718 -0.0483  0.2548
   17CHTO   H43 7080   3.536   5.580   1.115 -1.9324  0.1159 -0.8890
   17CHTO   H44 7081   3.362   5.597   1.166 -0.9533 -1.9152  0.9441
   17CHTO   C25 7082   3.624   5.546   1.384  1.0036  0.2946  0.2728
   17CHTO   H53 7083   3.605   5.651   1.412 -1.1134  0.0384 -0.1393
   17CHTO   O17 7084   3.648   5.467   1.499 -0.3137 -0.7195  0.1031
   17CHTO   C32 7085   3.546   5.475   1.602 -0.0341 -0.1991 -0.0254
   17CHTO   H60 7086   3.550   5.578   1.638  0.8706 -0.4322  0.5600
   17CHTO   C36 7087   3.580   5.385   1.722 -0.4602 -0.1210 -0.1186
   17CHTO   O25 7088   3.692   5.425   1.802  0.0151 -0.1527 -0.3521
   17CHTO   H40 7089   3.656   5.453   1.884  0.1837 -0.6307 -0.1141
   17CHTO   O15 7090   3.752   5.515   1.281 -0.2333  0.2418  0.0688
   17CHTO   C19 7091   3.844   5.622   1.231 -0.3746  0.6166 -0.0735
   17CHTO   H47 7092   3.921   5.557   1.187 -0.8212  0.1181 -0.1253
   17CHTO   C20 7093   3.771   5.714   1.123 -0.2953 -0.4474 -0.4921
   17CHTO   H48 7094   3.669   5.742   1.154  0.3976 -0.4932  1.9247
   17CHTO   O19 7095   3.759   5.635   1.005 -0.7224 -0.0747  0.3101
   17CHTO   H35 7096   3.682   5.661   0.957 -0.5450 -0.4511 -0.1799
   17CHTO   C21 7097   3.856   5.850   1.083  0.1772  0.3242 -0.0412
   17CHTO   H49 7098   3.944   5.821   1.027  0.9565  0.3807  1.1353
   17CHTO    N4 7099   3.778   5.945   0.996  0.1890  0.1479  0.1415
   17CHTO   H41 7100   3.769   5.901   0.898  1.1987  2.7094 -1.1517
   17CHTO   H42 7101   3.833   6.036   0.984  1.7041 -0.7756 -0.0308
   17CHTO   C22 7102   3.905   5.915   1.214  0.3846 -0.1315  0.3608
   17CHTO   H50 7103   3.830   5.954   1.281  2.5198  0.5953  2.4084
   17CHTO   O14 7104   3.981   5.815   1.286 -0.4233 -0.0998  0.1912
   17CHTO   C23 7105   3.914   5.705   1.341  0.1448  0.3111 -0.1712
   17CHTO   H51 7106   3.842   5.744   1.414  2.1403  1.1140  1.4229
   17CHTO   C34 7107   4.004   5.616   1.424 -0.7704  0.2743 -0.4373
   17CHTO   O23 7108   3.930   5.528   1.504  0.4272  0.4395 -0.1736
   17CHTO   H38 7109   3.875   5.471   1.454 -1.2939  0.7179  1.3617
   17CHTO   O16 7110   4.006   6.014   1.181  0.2824 -0.0120  0.1608
   17CHTO   C24 7111   4.036   6.114   1.284  0.0823 -0.5585 -0.5652
   17CHTO   H52 7112   4.020   6.077   1.386  0.0716  1.3443  0.1384
   17CHTO   C26 7113   3.941   6.228   1.248 -0.2296 -0.0369 -0.0401
   17CHTO   H54 7114   3.965   6.263   1.145 -1.1515 -0.5257 -0.4268
   17CHTO   O20 7115   3.803   6.197   1.240 -0.1494 -0.3204  0.2580
   17CHTO   H36 7116   3.762   6.170   1.320 -0.9611  0.7293  0.2098
   17CHTO   C30 7117   3.967   6.360   1.328  0.0113  0.0607  0.1638
   17CHTO   H58 7118   3.943   6.341   1.434  3.7033 -0.1170  1.0379
   17CHTO    N6 7119   3.886   6.470   1.277 -0.1494  0.2498 -0.0789
   17CHTO   H45 7120   3.784   6.453   1.308 -0.3600 -0.2514 -1.0317
   17CHTO   H46 7121   3.924   6.557   1.327  0.3769 -0.2230  0.3523
   17CHTO   C33 7122   4.122   6.383   1.330  0.3948  0.3586  0.2988
   17CHTO   H61 7123   4.150   6.413   1.228  1.1335 -3.2089 -0.6277
   17CHTO   O18 7124   4.200   6.266   1.368  0.0072  0.7414  0.0547
   17CHTO   C28 7125   4.180   6.160   1.273  0.6560  0.1265 -0.2907
   17CHTO   H56 7126   4.195   6.203   1.174  1.2730 -2.1893 -1.2372
   17CHTO   C35 7127   4.274   6.039   1.300 -0.3132  0.3506 -0.2443
   17CHTO   O24 7128   4.251   5.950   1.413  0.1196  0.8163  0.1891
   17CHTO   H39 7129   4.251   5.991   1.497  1.7071  0.7543  0.2461
   17CHTO    O9 7130   4.155   6.498   1.409 -0.0527  0.4131 -0.3078
   17CHTO   C13 7131   4.303   6.560   1.387 -0.6681 -0.5264  0.3899
   17CHTO   H26 7132   4.332   6.539   1.282 -2.8475 -0.3880 -0.2688
   17CHTO   C11 7133   4.395   6.491   1.494 -0.0241 -0.4604  0.0537
   17CHTO   H24 7134   4.407   6.386   1.463  1.4930 -0.1415 -0.4730
   17CHTO    O8 7135   4.325   6.486   1.621 -0.2365  0.6018 -0.5076
   17CHTO    H3 7136   4.260   6.419   1.611  1.6298 -0.9903 -2.7825
   17CHTO    C9 7137   4.528   6.567   1.494 -0.1194  0.0710  0.4802
   17CHTO   H22 7138   4.551   6.582   1.388  0.3197 -1.4850  0.3344
   17CHTO    N2 7139   4.648   6.494   1.551 -0.1743 -0.5551  0.0866
   17CHTO   H10 7140   4.660   6.508   1.657 -0.5860 -0.2696  0.0973
   17CHTO   H11 7141   4.737   6.522   1.495 -0.7763  0.7567 -0.2531
   17CHTO    C7 7142   4.519   6.714   1.552  0.5708  0.4312  0.4059
   17CHTO   H20 7143   4.590   6.778   1.496  0.4059  1.4813  1.3723
   17CHTO    O4 7144   4.387   6.769   1.518  0.2225  0.4471 -0.2286
   17CHTO   C14 7145   4.310   6.726   1.406  0.2357 -0.3445 -0.6385
   17CHTO   H27 7146   4.340   6.763   1.306 -1.1282  1.9075 -0.2533
   17CHTO   C18 7147   4.159   6.782   1.433  0.0879 -0.4419  0.3905
   17CHTO   O13 7148   4.081   6.785   1.307 -0.2008  0.2145  0.0294
   17CHTO    H7 7149   3.990   6.774   1.325  0.0916 -2.4583  0.0130
   17CHTO    O2 7150   4.547   6.723   1.715 -0.5056  0.1761 -0.4800
   17CHTO    C1 7151   4.569   6.851   1.765 -0.2579  0.0513  0.7013
   17CHTO   H14 7152   4.531   6.922   1.688 -1.2781  0.4330  1.5465
   17CHTO    C2 7153   4.726   6.884   1.782 -0.0636  0.1953 -0.1301
   17CHTO   H15 7154   4.770   6.800   1.838 -1.7605 -0.7852 -0.2333
   17CHTO    O6 7155   4.807   6.888   1.663  0.3507 -0.5394  0.1524
   17CHTO    H1 7156   4.890   6.929   1.671 -0.7710  1.8441 -0.1065
   17CHTO    C3 7157   4.751   7.016   1.871 -0.4204  0.8276 -0.1028
   17CHTO   H16 7158   4.738   7.092   1.794  2.1687  1.0167 -0.4110
   17CHTO    N1 7159   4.891   7.024   1.918 -0.2908 -0.1927  0.0291
   17CHTO    H8 7160   4.914   7.128   1.935 -2.3334  0.2634  0.1370
   17CHTO    H9 7161   4.944   6.977   1.836 -0.6582 -0.6245  0.0361
   17CHTO    C4 7162   4.649   7.032   1.987  0.4097  0.5084 -0.4525
   17CHTO   H17 7163   4.680   6.968   2.069 -0.4081  2.0157  1.0680
   17CHTO    O1 7164   4.514   6.994   1.944  0.6124  0.4405 -0.7234
   17CHTO    C5 7165   4.501   6.858   1.911  0.5023 -0.3891  0.3375
   17CHTO   H18 7166   4.553   6.798   1.985 -0.0513  0.8952  1.7899
   17CHTO   C16 7167   4.346   6.831   1.907 -0.1294 -0.1473  0.3331
   17CHTO   O11 7168   4.280   6.895   1.799 -0.2206 -0.5634  0.1435
   17CHTO    H5 7169   4.231   6.832   1.750 -0.6218  0.4364 -0.7661
   17CHTO    O3 7170   4.647   7.162   2.050  0.7961 -0.3390  0.0495
   17CHTO    C6 7171   4.541   7.197   2.150  0.2259 -0.3941 -0.0645
   17CHTO   H19 7172   4.462   7.122   2.148 -1.2384  1.0500  1.4213
   17CHTO    C8 7173   4.598   7.197   2.290 -0.3978 -0.3244  0.4230
   17CHTO   H21 7174   4.670   7.278   2.293  0.0581 -0.7223  0.2229
   17CHTO    O7 7175   4.651   7.070   2.327 -0.0045  0.5168 -1.1043
   17CHTO    H2 7176   4.725   7.081   2.383 -1.4220  0.0617  0.9253
   17CHTO   C12 7177   4.480   7.237   2.388  0.4299 -0.6734 -0.1364
   17CHTO   H25 7178   4.410   7.152   2.399 -1.7018  1.2828  1.9929
   17CHTO    N3 7179   4.542   7.262   2.527  0.4308 -0.1724 -0.4813
   17CHTO   H12 7180   4.465   7.276   2.602 -0.5184  0.7422 -1.6099
   17CHTO   H13 7181   4.617   7.339   2.536  1.3920 -1.1092 -0.3849
   17CHTO   C15 7182   4.408   7.360   2.342  1.1698 -0.3236 -0.0998
   17CHTO   H28 7183   4.473   7.446   2.356 -1.7446  1.4536  3.1054
   17CHTO   O10 7184   4.259   7.398   2.428  0.0594  0.8285  0.0890
   17CHTO    H4 7185   4.243   7.329   2.490 -1.1612 -0.4827 -1.6400
   17CHTO    O5 7186   4.364   7.352   2.207 -0.3105 -0.2322  0.4920
   17CHTO   C10 7187   4.473   7.331   2.113 -0.1150 -0.2184  0.2381
   17CHTO   H23 7188   4.554   7.403   2.127  0.8578 -1.3783  0.6593
   17CHTO   C17 7189   4.424   7.330   1.970  0.0122 -0.3265 -0.7580
   17CHTO   O12 7190   4.337   7.219   1.933 -0.1980  0.1787 -0.2318
   17CHTO    H6 7191   4.293   7.241   1.853 -0.6567 -2.6050 -0.8180
   18CHTO  H203 7192   6.004   7.189   2.622  2.3507 -0.0228  0.6166
   18CHTO   O82 7193   6.021   7.099   2.604  0.2700 -0.3337  0.1177
   18CHTO  C123 7194   5.940   7.052   2.491 -0.2533  0.1001 -0.1825
   18CHTO  H227 7195   5.837   7.088   2.502 -0.2546 -0.1073  0.4973
   18CHTO   O77 7196   6.002   7.116   2.377 -0.2920 -0.2641  0.4487
   18CHTO  C118 7197   5.942   7.083   2.250 -0.0525  0.1656 -0.4478
   18CHTO  H222 7198   5.836   7.112   2.244 -0.2152 -0.6787 -1.9128
   18CHTO  C125 7199   6.011   7.168   2.139 -0.7064  0.5092 -0.6210
   18CHTO   O84 7200   5.962   7.300   2.141  0.3096 -0.6045 -0.6638
   18CHTO  H205 7201   5.955   7.337   2.055  0.2774  1.5755  0.2491
   18CHTO  C114 7202   5.945   6.931   2.226 -0.4705 -0.3603  0.0288
   18CHTO  H218 7203   6.050   6.904   2.211 -0.5617 -1.0850  0.6687
   18CHTO  C116 7204   5.889   6.851   2.342  0.0542  0.2227  1.1030
   18CHTO  H220 7205   5.778   6.857   2.344 -0.1067 -0.4231 -2.2693
   18CHTO   O79 7206   5.922   6.710   2.330 -0.3166 -0.0616 -0.4247
   18CHTO  H201 7207   6.015   6.697   2.334 -0.6837 -2.7869 -0.2176
   18CHTO  C120 7208   5.939   6.898   2.477 -0.8396 -0.1094 -0.1949
   18CHTO  H224 7209   6.039   6.852   2.487 -1.2526 -0.5420  2.1672
   18CHTO   N21 7210   5.873   6.845   2.595 -0.3137  0.1135 -0.2699
   18CHTO  H211 7211   5.800   6.913   2.637 -0.5774  0.6136 -1.5369
   18CHTO  H212 7212   5.831   6.746   2.589 -3.6094  1.3120  1.2130
   18CHTO   O75 7213   5.867   6.900   2.105  0.0497  0.1658 -0.1095
   18CHTO  C112 7214   5.963   6.808   1.999  0.4605  0.2132  0.5385
   18CHTO  H216 7215   6.010   6.717   2.040  1.8604  1.0370  0.7881
   18CHTO   O73 7216   6.061   6.899   1.953 -0.0655 -0.0088  0.1554
   18CHTO  C113 7217   6.150   6.853   1.857  0.9449 -0.4617 -0.3084
   18CHTO  H217 7218   6.196   6.757   1.889 -0.1166  0.0467  2.9842
   18CHTO  C124 7219   6.260   6.961   1.834 -0.4450 -0.0271 -0.2999
   18CHTO   O83 7220   6.380   6.900   1.792  0.1514 -0.0708 -0.0636
   18CHTO  H204 7221   6.449   6.956   1.820 -0.0224  0.0494  0.1266
   18CHTO  C109 7222   6.064   6.837   1.724 -0.8264 -0.2568  0.4455
   18CHTO  H213 7223   6.024   6.937   1.700 -1.8807 -0.8562 -0.2800
   18CHTO  C110 7224   5.947   6.731   1.755  0.4054 -0.4769 -0.3633
   18CHTO  H214 7225   5.997   6.636   1.776  1.2000 -0.2230 -1.0703
   18CHTO   O78 7226   5.861   6.719   1.637  0.4624  0.3766 -0.0609
   18CHTO  H200 7227   5.919   6.700   1.565 -2.4737 -1.8858 -1.9528
   18CHTO  C111 7228   5.864   6.765   1.880 -0.6820  0.4290 -0.1809
   18CHTO  H215 7229   5.811   6.858   1.856  1.6411  1.3568 -1.9030
   18CHTO   N19 7230   5.759   6.672   1.941  0.2352 -0.2731  1.0122
   18CHTO  H207 7231   5.673   6.664   1.877 -1.1497  1.6562  2.6026
   18CHTO  H208 7232   5.746   6.685   2.047  1.6717  1.1701  1.0212
   18CHTO   O74 7233   6.150   6.791   1.621 -0.2664  0.0846  0.1837
   18CHTO  C115 7234   6.153   6.885   1.484 -0.1206 -0.2525  0.0014
   18CHTO  H219 7235   6.060   6.876   1.428  0.8890 -2.4146 -1.3689
   18CHTO   O76 7236   6.176   7.030   1.515  0.6390 -0.7204  0.1923
   18CHTO  C122 7237   6.166   7.120   1.401 -0.6415  0.4239 -0.6962
   18CHTO  H226 7238   6.195   7.215   1.448  1.6334 -0.4250 -0.3144
   18CHTO  C126 7239   6.017   7.133   1.358 -0.2165  0.2502 -0.1612
   18CHTO   O85 7240   5.983   7.201   1.242  0.0980 -0.2617  0.1762
   18CHTO  H206 7241   5.896   7.236   1.252 -0.3716 -1.6311  1.1861
   18CHTO  C121 7242   6.265   7.082   1.288  0.4096 -0.2280  0.0713
   18CHTO  H225 7243   6.246   7.139   1.195  2.8844  3.5361  1.7584
   18CHTO   O81 7244   6.399   7.121   1.322 -0.3015 -0.6259 -0.3358
   18CHTO  H202 7245   6.400   7.207   1.360  1.7459 -1.1330  0.8466
   18CHTO  C119 7246   6.263   6.924   1.256 -0.2399  0.1950 -0.3578
   18CHTO  H223 7247   6.168   6.902   1.208 -1.3190  0.5710  1.5425
   18CHTO  C117 7248   6.268   6.839   1.390 -0.1953  0.0969 -0.0698
   18CHTO  H221 7249   6.356   6.845   1.454 -0.8330  0.8064  0.7537
   18CHTO   N20 7250   6.246   6.692   1.356 -0.1518  0.4388 -0.2280
   18CHTO  H209 7251   6.194   6.692   1.262 -1.2725 -1.4310  0.3743
   18CHTO  H210 7252   6.177   6.643   1.423 -1.4531  2.9520  0.3630
   18CHTO   O80 7253   6.364   6.892   1.142  0.4673  0.2562 -0.1843
   18CHTO  C103 7254   6.309   6.831   0.997  0.3220 -0.4500 -0.6366
   18CHTO  H190 7255   6.394   6.794   0.940  1.2967  1.6293 -0.5720
   18CHTO  C101 7256   6.181   6.733   0.995 -0.5200 -0.3670  0.2780
   18CHTO  H188 7257   6.108   6.773   1.065  0.6903  1.6487  0.4139
   18CHTO   O68 7258   6.232   6.604   1.039  0.3270  0.3471  0.1679
   18CHTO  H168 7259   6.163   6.540   1.038 -0.6261  1.3406  1.5386
   18CHTO   C99 7260   6.100   6.720   0.859 -0.5592  0.3606  0.0057
   18CHTO  H186 7261   6.159   6.679   0.774 -0.9683  1.7582 -0.9689
   18CHTO   N17 7262   5.975   6.633   0.876  0.2478 -0.3206 -0.3383
   18CHTO  H174 7263   5.897   6.670   0.811 -0.3882  0.6433  0.9603
   18CHTO  H175 7264   5.933   6.643   0.975 -3.2844  1.8778 -1.9328
   18CHTO   C97 7265   6.058   6.865   0.825  0.2424  0.1872  0.1867
   18CHTO  H184 7266   5.991   6.895   0.906 -0.9074  0.9344 -1.0277
   18CHTO   O64 7267   6.176   6.947   0.816  0.0142 -0.5349 -0.3104
   18CHTO  C104 7268   6.259   6.965   0.937  0.6323 -0.4853 -0.1672
   18CHTO  H191 7269   6.199   7.021   1.008  0.3497 -0.9765 -0.0110
   18CHTO  C108 7270   6.380   7.055   0.908 -0.0578 -0.1386 -0.5918
   18CHTO   O71 7271   6.349   7.152   0.807  0.1295  0.0754 -0.3301
   18CHTO  H171 7272   6.268   7.198   0.814  0.1327 -0.3074  2.9011
   18CHTO   O62 7273   5.980   6.872   0.703  0.0992 -0.3764  0.4353
   18CHTO   C91 7274   5.853   6.946   0.694 -0.5878  0.1271 -0.6548
   18CHTO  H178 7275   5.814   6.952   0.796 -1.4336  0.6058 -0.9990
   18CHTO   C92 7276   5.753   6.853   0.620 -0.3882 -0.1452  1.0871
   18CHTO  H179 7277   5.790   6.822   0.521 -3.7116 -0.8997  0.0182
   18CHTO   O66 7278   5.738   6.737   0.702 -0.8484 -0.3174 -0.2457
   18CHTO  H166 7279   5.658   6.690   0.684 -1.2799  0.9344 -1.6525
   18CHTO   C93 7280   5.612   6.919   0.611 -0.1911  1.1053  0.3523
   18CHTO  H180 7281   5.560   6.919   0.708 -1.2696  0.0265 -0.2148
   18CHTO   N16 7282   5.517   6.837   0.531  0.1742 -0.1514 -0.3030
   18CHTO  H172 7283   5.439   6.797   0.594 -0.2321  2.6339  1.0164
   18CHTO  H173 7284   5.564   6.756   0.477 -0.0681  0.3612 -1.2893
   18CHTO   C94 7285   5.616   7.066   0.553  0.8396 -0.8804  0.0020
   18CHTO  H181 7286   5.629   7.068   0.445  1.1299  0.8384  0.0399
   18CHTO   O61 7287   5.724   7.144   0.611  0.4860  0.1064  0.4319
   18CHTO   C95 7288   5.854   7.085   0.623 -0.1149  0.2447 -0.6302
   18CHTO  H182 7289   5.896   7.080   0.523 -1.8190 -0.5714 -1.3214
   18CHTO  C106 7290   5.948   7.199   0.690  0.4703 -0.2252 -0.0920
   18CHTO   O69 7291   5.970   7.315   0.611  0.1362 -0.4752  0.1524
   18CHTO  H169 7292   6.002   7.383   0.666  0.0833 -0.8157  0.6092
   18CHTO   O63 7293   5.459   7.135   0.598  0.6136 -0.3512 -0.1747
   18CHTO   C96 7294   5.434   7.277   0.563 -0.5210 -0.6316 -0.2731
   18CHTO  H183 7295   5.326   7.285   0.551 -0.6868 -0.4121  1.2445
   18CHTO   C98 7296   5.502   7.336   0.436  0.3386  0.0052  0.1316
   18CHTO  H185 7297   5.612   7.336   0.449  0.0906  0.0067  2.6057
   18CHTO   O67 7298   5.465   7.243   0.333  0.1251 -0.6142  0.3962
   18CHTO  H167 7299   5.473   7.153   0.360  0.3121 -0.4867  0.7770
   18CHTO  C102 7300   5.452   7.484   0.400  0.0739 -0.0314 -0.5056
   18CHTO  H189 7301   5.355   7.469   0.349  0.8794 -0.3179 -1.9899
   18CHTO   N18 7302   5.540   7.545   0.297  0.2483  0.2020 -0.0340
   18CHTO  H176 7303   5.639   7.539   0.341 -0.2641  0.4804  1.1870
   18CHTO  H177 7304   5.536   7.507   0.196 -1.7917  1.0787 -0.3142
   18CHTO  C105 7305   5.431   7.562   0.530  0.1049  0.5392 -0.0137
   18CHTO  H192 7306   5.460   7.666   0.517 -1.2054  0.6500 -2.4330
   18CHTO   O65 7307   5.500   7.507   0.643 -0.6316 -0.0460  0.4553
   18CHTO  C100 7308   5.466   7.372   0.679 -0.7938 -0.0010 -0.0398
   18CHTO  H187 7309   5.566   7.344   0.716 -0.3910 -0.0507 -1.1598
   18CHTO  C107 7310   5.362   7.367   0.797 -0.0372 -0.5186 -0.1663
   18CHTO   O70 7311   5.356   7.234   0.856  0.7665 -0.1523  0.0080
   18CHTO  H170 7312   5.358   7.250   0.948  0.7262  2.3212 -0.4008
   18CHTO   O57 7313   5.275   7.537   0.565  0.2925 -0.2675  0.0804
   18CHTO   C85 7314   5.189   7.650   0.569  0.0831 -0.0103  0.1720
   18CHTO  H157 7315   5.212   7.706   0.476 -1.9093  1.2394  0.4098
   18CHTO   C83 7316   5.226   7.743   0.691  0.3048  0.5978  0.1429
   18CHTO  H155 7317   5.317   7.796   0.663  1.3423  0.1870  2.5707
   18CHTO   O56 7318   5.265   7.671   0.808  0.4891  0.1615  0.0655
   18CHTO  H135 7319   5.251   7.727   0.882 -1.7266 -0.4871  0.1624
   18CHTO   C81 7320   5.117   7.846   0.709  0.5009  0.5590 -0.1640
   18CHTO  H153 7321   5.111   7.897   0.613 -0.8525 -0.4761 -0.6505
   18CHTO   N14 7322   5.142   7.958   0.800 -0.0218  0.6439 -0.1871
   18CHTO  H141 7323   5.195   8.038   0.753 -1.6150  1.1018 -1.2557
   18CHTO  H142 7324   5.047   7.996   0.831  0.2946  2.1677 -1.0194
   18CHTO   C79 7325   4.982   7.772   0.748 -0.1936  0.4515 -0.5157
   18CHTO  H151 7326   4.906   7.850   0.750  0.4753  1.1077  2.6367
   18CHTO   O52 7327   4.942   7.682   0.638  0.1593  0.0129 -0.0295
   18CHTO   C86 7328   5.041   7.599   0.573  0.3036  0.2109  0.1661
   18CHTO  H158 7329   5.047   7.510   0.638 -2.1405 -0.6279 -0.7202
   18CHTO   C90 7330   4.988   7.553   0.434  0.6040 -0.0189  0.2656
   18CHTO   O60 7331   5.058   7.430   0.395  0.2137 -0.1102 -0.4051
   18CHTO  H138 7332   5.015   7.404   0.315 -0.2883  1.3401 -0.6162
   18CHTO   O50 7333   4.982   7.698   0.870 -0.2392  0.3113 -0.2559
   18CHTO   C73 7334   4.972   7.559   0.917  0.0823  0.5224  0.3112
   18CHTO  H145 7335   5.046   7.493   0.869 -0.9309  0.1994 -0.8192
   18CHTO   C74 7336   4.829   7.483   0.883  0.2279  0.5010 -0.4114
   18CHTO  H146 7337   4.816   7.492   0.774  0.9992 -0.2238 -0.5701
   18CHTO   O54 7338   4.843   7.345   0.912  0.3681  0.3079  0.1381
   18CHTO  H133 7339   4.767   7.305   0.874  2.4779 -2.1247 -1.7241
   18CHTO   C75 7340   4.718   7.559   0.960 -0.4518  0.2178 -0.1027
   18CHTO  H147 7341   4.717   7.660   0.918  1.0681  0.9739  1.5868
   18CHTO   N13 7342   4.579   7.503   0.930 -0.6593  0.4265 -0.1131
   18CHTO  H139 7343   4.548   7.504   0.827  0.2533 -0.6246 -0.4039
   18CHTO  H140 7344   4.509   7.565   0.984  1.0632  1.0765  1.4527
   18CHTO   C76 7345   4.746   7.570   1.116  0.2550  0.4018 -0.4307
   18CHTO  H148 7346   4.750   7.469   1.157  1.4361  0.1902 -1.0314
   18CHTO   O49 7347   4.877   7.629   1.126  0.0890 -0.1720  0.4732
   18CHTO   C77 7348   4.991   7.558   1.070  0.2711 -0.1814  0.1068
   18CHTO  H149 7349   4.992   7.457   1.109  2.0135  0.0460  0.6786
   18CHTO   C88 7350   5.128   7.617   1.100  0.8060 -0.0938 -0.3548
   18CHTO   O58 7351   5.135   7.758   1.093  0.1040 -0.0527 -0.1210
   18CHTO  H136 7352   5.062   7.803   1.130  0.5789  2.2037 -1.8658
   18CHTO   O51 7353   4.647   7.658   1.204 -0.2925 -0.1201 -0.2971
   18CHTO   C78 7354   4.690   7.683   1.361 -0.0752 -0.2712  0.9021
   18CHTO  H150 7355   4.795   7.650   1.373  0.0352  0.4502  2.0405
   18CHTO   C80 7356   4.602   7.600   1.449  0.5260  0.7580 -0.1210
   18CHTO  H152 7357   4.495   7.625   1.433 -0.0845 -2.7151 -1.9099
   18CHTO   O55 7358   4.609   7.462   1.408 -0.2356 -0.2110  0.1188
   18CHTO  H134 7359   4.594   7.408   1.483  0.6658 -0.8337 -0.1411
   18CHTO   C84 7360   4.646   7.621   1.591 -0.7250  0.6557 -0.4529
   18CHTO  H156 7361   4.741   7.568   1.590 -2.2558 -2.1514 -3.4533
   18CHTO   N15 7362   4.563   7.545   1.688  0.1722 -0.5184  0.0550
   18CHTO  H143 7363   4.606   7.574   1.782  2.2227 -0.3471 -0.9188
   18CHTO  H144 7364   4.461   7.577   1.688 -0.0244 -1.0931 -1.5325
   18CHTO   C87 7365   4.666   7.769   1.634 -0.1365  0.1912 -0.1738
   18CHTO  H159 7366   4.566   7.804   1.658 -0.7879 -1.8755  0.1990
   18CHTO   O53 7367   4.744   7.847   1.534  0.3749 -0.1506  0.0221
   18CHTO   C82 7368   4.674   7.833   1.406 -0.0446 -0.5239  0.9896
   18CHTO  H154 7369   4.569   7.861   1.415 -0.3092 -1.4757  0.9159
   18CHTO   C89 7370   4.729   7.928   1.299 -0.3081 -0.0172 -0.8305
   18CHTO   O59 7371   4.873   7.922   1.309  0.5129  0.5703 -0.1208
   18CHTO  H137 7372   4.901   7.833   1.304  1.2743  0.7986  0.0626
   18CHTO   O45 7373   4.761   7.768   1.777  0.0795  0.3712  0.1641
   18CHTO   C67 7374   4.900   7.748   1.748  0.4220  0.0171 -0.8714
   18CHTO  H124 7375   4.906   7.687   1.658  0.5862  0.2186 -0.9992
   18CHTO   C65 7376   4.982   7.883   1.724 -0.2039  0.0222 -0.7162
   18CHTO  H122 7377   4.921   7.959   1.772  0.4484  1.2029 -1.7258
   18CHTO   O44 7378   5.006   7.906   1.585 -0.2783 -0.1165 -0.5365
   18CHTO  H102 7379   4.960   7.980   1.552 -0.2963  1.2780  2.4635
   18CHTO   C63 7380   5.116   7.890   1.808  0.4198  1.3230  0.5422
   18CHTO  H120 7381   5.090   7.891   1.913 -1.6459  2.0203  0.0462
   18CHTO   N11 7382   5.197   8.011   1.783  0.3300 -1.1859 -0.0675
   18CHTO  H108 7383   5.294   8.008   1.830  0.2354 -1.4883  0.1084
   18CHTO  H109 7384   5.138   8.093   1.818  0.2994 -2.0575  1.9892
   18CHTO   C61 7385   5.193   7.755   1.782 -0.2678 -0.3309  0.4534
   18CHTO  H118 7386   5.283   7.748   1.844 -1.3516  2.8317  2.4985
   18CHTO   O40 7387   5.115   7.637   1.811  0.1948 -0.2578 -0.3510
   18CHTO   C68 7388   4.975   7.657   1.851 -0.1283 -0.4231 -0.1261
   18CHTO  H125 7389   4.971   7.701   1.953  0.3833  3.0392 -1.5503
   18CHTO   C72 7390   4.924   7.511   1.866  0.9621  0.3588 -0.8628
   18CHTO   O48 7391   4.793   7.480   1.921 -0.2686 -0.6596 -0.2620
   18CHTO  H105 7392   4.744   7.559   1.937 -0.8879 -0.8051 -1.4059
   18CHTO   O38 7393   5.235   7.730   1.646 -0.1278 -0.3683 -0.0798
   18CHTO   C55 7394   5.347   7.649   1.627  0.1592  0.2637  0.1362
   18CHTO  H112 7395   5.352   7.561   1.694  0.2854  0.7745  0.8085
   18CHTO   C56 7396   5.481   7.732   1.632  0.0224  0.1541  0.7748
   18CHTO  H113 7397   5.468   7.809   1.554 -2.2989 -1.3946 -0.4467
   18CHTO   O42 7398   5.492   7.797   1.758  0.1809  0.0669  0.2828
   18CHTO  H100 7399   5.577   7.835   1.758  0.7599 -1.1351 -2.8044
   18CHTO   C57 7400   5.601   7.630   1.594  0.1729  0.0573  0.2007
   18CHTO  H114 7401   5.606   7.562   1.679 -3.8925  0.1461  0.6564
   18CHTO   N10 7402   5.733   7.698   1.581 -0.5150 -0.1536 -0.1220
   18CHTO  H106 7403   5.727   7.804   1.559 -0.0242 -0.4594 -1.7334
   18CHTO  H107 7404   5.793   7.681   1.670  0.4077 -1.4921 -0.9980
   18CHTO   C58 7405   5.570   7.546   1.467 -0.4015  0.0499 -0.3630
   18CHTO  H115 7406   5.577   7.610   1.376 -1.4634  1.1549  0.3235
   18CHTO   O37 7407   5.436   7.492   1.469 -0.4794  0.2202  0.4471
   18CHTO   C59 7408   5.330   7.583   1.487  0.0234 -0.3900 -0.2878
   18CHTO  H116 7409   5.345   7.663   1.415  1.4280 -1.1081 -0.8253
   18CHTO   C70 7410   5.202   7.513   1.456  0.3324 -0.6605  0.0197
   18CHTO   O46 7411   5.093   7.603   1.439  0.3317  0.4442 -0.3482
   18CHTO  H103 7412   5.011   7.571   1.472  0.2300  0.7332 -0.3186
   18CHTO   O39 7413   5.672   7.422   1.451 -0.0545  0.3351 -0.4841
   18CHTO   C60 7414   5.628   7.308   1.533 -0.4693 -0.1753  0.6166
   18CHTO  H117 7415   5.548   7.342   1.599  0.2034  1.2116  0.7397
   18CHTO   C62 7416   5.570   7.194   1.448 -0.3040  0.2592  0.5102
   18CHTO  H119 7417   5.485   7.231   1.387 -0.3187 -1.4986 -0.5787
   18CHTO   O43 7418   5.671   7.157   1.360 -0.1782  0.4520 -0.6853
   18CHTO  H101 7419   5.656   7.075   1.317 -0.1007  0.0803 -0.0088
   18CHTO   C66 7420   5.528   7.064   1.531  0.2039 -0.0478 -0.8798
   18CHTO  H123 7421   5.433   7.082   1.581  1.0482  1.3394  0.2701
   18CHTO   N12 7422   5.492   6.948   1.449  0.0231  0.0011  1.0799
   18CHTO  H110 7423   5.405   6.956   1.384 -0.5850 -3.1404  1.4260
   18CHTO  H111 7424   5.574   6.880   1.429 -0.9192 -1.3216  1.6412
   18CHTO   C69 7425   5.628   7.031   1.646  0.3553 -0.0750 -0.1918
   18CHTO  H126 7426   5.704   6.970   1.593  0.4688  0.1955 -0.3458
   18CHTO   O41 7427   5.704   7.153   1.698  0.3145  0.3182 -0.7140
   18CHTO   C64 7428   5.744   7.247   1.623  0.2325  0.2013  0.7427
   18CHTO  H121 7429   5.828   7.210   1.561  0.1240 -2.1193  1.9199
   18CHTO   C71 7430   5.814   7.341   1.721 -0.4415  0.0447  0.2157
   18CHTO   O47 7431   5.955   7.306   1.732 -0.7251  0.1092  0.0015
   18CHTO  H104 7432   5.975   7.236   1.791  1.5669 -0.7154 -1.6823
   18CHTO   O34 7433   5.559   6.969   1.758  0.4585  0.3877 -0.2623
   18CHTO   C49 7434   5.489   7.007   1.903 -0.0611  0.0516  0.0545
   18CHTO   H91 7435   5.470   6.910   1.950  1.7466 -0.8100 -0.9792
   18CHTO   C47 7436   5.356   7.090   1.882  0.0105 -0.1441  0.2547
   18CHTO   H89 7437   5.312   7.105   1.983 -3.0087  0.2053 -1.0798
   18CHTO   O33 7438   5.267   7.009   1.801  0.0553  0.4965 -0.1635
   18CHTO   H70 7439   5.310   6.999   1.719 -2.0983 -1.7130 -1.0722
   18CHTO   C45 7440   5.400   7.229   1.820 -0.1211 -0.2611 -0.1064
   18CHTO   H87 7441   5.456   7.204   1.728 -1.9598  0.2520 -1.3916
   18CHTO    N8 7442   5.285   7.318   1.783  0.2335 -0.6745  0.4607
   18CHTO   H75 7443   5.207   7.316   1.858 -0.4033 -1.8456 -0.2256
   18CHTO   H76 7444   5.245   7.306   1.684 -0.4705  0.2545  0.6211
   18CHTO   C43 7445   5.494   7.296   1.928  0.6698 -0.6200 -0.1639
   18CHTO   H85 7446   5.520   7.392   1.884  2.4272 -0.7519  0.5201
   18CHTO   O29 7447   5.608   7.220   1.961  0.3898 -0.3473  0.3151
   18CHTO   C50 7448   5.582   7.082   2.003 -0.0099 -0.4113 -0.1363
   18CHTO   H92 7449   5.677   7.029   1.992  1.4999  2.2975 -0.6994
   18CHTO   C54 7450   5.548   7.068   2.156  0.0734 -0.0848 -0.3235
   18CHTO   O36 7451   5.543   6.939   2.203  0.5313  0.0826  0.0490
   18CHTO   H72 7452   5.468   6.922   2.257 -0.3360 -1.3594 -1.5279
   18CHTO   O27 7453   5.419   7.350   2.045  0.4470  0.0375  0.3736
   18CHTO   C37 7454   5.368   7.455   2.130  0.2435  0.1129 -0.9773
   18CHTO   H79 7455   5.393   7.433   2.235 -2.9214  0.2271 -0.1426
   18CHTO   C38 7456   5.416   7.599   2.094  0.4922  0.0685  0.0057
   18CHTO   H80 7457   5.383   7.619   1.991  0.2555 -0.2378  0.0229
   18CHTO   O31 7458   5.560   7.590   2.095 -0.5829  0.1067 -0.2424
   18CHTO   H68 7459   5.590   7.554   2.014 -0.6034 -1.3313  0.3667
   18CHTO   C39 7460   5.366   7.710   2.193 -0.1751  1.0298 -0.0910
   18CHTO   H81 7461   5.406   7.690   2.292 -2.6487  2.2394  1.1900
   18CHTO    N7 7462   5.401   7.851   2.160  0.8047  0.1366  0.0013
   18CHTO   H73 7463   5.361   7.874   2.062 -1.9064 -0.8514  0.8126
   18CHTO   H74 7464   5.375   7.924   2.235 -0.2220 -1.5748  1.3572
   18CHTO   C40 7465   5.210   7.687   2.209  1.0402 -0.1253 -0.5897
   18CHTO   H82 7466   5.168   7.728   2.117 -0.4807 -1.5949 -0.5644
   18CHTO   O26 7467   5.175   7.548   2.223 -0.5546  0.5976 -0.2229
   18CHTO   C41 7468   5.213   7.461   2.125  0.1886  0.8063 -0.1688
   18CHTO   H83 7469   5.183   7.495   2.025  1.1262  2.0122 -0.0540
   18CHTO   C52 7470   5.150   7.327   2.160 -0.1559 -0.1234  0.5908
   18CHTO   O35 7471   4.997   7.344   2.179 -0.2367 -0.0010  0.1598
   18CHTO   H71 7472   4.967   7.279   2.240 -0.9210 -1.2290 -1.4152
   18CHTO   O28 7473   5.159   7.757   2.327 -0.7838 -0.6552  0.0478
   18CHTO   C42 7474   5.019   7.794   2.328  0.0207  0.0745  0.3737
   18CHTO   H84 7475   5.014   7.860   2.414 -0.8471  1.3058 -0.5987
   18CHTO   C44 7476   4.916   7.674   2.350 -0.6644 -0.4203 -0.8380
   18CHTO   H86 7477   4.921   7.609   2.263  0.1672 -0.3326 -0.8663
   18CHTO   O32 7478   4.970   7.584   2.454  0.0937 -0.1052 -0.0519
   18CHTO   H69 7479   5.024   7.635   2.511 -0.5598  0.6922 -0.1414
   18CHTO   C48 7480   4.773   7.730   2.365 -0.3517 -0.2257  0.2026
   18CHTO   H90 7481   4.760   7.799   2.449  0.2134  1.4455 -1.0521
   18CHTO    N9 7482   4.673   7.620   2.399  0.6318  0.4987  0.0857
   18CHTO   H77 7483   4.645   7.559   2.314  0.5624  1.3417 -0.4997
   18CHTO   H78 7484   4.583   7.664   2.440  0.0527  0.0398 -0.6784
   18CHTO   C51 7485   4.728   7.810   2.240  0.2280 -0.2538 -0.1076
   18CHTO   H93 7486   4.715   7.737   2.159 -3.5169  0.6751 -0.4261
   18CHTO   O30 7487   4.822   7.912   2.208  0.1134  0.4327  0.6417
   18CHTO   C46 7488   4.968   7.881   2.201  0.1441  0.5565  0.4716
   18CHTO   H88 7489   4.979   7.817   2.114 -0.7136  1.1833 -0.1020
   18CHTO   C53 7490   5.044   8.018   2.186 -0.0022 -0.1156 -0.0417
   18CHTO   O72 7491   4.996   8.104   2.073 -0.0575 -0.4546 -0.7471
   18CHTO  H199 7492   5.060   8.171   2.060 -0.6047  0.5127  1.4271
   18CHTO   O22 7493   4.605   7.881   2.258  0.0780 -0.2484 -0.0137
   18CHTO   C31 7494   4.490   7.910   2.173  0.1805 -0.8200  0.3858
   18CHTO   H59 7495   4.447   7.996   2.228  0.3157 -1.6746  1.8838
   18CHTO   C29 7496   4.527   7.957   2.029 -0.7707  0.0334 -0.2166
   18CHTO   H57 7497   4.587   7.877   1.982 -1.2428  0.1126 -0.9689
   18CHTO   O21 7498   4.611   8.076   2.053  0.4099  0.1081  0.1625
   18CHTO   H37 7499   4.547   8.141   2.071 -0.0720 -0.0345 -0.9734
   18CHTO   C27 7500   4.402   7.980   1.939 -0.2996 -0.3612  0.2852
   18CHTO   H55 7501   4.332   8.051   1.987 -0.5950  0.2071 -0.9837
   18CHTO    N5 7502   4.433   8.025   1.797  0.1362 -0.3215  0.2567
   18CHTO   H43 7503   4.392   8.123   1.774 -0.7119 -0.3182  1.7052
   18CHTO   H44 7504   4.531   7.996   1.765  0.5427 -0.5957  1.7302
   18CHTO   C25 7505   4.331   7.847   1.943  0.4485 -0.0231 -0.7985
   18CHTO   H53 7506   4.398   7.765   1.914  0.2159 -0.1412 -1.0013
   18CHTO   O17 7507   4.276   7.816   2.067 -0.3961 -0.0400 -0.0984
   18CHTO   C32 7508   4.376   7.798   2.171 -0.3134 -0.1666  0.5450
   18CHTO   H60 7509   4.419   7.699   2.165  1.2223  0.4770  0.7970
   18CHTO   C36 7510   4.305   7.798   2.309 -0.1842  0.2881 -1.1312
   18CHTO   O25 7511   4.223   7.681   2.335  0.1122  0.5754 -0.5142
   18CHTO   H40 7512   4.213   7.659   2.426  2.5391 -1.8967 -0.7716
   18CHTO   O15 7513   4.215   7.842   1.851 -0.0929  0.1856 -0.6722
   18CHTO   C19 7514   4.159   7.756   1.746 -0.5891 -0.5691 -0.2371
   18CHTO   H47 7515   4.051   7.775   1.742 -0.6104 -0.1384  1.8319
   18CHTO   C20 7516   4.223   7.803   1.602 -0.3007 -0.4852  0.5139
   18CHTO   H48 7517   4.331   7.784   1.597 -0.1508  0.3666  0.5425
   18CHTO   O19 7518   4.187   7.937   1.571  0.2306  0.2392  0.4798
   18CHTO   H35 7519   4.213   7.990   1.644  0.2397  1.7242 -0.5623
   18CHTO   C21 7520   4.169   7.712   1.485  0.1925  0.2915 -0.2124
   18CHTO   H49 7521   4.061   7.723   1.478 -0.0008 -1.1704  0.2676
   18CHTO    N4 7522   4.229   7.748   1.354 -0.2863  0.3298 -0.0666
   18CHTO   H41 7523   4.177   7.707   1.268  0.0231  0.4208 -0.2947
   18CHTO   H42 7524   4.229   7.856   1.354 -0.3418  0.3328  1.1773
   18CHTO   C22 7525   4.200   7.562   1.527 -0.8037 -0.0164  0.7300
   18CHTO   H50 7526   4.306   7.545   1.549 -1.0735  0.0964  2.1633
   18CHTO   O14 7527   4.120   7.526   1.645  0.3445 -0.5047  0.4558
   18CHTO   C23 7528   4.167   7.595   1.761  0.1027 -0.8371  0.4784
   18CHTO   H51 7529   4.271   7.566   1.781  0.5153 -0.2698 -0.8249
   18CHTO   C34 7530   4.078   7.550   1.880 -0.2045 -0.2371 -0.3665
   18CHTO   O23 7531   4.146   7.580   2.000 -0.4198 -0.1327 -0.0810
   18CHTO   H38 7532   4.133   7.665   2.036  3.6069  1.1037 -1.2019
   18CHTO   O16 7533   4.145   7.464   1.444  0.0352 -0.3235  0.5577
   18CHTO   C24 7534   4.256   7.345   1.382  0.4034 -0.1479  0.3510
   18CHTO   H52 7535   4.358   7.372   1.409  0.0245 -0.5632  2.2563
   18CHTO   C26 7536   4.247   7.347   1.227 -0.2062 -0.5033 -0.1195
   18CHTO   H54 7537   4.142   7.330   1.196 -0.0049  0.4318 -1.3495
   18CHTO   O20 7538   4.279   7.482   1.191 -0.1951 -0.2110  0.0552
   18CHTO   H36 7539   4.210   7.514   1.136 -1.9460 -0.7615  1.8674
   18CHTO   C30 7540   4.341   7.240   1.167 -0.3145  0.1850 -0.0340
   18CHTO   H58 7541   4.444   7.272   1.191  0.5760 -2.6185  0.0257
   18CHTO    N6 7542   4.326   7.228   1.016 -0.4529  0.2842 -0.4474
   18CHTO   H45 7543   4.232   7.246   0.966  0.3478  0.8016 -1.7964
   18CHTO   H46 7544   4.360   7.133   0.978 -1.1229 -0.9072  1.8177
   18CHTO   C33 7545   4.339   7.104   1.241 -0.3650  0.3834 -0.4015
   18CHTO   H61 7546   4.254   7.047   1.202  1.4866 -2.3801 -0.5215
   18CHTO   O18 7547   4.332   7.116   1.383  0.0129  0.3649  1.0129
   18CHTO   C28 7548   4.235   7.202   1.434  0.3847 -0.3375  0.0682
   18CHTO   H56 7549   4.133   7.173   1.408 -0.1071 -0.8356  2.3584
   18CHTO   C35 7550   4.248   7.203   1.584 -0.0897 -0.2108  0.1602
   18CHTO   O24 7551   4.165   7.113   1.653  0.4286 -0.1341  0.0436
   18CHTO   H39 7552   4.140   7.148   1.736 -0.5967  0.7933 -0.6365
   18CHTO    O9 7553   4.449   7.027   1.200  0.0180  0.3812 -0.0273
   18CHTO   C13 7554   4.586   7.006   1.291  0.1917  0.0511  0.3347
   18CHTO   H26 7555   4.562   6.961   1.390 -3.1409  0.3358 -0.2892
   18CHTO   C11 7556   4.667   7.140   1.305 -0.1372  0.4959 -0.2192
   18CHTO   H24 7557   4.610   7.202   1.376 -0.6335  0.7902 -0.8729
   18CHTO    O8 7558   4.679   7.210   1.176  0.5096  0.0102 -0.6296
   18CHTO    H3 7559   4.721   7.293   1.189 -0.9979  0.5840  0.8746
   18CHTO    C9 7560   4.811   7.118   1.367 -0.0825  0.2060 -0.0783
   18CHTO   H22 7561   4.791   7.069   1.463 -0.1083 -1.5692 -0.9762
   18CHTO    N2 7562   4.887   7.251   1.391 -0.7432 -0.7352 -0.3728
   18CHTO   H10 7563   4.819   7.330   1.420  0.1482 -0.8142  2.0085
   18CHTO   H11 7564   4.951   7.236   1.476 -1.9355  0.1283  0.7056
   18CHTO    C7 7565   4.893   7.019   1.275 -0.6102  0.2146 -0.2993
   18CHTO   H20 7566   4.976   6.977   1.337 -1.2290  0.1765  0.5181
   18CHTO    O4 7567   4.820   6.904   1.243 -0.3962  0.0677  0.1180
   18CHTO   C14 7568   4.680   6.896   1.223 -0.1874 -0.7618 -0.1657
   18CHTO   H27 7569   4.648   6.804   1.276 -0.9023 -1.0135 -1.0365
   18CHTO   C18 7570   4.646   6.877   1.072  0.3316 -0.0159  0.1946
   18CHTO   O13 7571   4.702   6.758   1.018 -0.5242  0.4369 -0.3420
   18CHTO    H7 7572   4.789   6.768   0.986 -1.2311  0.2098 -2.4405
   18CHTO    O2 7573   4.941   7.090   1.127 -0.9003 -0.0711 -0.5030
   18CHTO    C1 7574   5.061   7.043   1.054  1.6229  0.8658 -0.5473
   18CHTO   H14 7575   5.057   7.093   0.955  1.9562  0.5299 -0.7317
   18CHTO    C2 7576   5.049   6.883   1.034 -0.2442  0.0652  0.0572
   18CHTO   H15 7577   5.027   6.833   1.130  2.3094 -1.1546  0.0454
   18CHTO    O6 7578   4.943   6.863   0.948 -0.6244 -0.0376  0.0157
   18CHTO    H1 7579   4.935   6.771   0.931 -0.6509  0.1717 -1.0876
   18CHTO    C3 7580   5.185   6.820   0.963 -0.0874 -0.0344  0.0974
   18CHTO   H16 7581   5.201   6.864   0.863  1.0902  2.6463  1.4077
   18CHTO    N1 7582   5.176   6.673   0.951  0.0899  0.6162  0.4005
   18CHTO    H8 7583   5.083   6.651   0.900  0.6907 -0.1948 -0.3686
   18CHTO    H9 7584   5.170   6.623   1.046  1.7381  1.1249  0.7902
   18CHTO    C4 7585   5.299   6.879   1.053 -0.1539 -0.6062 -0.4159
   18CHTO   H17 7586   5.295   6.830   1.150  0.5142 -1.0151 -0.5921
   18CHTO    O1 7587   5.285   7.025   1.054  0.1956 -0.1221  0.4766
   18CHTO    C5 7588   5.183   7.086   1.131  0.5962 -0.3270 -0.4094
   18CHTO   H18 7589   5.179   7.038   1.229  2.9630  0.8853  0.3162
   18CHTO   C16 7590   5.189   7.242   1.143 -0.1343 -0.0348  0.5220
   18CHTO   O11 7591   5.315   7.300   1.182  0.4825 -0.1275 -0.0868
   18CHTO    H5 7592   5.297   7.391   1.197  1.5372 -0.1427  1.4245
   18CHTO    O3 7593   5.432   6.865   0.996 -0.0490 -0.6525  0.0456
   18CHTO    C6 7594   5.539   6.844   1.097 -0.3801  0.5943  0.3524
   18CHTO   H19 7595   5.508   6.876   1.197  1.7354 -0.1410  1.2576
   18CHTO    C8 7596   5.580   6.699   1.109  0.4446  0.1346  0.5533
   18CHTO   H21 7597   5.611   6.669   1.009 -2.6309  0.7773 -0.6477
   18CHTO    O7 7598   5.464   6.618   1.140 -0.3870 -0.4990 -0.1248
   18CHTO    H2 7599   5.381   6.654   1.116 -0.3957 -0.6922 -0.3863
   18CHTO   C12 7600   5.695   6.667   1.207 -0.2839 -1.0493  0.4042
   18CHTO   H25 7601   5.642   6.683   1.303 -0.7534  2.1315 -0.3365
   18CHTO    N3 7602   5.759   6.526   1.204  0.2479 -0.2179  0.4662
   18CHTO   H12 7603   5.733   6.480   1.298  1.8678 -1.2006  0.4615
   18CHTO   H13 7604   5.867   6.531   1.195  0.2262  0.5640  0.6167
   18CHTO   C15 7605   5.805   6.776   1.203 -0.4406 -0.2072  0.6506
   18CHTO   H28 7606   5.885   6.754   1.132 -1.2340 -1.7696  0.2223
   18CHTO   O10 7607   5.863   6.804   1.341  0.4811 -0.2508  0.3659
   18CHTO    H4 7608   5.946   6.760   1.344  0.8512  0.4931  0.9246
   18CHTO    O5 7609   5.758   6.909   1.175  0.8821 -0.0889 -0.1341
   18CHTO   C10 7610   5.666   6.923   1.066  0.0142  1.0072 -0.1870
   18CHTO   H23 7611   5.709   6.895   0.970 -3.2575 -1.7398 -0.9819
   18CHTO   C17 7612   5.650   7.077   1.047 -0.6641  0.2470 -0.5814
   18CHTO   O12 7613   5.584   7.103   0.919  0.2173  0.0392 -0.0313
   18CHTO    H6 7614   5.551   7.189   0.900 -1.2168 -0.3435  0.6605
   19CHTO  H203 7615   5.613   8.752   2.692  1.5082 -3.2659  0.5739
   19CHTO   O82 7616   5.554   8.728   2.761  0.2108 -0.1442  0.6295
   19CHTO  C123 7617   5.481   8.610   2.719 -0.0306 -0.1636 -0.2438
   19CHTO  H227 7618   5.398   8.644   2.655  0.0224  1.4279  0.4921
   19CHTO   O77 7619   5.567   8.538   2.612 -0.6236 -0.4275  0.2014
   19CHTO  C118 7620   5.495   8.435   2.550 -0.2204 -0.1621 -0.2953
   19CHTO  H222 7621   5.403   8.472   2.502 -0.5372 -0.4527  0.0784
   19CHTO  C125 7622   5.588   8.373   2.443 -0.1730 -0.3688 -0.2082
   19CHTO   O84 7623   5.627   8.482   2.352  0.4648  0.3016  0.2550
   19CHTO  H205 7624   5.562   8.481   2.285  0.6278  1.7185  0.0633
   19CHTO  C114 7625   5.437   8.337   2.649  0.0833  0.6720 -0.1896
   19CHTO  H218 7626   5.522   8.282   2.691  0.6109 -0.2883 -2.3994
   19CHTO  C116 7627   5.355   8.402   2.764  0.3438  0.1288 -0.2476
   19CHTO  H220 7628   5.266   8.448   2.717  0.3697 -0.0372 -0.4581
   19CHTO   O79 7629   5.302   8.300   2.856 -0.4721 -0.0909  0.4393
   19CHTO  H201 7630   5.361   8.227   2.856 -0.4419 -0.0914 -0.8654
   19CHTO  C120 7631   5.441   8.510   2.832  0.2818 -0.4378  0.7433
   19CHTO  H224 7632   5.530   8.458   2.873  0.4721  0.9291  2.0759
   19CHTO   N21 7633   5.368   8.577   2.946 -0.8164  0.0256  0.0730
   19CHTO  H211 7634   5.367   8.515   3.035 -0.0229 -0.0791  0.0176
   19CHTO  H212 7635   5.403   8.675   2.976  1.2231 -0.8736  0.7277
   19CHTO   O75 7636   5.366   8.245   2.563 -0.0762 -0.8368 -1.2383
   19CHTO  C112 7637   5.373   8.084   2.615  0.1841 -0.2278  0.0190
   19CHTO  H216 7638   5.389   8.089   2.724  1.5025  0.6239 -0.2039
   19CHTO   O73 7639   5.473   8.006   2.549  0.3565  0.6706  0.1549
   19CHTO  C113 7640   5.498   7.884   2.613 -0.6266  0.3145 -0.4112
   19CHTO  H217 7641   5.526   7.894   2.720  0.4969 -0.8357 -0.5856
   19CHTO  C124 7642   5.620   7.825   2.541 -0.3091  0.2328  0.4192
   19CHTO   O83 7643   5.699   7.762   2.644  0.1016 -0.2368 -0.4934
   19CHTO  H204 7644   5.773   7.811   2.673  1.0287 -1.9171  0.0516
   19CHTO  C109 7645   5.372   7.791   2.607 -0.2983  0.4009  0.3826
   19CHTO  H213 7646   5.348   7.778   2.501 -0.1028 -0.4146  0.4375
   19CHTO  C110 7647   5.249   7.868   2.657 -0.5584  0.6517  0.4614
   19CHTO  H214 7648   5.250   7.857   2.765 -1.5386 -0.1206  0.3983
   19CHTO   O78 7649   5.131   7.791   2.617 -0.1744  0.1403 -0.0654
   19CHTO  H200 7650   5.047   7.814   2.652 -1.1964 -2.4364 -0.7146
   19CHTO  C111 7651   5.233   8.015   2.607 -1.1777  0.0655 -1.1127
   19CHTO  H215 7652   5.210   8.019   2.499 -0.0439  0.9573 -1.3434
   19CHTO   N19 7653   5.124   8.088   2.680  0.1672 -0.1234  0.0265
   19CHTO  H207 7654   5.090   8.022   2.758  0.1785 -1.2125 -0.8742
   19CHTO  H208 7655   5.160   8.175   2.732  0.6941 -0.8999  0.9857
   19CHTO   O74 7656   5.393   7.661   2.666  0.0461  0.7356  0.0081
   19CHTO  C115 7657   5.342   7.550   2.582 -0.5019 -0.1901 -0.1201
   19CHTO  H219 7658   5.247   7.578   2.536  0.2306  1.6628 -0.5634
   19CHTO   O76 7659   5.442   7.515   2.458  0.2824  0.3615 -0.2971
   19CHTO  C122 7660   5.552   7.433   2.503  0.2284  0.3344  0.1319
   19CHTO  H226 7661   5.596   7.489   2.586  2.1795 -1.4230  0.3431
   19CHTO  C126 7662   5.664   7.414   2.395 -0.0057 -0.4414 -0.0659
   19CHTO   O85 7663   5.711   7.533   2.335 -0.1002 -0.1177 -0.5687
   19CHTO  H206 7664   5.700   7.606   2.393 -0.7150 -3.4003  3.7220
   19CHTO  C121 7665   5.499   7.296   2.566  0.1016 -0.2569 -0.6074
   19CHTO  H225 7666   5.523   7.213   2.497 -0.0686 -0.8262  0.0136
   19CHTO   O81 7667   5.570   7.259   2.685  0.2080  0.2763 -0.0731
   19CHTO  H202 7668   5.656   7.229   2.662  0.0282 -0.3035  0.0097
   19CHTO  C119 7669   5.347   7.301   2.590 -0.0972  0.8256  0.6080
   19CHTO  H223 7670   5.298   7.326   2.495  0.1419 -0.3060  0.1754
   19CHTO  C117 7671   5.314   7.432   2.681 -0.1486 -0.1946 -0.0908
   19CHTO  H221 7672   5.376   7.443   2.770 -0.2949 -0.0667 -0.0047
   19CHTO   N20 7673   5.163   7.440   2.727  0.4680 -0.1192 -0.4741
   19CHTO  H209 7674   5.111   7.345   2.733  0.9706 -0.3483  0.4261
   19CHTO  H210 7675   5.105   7.521   2.687  1.8198  2.1801  2.0394
   19CHTO   O80 7676   5.271   7.150   2.635 -0.4823 -0.0415  0.0777
   19CHTO  C103 7677   5.210   7.054   2.527 -0.6939 -0.2611 -0.2781
   19CHTO  H190 7678   5.213   7.114   2.436 -0.0893  0.8198  0.4541
   19CHTO  C101 7679   5.293   6.920   2.523 -0.5334 -0.5454  0.4109
   19CHTO  H188 7680   5.293   6.879   2.624  1.0022  0.5839  0.8929
   19CHTO   O68 7681   5.424   6.940   2.490  0.5058  0.7781  0.1086
   19CHTO  H168 7682   5.467   6.858   2.505  0.1096  0.6666  0.6651
   19CHTO   C99 7683   5.220   6.814   2.424  0.9205 -0.5511 -0.4504
   19CHTO  H186 7684   5.222   6.863   2.324 -0.2480 -0.7491 -0.5749
   19CHTO   N17 7685   5.283   6.679   2.424 -0.0358 -0.0357  0.2806
   19CHTO  H174 7686   5.373   6.690   2.483  0.4873  1.4945 -0.7791
   19CHTO  H175 7687   5.304   6.655   2.321 -0.3605 -0.9130  0.4123
   19CHTO   C97 7688   5.070   6.805   2.451 -0.3705 -0.2800  0.8198
   19CHTO  H184 7689   5.054   6.748   2.543 -3.3022  0.3921  0.7708
   19CHTO   O64 7690   5.017   6.934   2.462  0.4377  0.6017 -0.1427
   19CHTO  C104 7691   5.068   7.024   2.553  0.6335 -0.5725 -0.1209
   19CHTO  H191 7692   5.056   6.984   2.654  0.9056  0.5976  0.3843
   19CHTO  C108 7693   4.982   7.148   2.550  0.5797 -0.0362  0.0918
   19CHTO   O71 7694   4.844   7.137   2.589 -0.0958  0.2479 -0.1657
   19CHTO  H171 7695   4.798   7.074   2.538 -0.2253 -0.2725  0.5869
   19CHTO   O62 7696   5.001   6.753   2.336 -0.6023 -0.1503 -0.4209
   19CHTO   C91 7697   4.896   6.659   2.366  0.2252  0.2806 -0.3768
   19CHTO  H178 7698   4.935   6.591   2.442 -1.0540  0.6704  0.6454
   19CHTO   C92 7699   4.886   6.564   2.235 -0.0656 -0.6314  0.5095
   19CHTO  H179 7700   4.908   6.627   2.147 -0.6521  0.0081  0.8141
   19CHTO   O66 7701   4.995   6.477   2.213  0.0424 -0.2105  0.5064
   19CHTO  H166 7702   4.993   6.416   2.284  0.5579 -2.0472 -1.0207
   19CHTO   C93 7703   4.750   6.486   2.213 -0.3776 -0.0388  0.6750
   19CHTO  H180 7704   4.771   6.389   2.261  2.5221  0.1402 -0.1227
   19CHTO   N16 7705   4.720   6.449   2.075  0.3763 -0.1384  0.9363
   19CHTO  H172 7706   4.645   6.373   2.060 -0.4937  0.5994  1.4626
   19CHTO  H173 7707   4.809   6.442   2.014 -0.5528  0.0959 -0.4505
   19CHTO   C94 7708   4.632   6.553   2.287  0.3155  1.0319  0.1053
   19CHTO  H181 7709   4.600   6.644   2.236  0.1880 -0.1594 -1.9916
   19CHTO   O61 7710   4.673   6.603   2.414  0.4461 -0.0924  0.2683
   19CHTO   C95 7711   4.759   6.720   2.407  0.4187  0.4182 -0.4936
   19CHTO  H182 7712   4.724   6.789   2.330  0.7240 -0.7436 -1.7014
   19CHTO  C106 7713   4.748   6.800   2.545  0.7951 -0.6818 -0.3926
   19CHTO   O69 7714   4.621   6.864   2.559 -0.0788 -0.1379  0.6793
   19CHTO  H169 7715   4.612   6.919   2.484 -0.2776 -1.0961  0.0046
   19CHTO   O63 7716   4.512   6.451   2.311 -0.7055  0.1273 -0.4047
   19CHTO   C96 7717   4.368   6.529   2.289 -0.3831 -0.3070  0.0504
   19CHTO  H183 7718   4.392   6.606   2.215 -2.7124  1.0688  0.6934
   19CHTO   C98 7719   4.306   6.588   2.418  0.5089  0.5695 -0.4085
   19CHTO  H185 7720   4.290   6.506   2.489 -1.1063  0.4124 -0.9487
   19CHTO   O67 7721   4.391   6.691   2.477 -0.2355 -0.4968 -0.9101
   19CHTO  H167 7722   4.347   6.731   2.549  0.5885  1.9171 -1.7052
   19CHTO  C102 7723   4.164   6.654   2.385  0.2723 -0.6943 -0.5098
   19CHTO  H189 7724   4.189   6.745   2.328 -0.0245  1.2190  2.3192
   19CHTO   N18 7725   4.092   6.708   2.504  0.1223  0.0792 -0.3856
   19CHTO  H176 7726   3.998   6.755   2.480  0.3838  1.1428  0.6311
   19CHTO  H177 7727   4.156   6.779   2.554  0.0793  1.5207 -2.3432
   19CHTO  C105 7728   4.071   6.562   2.297 -0.8721 -0.7314  0.2536
   19CHTO  H192 7729   4.037   6.476   2.356  0.2507 -1.7955 -0.6208
   19CHTO   O65 7730   4.143   6.506   2.182 -0.0166 -0.9824  0.0729
   19CHTO  C100 7731   4.254   6.431   2.220 -0.4284 -0.2500 -0.4098
   19CHTO  H187 7732   4.227   6.358   2.297  1.5798  0.3358  0.8966
   19CHTO  C107 7733   4.298   6.343   2.097  0.2539 -0.1740  0.1494
   19CHTO   O70 7734   4.353   6.423   1.987 -0.7585 -0.1418 -0.6174
   19CHTO  H170 7735   4.282   6.474   1.954 -2.5550 -1.4827  1.0459
   19CHTO   O57 7736   3.936   6.663   2.253 -0.0412 -0.3998  0.0084
   19CHTO   C85 7737   3.859   6.616   2.144 -0.5908 -0.1794  0.8161
   19CHTO  H157 7738   3.872   6.506   2.138  0.1514 -0.0256 -0.4978
   19CHTO   C83 7739   3.913   6.672   2.011 -0.4070 -0.3767 -0.4526
   19CHTO  H155 7740   4.016   6.641   1.997  0.1570 -0.3798  3.2611
   19CHTO   O56 7741   3.922   6.815   2.022  0.5941  0.5363  0.0955
   19CHTO  H135 7742   3.835   6.847   2.032 -1.8739 -5.2817 -1.2604
   19CHTO   C81 7743   3.825   6.627   1.884 -0.6469  0.4631  0.1112
   19CHTO  H153 7744   3.833   6.519   1.869 -2.4888  0.2767  0.3739
   19CHTO   N14 7745   3.894   6.669   1.757 -0.1363  0.1854 -0.4683
   19CHTO  H141 7746   3.824   6.681   1.677 -0.9028 -1.0597 -0.0048
   19CHTO  H142 7747   3.973   6.605   1.725  1.7063  2.1471  0.0662
   19CHTO   C79 7748   3.667   6.666   1.910 -0.8551  0.0466  0.0045
   19CHTO  H151 7749   3.608   6.610   1.838 -0.7159  1.1054 -0.9331
   19CHTO   O52 7750   3.617   6.618   2.043  0.2057 -0.6962 -0.2694
   19CHTO   C86 7751   3.701   6.659   2.158 -0.1808 -0.2240 -0.1995
   19CHTO  H158 7752   3.697   6.770   2.158  0.6060 -0.1914 -0.2149
   19CHTO   C90 7753   3.627   6.613   2.275 -0.0829  0.4201  0.7161
   19CHTO   O60 7754   3.676   6.659   2.401 -0.6780  0.1551  0.2294
   19CHTO  H138 7755   3.769   6.663   2.400 -0.6171 -1.1095 -2.0219
   19CHTO   O50 7756   3.639   6.807   1.892  0.1446  0.1302 -0.4309
   19CHTO   C73 7757   3.561   6.920   1.877  0.4236  0.6134  0.1208
   19CHTO  H145 7758   3.458   6.900   1.841  0.4081  1.0141 -0.0610
   19CHTO   C74 7759   3.630   7.010   1.770 -0.5916  0.1531  0.8331
   19CHTO  H146 7760   3.633   6.956   1.674  1.0979  1.1193  0.3166
   19CHTO   O54 7761   3.550   7.124   1.741  0.3623 -0.3360  0.5052
   19CHTO  H133 7762   3.607   7.190   1.707  2.0441 -1.8630  0.2545
   19CHTO   C75 7763   3.767   7.051   1.819 -0.7316  0.0761  0.3952
   19CHTO  H147 7764   3.820   6.957   1.840 -1.3947 -0.3295  0.2617
   19CHTO   N13 7765   3.853   7.115   1.714  0.1462  0.0597 -0.0657
   19CHTO  H139 7766   3.792   7.127   1.626 -1.8313 -0.5828  1.1741
   19CHTO  H140 7767   3.941   7.060   1.685 -1.6992 -3.0550  0.1071
   19CHTO   C76 7768   3.745   7.132   1.949 -0.2570  0.1492 -0.4791
   19CHTO  H148 7769   3.690   7.224   1.928 -3.3519 -1.6687 -0.4815
   19CHTO   O49 7770   3.679   7.049   2.047 -0.2477 -0.0453  0.2319
   19CHTO   C77 7771   3.550   7.004   2.004 -0.0816 -0.2119  0.9523
   19CHTO  H149 7772   3.498   7.098   1.987 -0.1822 -0.4379 -0.0163
   19CHTO   C88 7773   3.472   6.927   2.114  0.1419  0.5994  0.0973
   19CHTO   O58 7774   3.348   6.845   2.062  0.3006  0.0375 -0.1457
   19CHTO  H136 7775   3.385   6.785   2.000 -0.9932  0.2743 -1.1666
   19CHTO   O51 7776   3.882   7.162   2.027  0.0853  0.2074 -0.3488
   19CHTO   C78 7777   3.860   7.254   2.172  0.3082  0.2663  0.0375
   19CHTO  H150 7778   3.773   7.217   2.229  0.8003 -3.4277 -1.5078
   19CHTO   C80 7779   3.844   7.402   2.159 -0.5365 -0.1204  0.4953
   19CHTO  H152 7780   3.929   7.446   2.102 -2.5822  1.6604 -1.3055
   19CHTO   O55 7781   3.736   7.425   2.071 -0.2429 -0.0228 -0.2636
   19CHTO  H134 7782   3.757   7.427   1.980  0.6469 -0.2488 -0.0686
   19CHTO   C84 7783   3.847   7.470   2.299  0.4434 -0.2832  0.1772
   19CHTO  H156 7784   3.764   7.430   2.357  0.6741 -0.6250  0.2760
   19CHTO   N15 7785   3.847   7.620   2.294 -0.0991 -0.1041 -0.2757
   19CHTO  H143 7786   3.922   7.653   2.226 -0.2439  0.1292 -0.3203
   19CHTO  H144 7787   3.751   7.636   2.248 -1.5260 -0.8814  2.3036
   19CHTO   C87 7788   3.976   7.424   2.374 -0.3555 -0.1741  1.0878
   19CHTO  H159 7789   4.058   7.461   2.311 -1.9073 -0.8453 -1.4051
   19CHTO   O53 7790   3.980   7.270   2.382 -0.2683  0.0150  0.1360
   19CHTO   C82 7791   3.990   7.220   2.248  0.3921  0.5049  0.5993
   19CHTO  H154 7792   4.075   7.266   2.199  1.0473 -1.5578 -0.2635
   19CHTO   C89 7793   4.026   7.068   2.261  0.5169  0.9579  0.6842
   19CHTO   O59 7794   3.916   7.000   2.321  0.2093  0.1769  0.1241
   19CHTO  H137 7795   3.942   6.910   2.322  0.3673  0.1849 -1.9621
   19CHTO   O45 7796   3.986   7.485   2.525 -0.2130 -0.3263  1.0003
   19CHTO   C67 7797   3.870   7.481   2.609  0.5465 -0.0037  0.2526
   19CHTO  H124 7798   3.778   7.505   2.555  0.0587 -1.2598  0.5054
   19CHTO   C65 7799   3.857   7.340   2.669 -0.1777 -0.0937  0.2578
   19CHTO  H122 7800   3.955   7.293   2.673  0.8063  1.9060  0.5739
   19CHTO   O44 7801   3.771   7.273   2.576 -0.3629  0.1641  0.5226
   19CHTO  H102 7802   3.722   7.204   2.618  0.2660  0.6430  2.0913
   19CHTO   C63 7803   3.817   7.347   2.815 -0.1451 -0.6447 -0.2129
   19CHTO  H120 7804   3.905   7.350   2.879 -0.4672 -0.0541  0.2087
   19CHTO   N11 7805   3.760   7.220   2.871 -0.6673  0.1694  0.3529
   19CHTO  H108 7806   3.663   7.191   2.838 -0.3288 -0.9523  0.3435
   19CHTO  H109 7807   3.831   7.143   2.847 -1.7185 -1.0592  1.1370
   19CHTO   C61 7808   3.722   7.467   2.849 -0.1246 -0.3093 -0.8536
   19CHTO  H118 7809   3.713   7.478   2.958 -1.4205 -0.2796 -0.9577
   19CHTO   O40 7810   3.775   7.590   2.801  0.2648 -0.4553 -0.4953
   19CHTO   C68 7811   3.882   7.598   2.712 -0.4542  0.4708 -0.3335
   19CHTO  H125 7812   3.979   7.590   2.764  0.0503  3.0919 -0.7656
   19CHTO   C72 7813   3.880   7.736   2.636  0.2885 -0.1303 -1.0301
   19CHTO   O48 7814   3.865   7.846   2.724 -0.0290 -0.5794 -0.2122
   19CHTO  H105 7815   3.791   7.889   2.686  0.5479  0.6054 -0.0438
   19CHTO   O38 7816   3.585   7.440   2.800 -0.0054  0.3345  0.2999
   19CHTO   C55 7817   3.491   7.548   2.779  0.2476  0.3692  0.2382
   19CHTO  H112 7818   3.547   7.642   2.788  1.8712 -0.6121  0.5938
   19CHTO   C56 7819   3.382   7.532   2.895 -0.4454  0.7811 -0.0612
   19CHTO  H113 7820   3.359   7.426   2.912  0.2916  0.9953  2.3980
   19CHTO   O42 7821   3.451   7.570   3.016 -0.2144  0.4115 -0.1099
   19CHTO  H100 7822   3.533   7.524   3.010 -1.5713 -1.9958 -0.9412
   19CHTO   C57 7823   3.256   7.616   2.863  0.1574  0.3544 -0.6519
   19CHTO  H114 7824   3.289   7.719   2.877  0.3926  0.2996 -0.8103
   19CHTO   N10 7825   3.151   7.605   2.964  0.2830 -0.0115  0.7204
   19CHTO  H106 7826   3.080   7.533   2.928  1.7971 -0.5561 -1.2220
   19CHTO  H107 7827   3.185   7.586   3.065 -0.0655 -0.1955  0.8052
   19CHTO   C58 7828   3.215   7.589   2.724  0.3127  0.9542  0.5794
   19CHTO  H115 7829   3.194   7.481   2.714 -3.6208  1.9131 -2.5546
   19CHTO   O37 7830   3.319   7.621   2.635  0.5907 -0.1102 -0.4514
   19CHTO   C59 7831   3.427   7.533   2.643 -0.1406  0.6054 -0.3674
   19CHTO  H116 7832   3.396   7.432   2.618 -0.4806  0.8264 -0.8551
   19CHTO   C70 7833   3.527   7.572   2.536 -0.3045 -0.5685 -0.5318
   19CHTO   O46 7834   3.491   7.521   2.404  0.5456 -0.2202 -0.6905
   19CHTO  H103 7835   3.537   7.568   2.337  1.0003 -0.9825 -0.9203
   19CHTO   O39 7836   3.092   7.664   2.678  0.9418  0.3346  0.0708
   19CHTO   C60 7837   2.998   7.587   2.597 -1.2762  0.0902 -0.0723
   19CHTO  H117 7838   3.031   7.485   2.578  0.4612  0.4864  0.6817
   19CHTO   C62 7839   2.856   7.586   2.672  0.0589 -0.0155 -0.8459
   19CHTO  H119 7840   2.865   7.514   2.756  3.4254  0.9438 -0.2805
   19CHTO   O43 7841   2.823   7.711   2.731  0.1543 -0.3900 -0.8362
   19CHTO  H101 7842   2.879   7.725   2.804 -0.8404 -0.3530 -0.0636
   19CHTO   C66 7843   2.741   7.530   2.564  0.1707  0.4212 -0.5505
   19CHTO  H123 7844   2.755   7.423   2.549 -1.6744 -0.1949  1.7347
   19CHTO   N12 7845   2.600   7.526   2.616  0.2637  0.4480 -0.4822
   19CHTO  H110 7846   2.584   7.449   2.689 -0.2866 -0.5404 -1.6208
   19CHTO  H111 7847   2.597   7.623   2.663  0.1385 -1.1939  3.0055
   19CHTO   C69 7848   2.748   7.609   2.432  0.5177  0.0357 -0.2919
   19CHTO  H126 7849   2.723   7.715   2.454 -0.0131  0.3604 -2.3619
   19CHTO   O41 7850   2.892   7.600   2.385  0.1664  0.0403  0.4651
   19CHTO   C64 7851   2.989   7.654   2.459  0.1449 -0.1345 -0.1273
   19CHTO  H121 7852   2.958   7.759   2.478 -0.6735 -0.6738  1.6985
   19CHTO   C71 7853   3.132   7.653   2.388  0.7092  0.2058 -0.1739
   19CHTO   O47 7854   3.184   7.528   2.354 -0.0214 -0.2955  0.2052
   19CHTO  H104 7855   3.134   7.483   2.289 -0.4425 -0.2656  0.5077
   19CHTO   O34 7856   2.657   7.558   2.323  0.7028  0.0887  0.4960
   19CHTO   C49 7857   2.571   7.649   2.248 -0.7394 -0.0275  0.5816
   19CHTO   H91 7858   2.501   7.700   2.314 -0.2482  0.5719  0.6419
   19CHTO   C47 7859   2.483   7.553   2.166  0.4655  0.0320  0.2031
   19CHTO   H89 7860   2.408   7.621   2.121 -1.7063 -0.3547  3.0753
   19CHTO   O33 7861   2.415   7.457   2.242  0.0899 -0.2384 -0.1342
   19CHTO   H70 7862   2.335   7.448   2.194 -0.0430  2.5222 -0.4799
   19CHTO   C45 7863   2.574   7.476   2.047 -0.0044 -0.0513 -0.3370
   19CHTO   H87 7864   2.592   7.374   2.086 -0.2150 -0.0183 -0.1540
   19CHTO    N8 7865   2.487   7.457   1.926 -0.0669  0.4957 -0.8008
   19CHTO   H75 7866   2.489   7.353   1.898  1.3458 -0.3545  2.3225
   19CHTO   H76 7867   2.533   7.521   1.852  1.6439  0.2040 -0.0077
   19CHTO   C43 7868   2.717   7.556   2.033  0.5697 -0.5032 -0.4278
   19CHTO   H85 7869   2.771   7.542   2.127  0.4830 -0.8615 -0.4310
   19CHTO   O29 7870   2.678   7.699   2.019  0.2421 -0.0915 -0.2323
   19CHTO   C50 7871   2.645   7.753   2.149 -0.1509  0.1461 -0.1621
   19CHTO   H92 7872   2.735   7.786   2.203 -1.3987 -1.5971  3.1015
   19CHTO   C54 7873   2.558   7.881   2.137  0.3380 -0.0966  0.1709
   19CHTO   O36 7874   2.461   7.864   2.030 -0.1400  0.6380  0.2349
   19CHTO   H72 7875   2.464   7.928   1.962  1.0115 -0.3098 -0.6029
   19CHTO   O27 7876   2.806   7.517   1.934  0.0521 -0.8319 -0.1055
   19CHTO   C37 7877   2.931   7.546   1.878  0.8291 -0.0572 -0.4560
   19CHTO   H79 7878   2.948   7.654   1.880 -0.9477  0.2730 -1.8040
   19CHTO   C38 7879   3.034   7.465   1.965  0.4225 -0.2734  0.0175
   19CHTO   H80 7880   2.997   7.362   1.974  1.4989 -0.5612  1.2645
   19CHTO   O31 7881   3.053   7.525   2.096  0.4734  0.0766  0.9055
   19CHTO   H68 7882   3.143   7.527   2.124  1.9184  1.9289 -3.3612
   19CHTO   C39 7883   3.178   7.456   1.890 -0.5123 -0.6061 -1.0240
   19CHTO   H81 7884   3.236   7.544   1.919 -0.8656 -0.6947 -0.0034
   19CHTO    N7 7885   3.268   7.349   1.945  0.3816 -0.6283  0.0395
   19CHTO   H73 7886   3.257   7.356   2.052 -0.9924 -0.1314 -0.1214
   19CHTO   H74 7887   3.369   7.366   1.910  0.1341  0.2602 -0.2540
   19CHTO   C40 7888   3.172   7.446   1.740 -0.2639  0.0226  0.1704
   19CHTO   H82 7889   3.152   7.341   1.720 -0.2817 -0.2615  1.6341
   19CHTO   O26 7890   3.069   7.534   1.690 -0.0844  0.2442  0.5848
   19CHTO   C41 7891   2.931   7.501   1.732 -0.3163  0.0191  0.0515
   19CHTO   H83 7892   2.910   7.395   1.714 -0.4598  0.0878 -0.1982
   19CHTO   C52 7893   2.819   7.576   1.643  0.4253  0.3652  0.0207
   19CHTO   O35 7894   2.825   7.708   1.641 -0.1516 -0.1028  0.6763
   19CHTO   H71 7895   2.755   7.745   1.690 -0.3954 -1.6613  1.5412
   19CHTO   O28 7896   3.286   7.497   1.668  0.2601 -0.2513  0.3944
   19CHTO   C42 7897   3.401   7.428   1.612  0.1844 -0.4584  0.2478
   19CHTO   H84 7898   3.415   7.341   1.676  0.3937  0.7681  1.9117
   19CHTO   C44 7899   3.534   7.515   1.620  0.5751  0.4747  0.4714
   19CHTO   H86 7900   3.518   7.608   1.567  0.9953  0.1810 -0.1832
   19CHTO   O32 7901   3.560   7.534   1.759  0.2258  0.1200 -0.0787
   19CHTO   H69 7902   3.613   7.610   1.772  2.2561 -1.6376  2.5104
   19CHTO   C48 7903   3.663   7.449   1.564  0.3636 -0.1949  0.0407
   19CHTO   H90 7904   3.690   7.367   1.629  0.6995 -0.1138  0.0023
   19CHTO    N9 7905   3.786   7.540   1.557 -0.0436  0.0952 -0.3855
   19CHTO   H77 7906   3.815   7.570   1.457 -1.3031 -1.1381 -1.1344
   19CHTO   H78 7907   3.873   7.495   1.600 -1.1547 -0.9839  0.7636
   19CHTO   C51 7908   3.627   7.372   1.427 -0.4814  0.3538  0.2095
   19CHTO   H93 7909   3.625   7.447   1.348 -1.1614  1.5148  1.3015
   19CHTO   O30 7910   3.503   7.303   1.432  0.1616 -0.4878  0.6590
   19CHTO   C46 7911   3.387   7.384   1.466 -0.1443  0.1624  0.8696
   19CHTO   H88 7912   3.388   7.468   1.397  0.9448 -0.3503  0.2568
   19CHTO   C53 7913   3.264   7.299   1.443 -0.0182 -0.0459 -0.0166
   19CHTO   O72 7914   3.148   7.381   1.456 -0.0745  0.2790 -0.2620
   19CHTO  H199 7915   3.074   7.345   1.411 -0.7286  3.8504 -2.2590
   19CHTO   O22 7916   3.735   7.277   1.400 -0.5512  0.3381  0.0305
   19CHTO   C31 7917   3.736   7.208   1.264 -0.7816 -0.2005 -0.0682
   19CHTO   H59 7918   3.631   7.207   1.228 -0.6164  0.2228 -0.5525
   19CHTO   C29 7919   3.824   7.289   1.160  0.0269 -0.2773 -0.2714
   19CHTO   H57 7920   3.916   7.306   1.217  0.3151 -0.0073 -0.8179
   19CHTO   O21 7921   3.757   7.411   1.142 -0.2719  0.5744 -0.3311
   19CHTO   H37 7922   3.761   7.457   1.224  0.8241 -0.2391  0.0873
   19CHTO   C27 7923   3.858   7.207   1.030 -0.1120 -0.4594 -0.2906
   19CHTO   H55 7924   3.770   7.192   0.967 -0.5518 -0.7569  0.3934
   19CHTO    N5 7925   3.962   7.276   0.946 -0.0219 -0.0294 -0.4324
   19CHTO   H43 7926   4.022   7.204   0.893  0.8145 -0.3717  0.9583
   19CHTO   H44 7927   3.922   7.342   0.870 -2.7528  1.1177  1.9182
   19CHTO   C25 7928   3.891   7.063   1.067 -0.3970  0.0735  0.1437
   19CHTO   H53 7929   3.991   7.061   1.112  0.3544 -3.0238 -1.5468
   19CHTO   O17 7930   3.783   7.001   1.145 -0.2575  0.2231  0.1367
   19CHTO   C32 7931   3.785   7.061   1.273 -0.3050 -0.1255 -0.0068
   19CHTO   H60 7932   3.887   7.064   1.311 -0.5634 -0.0214  0.6871
   19CHTO   C36 7933   3.686   6.981   1.366 -0.6647  0.0922  0.1452
   19CHTO   O25 7934   3.743   6.854   1.401 -0.0460 -0.2859  0.1240
   19CHTO   H40 7935   3.675   6.791   1.415  0.5867 -0.5136  2.3582
   19CHTO   O15 7936   3.893   6.983   0.927  0.0931  0.1339  0.1428
   19CHTO   C19 7937   3.972   6.880   0.872 -0.0441  0.0818 -0.6420
   19CHTO   H47 7938   3.934   6.874   0.769  0.7369  1.6945 -1.0286
   19CHTO   C20 7939   4.115   6.927   0.872  0.1782  0.1746 -0.6726
   19CHTO   H48 7940   4.140   6.979   0.965 -1.3451 -1.6591  0.8315
   19CHTO   O19 7941   4.112   7.035   0.776  0.0851 -0.0969 -0.7492
   19CHTO   H35 7942   4.161   7.018   0.698  2.3316 -2.0554  1.0278
   19CHTO   C21 7943   4.215   6.812   0.822  0.1800  0.4407 -0.8205
   19CHTO   H49 7944   4.213   6.808   0.713 -1.5129 -0.3427 -0.7900
   19CHTO    N4 7945   4.352   6.852   0.852  0.0570  0.7453 -0.4858
   19CHTO   H41 7946   4.376   6.921   0.773  1.2535  2.4923  1.3555
   19CHTO   H42 7947   4.421   6.769   0.844 -1.6023 -0.7879  0.6676
   19CHTO   C22 7948   4.186   6.670   0.882  0.2273  0.6172 -0.0836
   19CHTO   H50 7949   4.212   6.674   0.988 -0.1702 -0.9290  0.0741
   19CHTO   O14 7950   4.048   6.637   0.872  0.4791  0.2666 -0.3255
   19CHTO   C23 7951   3.963   6.739   0.935 -0.2977 -1.0139  0.0875
   19CHTO   H51 7952   3.990   6.743   1.042  1.8820  0.2210 -0.4812
   19CHTO   C34 7953   3.827   6.679   0.924  0.0219  0.3332 -0.3275
   19CHTO   O23 7954   3.723   6.739   1.004  0.2031 -0.1292  0.7900
   19CHTO   H38 7955   3.658   6.672   0.999  0.2690 -0.1350 -0.1846
   19CHTO   O16 7956   4.248   6.559   0.818 -0.0729  0.5834  0.1973
   19CHTO   C24 7957   4.283   6.433   0.925  0.1210 -0.1765 -0.2265
   19CHTO   H52 7958   4.246   6.452   1.026  0.1157  1.5864 -0.5484
   19CHTO   C26 7959   4.428   6.422   0.937 -1.0065  0.2217 -0.2528
   19CHTO   H54 7960   4.470   6.419   0.834  1.2923  2.8599  0.5831
   19CHTO   O20 7961   4.481   6.542   1.000  0.4656  0.3524 -0.1457
   19CHTO   H36 7962   4.571   6.534   1.024 -0.0076 -0.2886  1.5037
   19CHTO   C30 7963   4.464   6.288   1.008  0.0635 -0.3572  0.2605
   19CHTO   H58 7964   4.415   6.281   1.106 -0.5002 -2.6988 -0.1753
   19CHTO    N6 7965   4.611   6.267   1.021 -0.5925 -0.0716  0.3557
   19CHTO   H45 7966   4.638   6.170   1.060 -0.1978  0.8708  2.5230
   19CHTO   H46 7967   4.674   6.292   0.937 -0.2663 -2.0219 -0.0076
   19CHTO   C33 7968   4.399   6.172   0.931  0.2088  0.3699  0.1944
   19CHTO   H61 7969   4.432   6.181   0.827  0.1089 -0.1326  0.1226
   19CHTO   O18 7970   4.256   6.193   0.940 -0.4480 -0.1769  0.0309
   19CHTO   C28 7971   4.214   6.307   0.870 -0.9758  0.2316  0.7840
   19CHTO   H56 7972   4.241   6.299   0.764  0.9262  1.1604  1.1778
   19CHTO   C35 7973   4.055   6.309   0.868  0.9732  0.3444  0.9302
   19CHTO   O24 7974   4.006   6.221   0.761  0.0168 -0.1363 -0.3968
   19CHTO   H39 7975   3.913   6.225   0.749 -0.0743 -1.0897 -0.0075
   19CHTO    O9 7976   4.433   6.041   0.967 -1.0452 -0.0021  0.4108
   19CHTO   C13 7977   4.410   5.921   0.869 -0.6590  0.9735 -0.2858
   19CHTO   H26 7978   4.457   5.957   0.775  1.3164  0.6057  0.5420
   19CHTO   C11 7979   4.261   5.881   0.842  0.6689 -0.1371  0.0677
   19CHTO   H24 7980   4.215   5.965   0.788  0.9602 -1.0337 -1.6259
   19CHTO    O8 7981   4.196   5.867   0.967 -0.2122  0.0651 -0.3099
   19CHTO    H3 7982   4.221   5.789   1.013 -0.4472 -0.0409 -0.3654
   19CHTO    C9 7983   4.247   5.754   0.754  0.5249  0.5360 -0.3452
   19CHTO   H22 7984   4.292   5.773   0.655 -1.0879  0.6081 -1.0849
   19CHTO    N2 7985   4.108   5.725   0.719 -0.3121 -0.1044 -0.3210
   19CHTO   H10 7986   4.083   5.735   0.615  0.9314  1.1522 -0.5069
   19CHTO   H11 7987   4.027   5.766   0.778 -0.6238  2.1994 -2.3094
   19CHTO    C7 7988   4.324   5.634   0.817  0.2912 -0.5800 -0.7351
   19CHTO   H20 7989   4.331   5.548   0.746 -1.1465 -1.2259 -0.1065
   19CHTO    O4 7990   4.459   5.673   0.846  0.1634  0.6180 -0.9920
   19CHTO   C14 7991   4.494   5.789   0.923 -0.0505 -0.3338 -0.5532
   19CHTO   H27 7992   4.601   5.810   0.908  0.0495  0.3497  0.9770
   19CHTO   C18 7993   4.468   5.785   1.081 -0.5003  0.5275  0.4511
   19CHTO   O13 7994   4.547   5.882   1.153 -0.3243  0.4332  0.9912
   19CHTO    H7 7995   4.633   5.852   1.172 -0.9271 -0.7600  1.9115
   19CHTO    O2 7996   4.262   5.585   0.952  0.1915  0.2652 -0.4012
   19CHTO    C1 7997   4.239   5.446   0.961  0.3908 -0.3134 -0.2211
   19CHTO   H14 7998   4.336   5.395   0.944  0.5003 -0.1184 -0.1888
   19CHTO    C2 7999   4.116   5.387   0.870 -0.1057  0.6663  0.4006
   19CHTO   H15 8000   4.033   5.458   0.882  0.0905  0.5203  3.0287
   19CHTO    O6 8001   4.161   5.379   0.730  0.8201 -0.4291 -0.6746
   19CHTO    H1 8002   4.092   5.358   0.669 -0.1046  1.4091 -0.2936
   19CHTO    C3 8003   4.065   5.247   0.926 -0.8373 -0.5662  0.0451
   19CHTO   H16 8004   4.145   5.175   0.904 -0.2126  0.0347  0.3233
   19CHTO    N1 8005   3.943   5.206   0.856  0.5561 -0.3836  0.0929
   19CHTO    H8 8006   3.966   5.210   0.751  0.2899  0.2193  0.0531
   19CHTO    H9 8007   3.862   5.276   0.869  0.2840 -0.5784 -0.5509
   19CHTO    C4 8008   4.047   5.254   1.078 -0.3956  0.1513  0.0200
   19CHTO   H17 8009   3.977   5.334   1.104 -0.8470 -0.1631 -0.2138
   19CHTO    O1 8010   4.182   5.273   1.124  0.3223 -0.1427  0.7626
   19CHTO    C5 8011   4.222   5.412   1.107  0.3192  0.3610 -0.3499
   19CHTO   H18 8012   4.149   5.484   1.143 -0.4417 -0.8470  0.6115
   19CHTO   C16 8013   4.349   5.432   1.192  0.9494  0.0674 -0.2559
   19CHTO   O11 8014   4.334   5.427   1.331  0.1179  0.3824 -0.5783
   19CHTO    H5 8015   4.417   5.408   1.372 -0.2054 -0.3960 -0.2757
   19CHTO    O3 8016   3.998   5.134   1.144  0.1858 -0.0765 -0.0202
   19CHTO    C6 8017   3.928   5.145   1.271 -0.2819  0.0878 -0.2706
   19CHTO   H19 8018   3.953   5.238   1.322  0.9284  0.0106 -0.7086
   19CHTO    C8 8019   3.774   5.132   1.253 -0.7379  0.0708  0.1508
   19CHTO   H21 8020   3.753   5.039   1.199 -0.9261  0.7067 -0.8825
   19CHTO    O7 8021   3.721   5.237   1.164 -0.2479 -0.1508  0.2052
   19CHTO    H2 8022   3.797   5.279   1.130 -0.3069  0.5060  0.8824
   19CHTO   C12 8023   3.695   5.128   1.392  1.3123 -0.4511  0.2571
   19CHTO   H25 8024   3.718   5.226   1.438  0.1030 -0.7504  1.5434
   19CHTO    N3 8025   3.545   5.118   1.367  0.2043 -0.0596 -0.5055
   19CHTO   H12 8026   3.503   5.142   1.270 -1.7533 -0.2377  0.2796
   19CHTO   H13 8027   3.500   5.188   1.436  1.8274  1.5066 -1.0131
   19CHTO   C15 8028   3.761   5.014   1.477  0.2111 -0.2848  0.8765
   19CHTO   H28 8029   3.722   4.917   1.445 -0.0857  0.3059 -0.5821
   19CHTO   O10 8030   3.709   5.030   1.626  0.5476  0.2200  0.0124
   19CHTO    H4 8031   3.619   5.058   1.626  0.2623 -0.6666 -0.5716
   19CHTO    O5 8032   3.908   5.022   1.486  0.4739 -0.2073 -0.1236
   19CHTO   C10 8033   3.978   5.028   1.360 -0.3148  0.2468 -0.5416
   19CHTO   H23 8034   3.955   4.940   1.301  0.6780  1.3399 -2.6232
   19CHTO   C17 8035   4.130   5.033   1.390  0.2959 -0.1227  0.5187
   19CHTO   O12 8036   4.169   4.917   1.460  0.4685 -0.1690 -0.0349
   19CHTO    H6 8037   4.195   4.841   1.411 -1.8297  0.9969 -3.2497
   20CHTO  H203 8038   4.608   9.659   1.600 -2.6079 -1.6425 -1.5724
   20CHTO   O82 8039   4.660   9.660   1.522 -0.2222  0.1496 -0.0374
   20CHTO  C123 8040   4.741   9.782   1.529 -0.2739 -0.2144 -0.0548
   20CHTO  H227 8041   4.830   9.759   1.590  0.2432 -0.4426 -0.8860
   20CHTO   O77 8042   4.796   9.790   1.393 -0.3212  0.2848 -0.1866
   20CHTO  C118 8043   4.911   9.872   1.368  0.1798 -0.5385  1.0267
   20CHTO  H222 8044   4.985   9.831   1.439  2.5025  0.9589 -0.4611
   20CHTO  C125 8045   4.973   9.857   1.226 -0.3767  0.1348  0.2445
   20CHTO   O84 8046   4.988   9.720   1.188 -0.0404  0.5712  0.0393
   20CHTO  H205 8047   5.046   9.682   1.251  2.1393 -1.2734 -2.9504
   20CHTO  C114 8048   4.865  10.015   1.400 -0.3762  0.5593  0.5850
   20CHTO  H218 8049   4.795  10.049   1.324 -0.5181  0.4587  0.6725
   20CHTO  C116 8050   4.794  10.023   1.540  0.4162 -0.9319  0.0777
   20CHTO  H220 8051   4.869  10.009   1.621 -0.1336 -0.1959  0.7199
   20CHTO   O79 8052   4.748  10.159   1.559  0.2608  0.1127 -0.5579
   20CHTO  H201 8053   4.669  10.178   1.512  1.1357 -0.3661 -2.2506
   20CHTO  C120 8054   4.677   9.919   1.554 -0.2102  0.6323  0.3282
   20CHTO  H224 8055   4.591   9.935   1.487  0.5387  3.2655 -0.0546
   20CHTO   N21 8056   4.620   9.920   1.690 -0.1898 -0.6330 -1.2051
   20CHTO  H211 8057   4.516   9.893   1.678 -1.1441  2.6245 -0.5616
   20CHTO  H212 8058   4.669   9.844   1.749 -0.0474 -1.1875 -2.0167
   20CHTO   O75 8059   4.987  10.096   1.405 -0.0584  0.1534  0.2061
   20CHTO  C112 8060   4.994  10.200   1.287  0.3335 -1.1701  0.3379
   20CHTO  H216 8061   4.901  10.210   1.230  1.7733  1.4632 -1.6277
   20CHTO   O73 8062   5.107  10.166   1.200 -0.2356 -0.5005 -0.9677
   20CHTO  C113 8063   5.158  10.250   1.101 -0.7281  0.3002  0.8260
   20CHTO  H217 8064   5.077  10.275   1.029 -0.5302 -1.6586 -0.1374
   20CHTO  C124 8065   5.271  10.187   1.022  0.0645  0.4091  0.1190
   20CHTO   O83 8066   5.245  10.059   0.968  0.4366  0.1307  0.2199
   20CHTO  H204 8067   5.302  10.048   0.895 -0.1352  1.2861 -0.4142
   20CHTO  C109 8068   5.201  10.384   1.173 -0.7746  0.4450 -0.2315
   20CHTO  H213 8069   5.293  10.361   1.229 -1.2283 -0.1689  0.2788
   20CHTO  C110 8070   5.088  10.432   1.268 -0.8059  0.4277  0.2605
   20CHTO  H214 8071   5.015  10.474   1.198  1.3182  2.3994 -0.8607
   20CHTO   O78 8072   5.143  10.549   1.346  0.1790  0.2653  0.4577
   20CHTO  H200 8073   5.113  10.628   1.307  1.2602  0.2878 -0.3462
   20CHTO  C111 8074   5.022  10.336   1.361  0.9964 -0.0072 -0.3289
   20CHTO  H215 8075   5.101  10.304   1.431  0.2428 -0.8229  0.1692
   20CHTO   N19 8076   4.910  10.390   1.441  0.2910  0.2683 -0.5742
   20CHTO  H207 8077   4.945  10.477   1.494  1.3579 -1.2620  1.2934
   20CHTO  H208 8078   4.823  10.414   1.381  0.3219 -0.8464 -1.0733
   20CHTO   O74 8079   5.236  10.483   1.071 -0.1956  0.2483 -0.6561
   20CHTO  C115 8080   5.384  10.553   1.099 -0.0787  0.0798  0.8515
   20CHTO  H219 8081   5.444  10.501   1.173  2.0094  1.0440 -0.1207
   20CHTO   O76 8082   5.482  10.547   0.958 -0.3669  0.4149 -0.2339
   20CHTO  C122 8083   5.523  10.672   0.899 -0.0211 -0.3098 -0.4553
   20CHTO  H226 8084   5.541  10.667   0.791  3.7860 -0.2921  0.0909
   20CHTO  C126 8085   5.656  10.710   0.963  0.5257 -0.0422 -0.3413
   20CHTO   O85 8086   5.764  10.621   0.934 -0.9117 -0.0292  0.9732
   20CHTO  H206 8087   5.782  10.618   0.842 -0.9831 -0.0540  0.9598
   20CHTO  C121 8088   5.415  10.783   0.913 -0.8408  0.2992  1.0545
   20CHTO  H225 8089   5.463  10.873   0.868 -1.2902 -0.7636 -1.6782
   20CHTO   O81 8090   5.287  10.757   0.855 -0.1899  0.5301  0.0877
   20CHTO  H202 8091   5.239  10.836   0.868  1.4516  1.0842  3.3055
   20CHTO  C119 8092   5.386  10.823   1.066 -0.5680  0.5257  1.1079
   20CHTO  H223 8093   5.479  10.871   1.097  0.6762 -0.5128 -0.9585
   20CHTO  C117 8094   5.354  10.693   1.158 -0.5917 -0.4868  0.2747
   20CHTO  H221 8095   5.249  10.680   1.181 -2.1058  2.8506 -4.1603
   20CHTO   N20 8096   5.421  10.717   1.293 -0.4737 -0.3239  0.3636
   20CHTO  H209 8097   5.455  10.623   1.334  0.2605 -0.6829 -1.0598
   20CHTO  H210 8098   5.344  10.757   1.358  1.6911  1.4871  1.9164
   20CHTO   O80 8099   5.294  10.952   1.069  0.0738 -0.4870  0.1765
   20CHTO  C103 8100   5.138  10.937   1.067  0.1381 -0.1886  0.1173
   20CHTO  H190 8101   5.117  10.839   1.023 -0.5777 -0.3530  0.8314
   20CHTO  C101 8102   5.054  10.941   1.200 -0.4917 -0.0994  0.1937
   20CHTO  H188 8103   5.062  11.045   1.231  3.1565 -0.4681  0.6386
   20CHTO   O68 8104   5.114  10.836   1.307 -0.7503 -0.3919 -0.2334
   20CHTO  H168 8105   5.127  10.750   1.271 -0.5821 -0.4573 -0.0172
   20CHTO   C99 8106   4.903  10.927   1.174  0.0989  0.3972 -0.1184
   20CHTO  H186 8107   4.885  10.832   1.120  3.7053 -0.7156  0.4931
   20CHTO   N17 8108   4.813  10.938   1.295  0.2116 -0.1676 -0.4497
   20CHTO  H174 8109   4.763  11.033   1.302  0.7148 -0.0655  2.6563
   20CHTO  H175 8110   4.844  10.914   1.396 -2.0353  2.6861  1.0144
   20CHTO   C97 8111   4.857  11.040   1.074  0.2180 -0.2694 -0.2529
   20CHTO  H184 8112   4.891  11.134   1.120  0.5443  0.3577 -1.7544
   20CHTO   O64 8113   4.924  11.012   0.953 -0.4421 -0.1126  0.6421
   20CHTO  C104 8114   5.071  11.041   0.963  0.1814 -0.2386 -0.6313
   20CHTO  H191 8115   5.099  11.142   0.995  1.9195 -0.7364 -0.5404
   20CHTO  C108 8116   5.131  11.024   0.823 -0.4999  0.0195  0.4008
   20CHTO   O71 8117   5.064  11.087   0.717 -0.0419 -0.5620  0.1367
   20CHTO  H171 8118   5.030  11.170   0.743 -1.3106 -0.4456 -1.8452
   20CHTO   O62 8119   4.714  11.045   1.039  0.4185  0.4773 -0.0710
   20CHTO   C91 8120   4.669  11.166   0.975 -0.0029 -0.3708  0.6202
   20CHTO  H178 8121   4.754  11.230   0.953  0.8199 -1.5970  0.1872
   20CHTO   C92 8122   4.572  11.240   1.070  0.5803 -0.2949 -0.4022
   20CHTO  H179 8123   4.497  11.168   1.106  1.4308 -1.6227 -1.2615
   20CHTO   O66 8124   4.648  11.277   1.176 -0.1993  0.1383 -1.1999
   20CHTO  H166 8125   4.592  11.319   1.238  0.0610 -3.2002  1.4108
   20CHTO   C93 8126   4.499  11.360   0.994  0.6095 -0.3577  0.1992
   20CHTO  H180 8127   4.573  11.436   0.966  0.8239 -0.1988  1.1564
   20CHTO   N16 8128   4.398  11.431   1.079 -0.0972  0.0796  0.8510
   20CHTO  H172 8129   4.338  11.503   1.025 -0.0551  0.5698  1.4486
   20CHTO  H173 8130   4.332  11.365   1.134  0.1015 -0.7863  0.0474
   20CHTO   C94 8131   4.430  11.307   0.863 -0.3421  0.1595  0.1732
   20CHTO  H181 8132   4.352  11.233   0.882 -0.2704 -0.4206 -1.6843
   20CHTO   O61 8133   4.532  11.255   0.777 -0.7806 -0.0945  0.5945
   20CHTO   C95 8134   4.592  11.135   0.830 -0.6004  0.3507 -0.4466
   20CHTO  H182 8135   4.517  11.056   0.834 -0.1825 -0.0576 -0.6392
   20CHTO  C106 8136   4.693  11.088   0.724 -0.7260  0.0173 -0.2850
   20CHTO   O69 8137   4.745  10.958   0.751  0.3835 -0.0462  0.4558
   20CHTO  H169 8138   4.772  10.913   0.674 -0.5808 -1.4661  0.9085
   20CHTO   O63 8139   4.372  11.436   0.782  0.4381  0.2126 -0.3875
   20CHTO   C96 8140   4.322  11.418   0.642  0.6073 -0.4074 -0.7040
   20CHTO  H183 8141   4.353  11.323   0.598  1.9265 -0.1140 -0.4283
   20CHTO   C98 8142   4.349  11.540   0.543  0.1059  0.0826 -0.2426
   20CHTO  H185 8143   4.321  11.632   0.596  0.1356  0.2108 -0.4476
   20CHTO   O67 8144   4.490  11.545   0.531  0.5698  0.3263  0.0078
   20CHTO  H167 8145   4.522  11.571   0.447 -0.0547  0.5692 -0.1579
   20CHTO  C102 8146   4.271  11.525   0.406  0.2385 -0.6463  0.2626
   20CHTO  H189 8147   4.319  11.440   0.354 -0.2003 -0.2031 -0.8971
   20CHTO   N18 8148   4.286  11.634   0.304  0.2329 -0.6797  0.2893
   20CHTO  H176 8149   4.345  11.609   0.217 -1.1448  1.0188 -1.1871
   20CHTO  H177 8150   4.322  11.727   0.346  0.9202 -0.0450 -1.6674
   20CHTO  C105 8151   4.127  11.490   0.438  0.3338 -0.0130  1.0162
   20CHTO  H192 8152   4.081  11.577   0.485  0.2551  0.3704  0.2416
   20CHTO   O65 8153   4.110  11.373   0.520 -0.1296  0.3558  0.7068
   20CHTO  C100 8154   4.164  11.394   0.650  0.4258  0.1954  0.6325
   20CHTO  H187 8155   4.119  11.486   0.692 -2.6899 -0.2667 -1.5290
   20CHTO  C107 8156   4.122  11.281   0.743  0.1305 -0.0913 -0.4409
   20CHTO   O70 8157   3.989  11.238   0.738  0.2461  0.3740  0.0368
   20CHTO  H170 8158   3.970  11.146   0.735  1.4408  0.0949  0.6435
   20CHTO   O57 8159   4.043  11.461   0.284  0.5327  0.0812  0.0634
   20CHTO   C85 8160   4.056  11.331   0.209 -0.1380  0.1910  0.4263
   20CHTO  H157 8161   4.124  11.269   0.271  1.6622  2.1086  0.4383
   20CHTO   C83 8162   4.133  11.358   0.079 -0.5254 -0.2940 -0.7816
   20CHTO  H155 8163   4.233  11.392   0.105  0.6642 -3.6221 -0.7499
   20CHTO   O56 8164   4.076  11.468   0.003  0.7617 -0.4690  0.1991
   20CHTO  H135 8165   4.138  11.509  -0.053 -0.1143  0.5047 -0.0740
   20CHTO   C81 8166   4.150  11.222  -0.002  0.5013  0.4435 -0.0541
   20CHTO  H153 8167   4.203  11.148   0.057  0.0089 -0.6087 -0.9227
   20CHTO   N14 8168   4.228  11.229  -0.128  0.0402 -0.4243  0.3108
   20CHTO  H141 8169   4.318  11.283  -0.108 -1.1124  1.0958  1.5501
   20CHTO  H142 8170   4.251  11.132  -0.166 -0.9383 -1.7017  2.8915
   20CHTO   C79 8171   4.000  11.167  -0.030 -0.2294 -0.0387 -0.3593
   20CHTO  H151 8172   4.012  11.069  -0.076 -1.6041 -0.6407  0.5526
   20CHTO   O52 8173   3.927  11.141   0.096  0.0533 -0.1805 -0.1406
   20CHTO   C86 8174   3.920  11.262   0.179 -0.1954 -0.3267 -0.7042
   20CHTO  H158 8175   3.855  11.331   0.122  1.0659  0.5149 -1.1492
   20CHTO   C90 8176   3.853  11.223   0.312 -0.0383  0.0763  0.3988
   20CHTO   O60 8177   3.909  11.120   0.394  0.3237  0.4328  0.1363
   20CHTO  H138 8178   3.841  11.077   0.442  0.3206 -1.7579 -1.7228
   20CHTO   O50 8179   3.934  11.251  -0.127 -0.2916 -0.3812 -0.2339
   20CHTO   C73 8180   3.840  11.269  -0.235  1.2037 -0.5521 -0.1621
   20CHTO  H145 8181   3.842  11.172  -0.286  0.1216 -1.5631  1.6917
   20CHTO   C74 8182   3.890  11.385  -0.327  0.1255 -0.0859  0.2866
   20CHTO  H146 8183   3.995  11.352  -0.335  0.3074  0.4938  0.2606
   20CHTO   O54 8184   3.818  11.373  -0.450  0.2966 -0.1544 -0.4198
   20CHTO  H133 8185   3.813  11.451  -0.501  0.7450 -1.6682 -2.8864
   20CHTO   C75 8186   3.871  11.522  -0.247 -0.4663  0.6543 -0.6755
   20CHTO  H147 8187   3.942  11.526  -0.163 -0.1157  0.5847 -0.9645
   20CHTO   N13 8188   3.903  11.639  -0.330 -0.1057  0.2450 -0.3264
   20CHTO  H139 8189   3.815  11.693  -0.362  0.2474  0.5043 -0.8867
   20CHTO  H140 8190   3.956  11.714  -0.272  1.4830  0.4298 -1.9434
   20CHTO   C76 8191   3.725  11.534  -0.181 -0.3671  1.0933 -0.6273
   20CHTO  H148 8192   3.650  11.541  -0.260 -1.5271  0.3575  0.3846
   20CHTO   O49 8193   3.697  11.410  -0.107  0.0739 -0.6475  0.1315
   20CHTO   C77 8194   3.698  11.295  -0.183 -0.1182  0.0876 -0.1758
   20CHTO  H149 8195   3.631  11.303  -0.269  1.8627  0.1514 -1.7616
   20CHTO   C88 8196   3.638  11.177  -0.102 -0.1219 -0.0125 -0.4924
   20CHTO   O58 8197   3.627  11.059  -0.194  0.4331  0.5084  0.2275
   20CHTO  H136 8198   3.541  11.023  -0.190  1.0540 -1.1850 -0.9462
   20CHTO   O51 8199   3.722  11.671  -0.066 -0.6384  0.1971 -0.1400
   20CHTO   C78 8200   3.757  11.639   0.085  0.5794  0.4121 -1.1029
   20CHTO  H150 8201   3.840  11.566   0.096  0.0629  0.1688  1.5820
   20CHTO   C80 8202   3.627  11.592   0.167 -0.2123 -1.1662  0.5273
   20CHTO  H152 8203   3.541  11.652   0.130  1.2561  0.9841  0.4996
   20CHTO   O55 8204   3.593  11.453   0.139 -0.2844 -0.7120 -0.0744
   20CHTO  H134 8205   3.541  11.418   0.208  1.3852 -0.6028  1.2872
   20CHTO   C84 8206   3.645  11.612   0.326  0.0312 -0.1591  0.9063
   20CHTO  H156 8207   3.716  11.542   0.369  0.9571 -0.8818 -1.6843
   20CHTO   N15 8208   3.522  11.584   0.409 -0.3367  0.4580 -0.0686
   20CHTO  H143 8209   3.488  11.484   0.424 -3.7032  1.8142  1.7430
   20CHTO  H144 8210   3.511  11.634   0.502 -0.0500  3.6354 -1.6953
   20CHTO   C87 8211   3.713  11.749   0.348  0.2648 -0.6106  0.2236
   20CHTO  H159 8212   3.644  11.825   0.311  0.4322 -0.6214 -0.1062
   20CHTO   O53 8213   3.854  11.753   0.274  0.1852 -0.0372  0.5332
   20CHTO   C82 8214   3.814  11.774   0.134  0.2663 -0.1264 -0.0024
   20CHTO  H154 8215   3.740  11.854   0.134  1.6304  1.2239 -2.8659
   20CHTO   C89 8216   3.932  11.837   0.055 -0.4298  0.3194  0.3848
   20CHTO   O59 8217   4.052  11.747   0.057 -0.8707  0.1232  0.4256
   20CHTO  H137 8218   4.044  11.672   0.002  0.3903  0.9984 -0.9733
   20CHTO   O45 8219   3.744  11.791   0.501 -0.1925  0.0990 -0.1510
   20CHTO   C67 8220   3.849  11.724   0.575 -0.2373  0.1727 -0.0513
   20CHTO  H124 8221   3.880  11.642   0.510 -0.1799 -0.2219  0.4713
   20CHTO   C65 8222   3.967  11.818   0.611 -0.1588  0.1567 -0.1665
   20CHTO  H122 8223   3.993  11.868   0.518 -0.2867  0.4342 -0.0530
   20CHTO   O44 8224   4.081  11.745   0.657  0.0036  0.3932 -0.6677
   20CHTO  H102 8225   4.078  11.722   0.748  1.7830 -0.2540 -0.7531
   20CHTO   C63 8226   3.914  11.932   0.712  0.5304  0.1297  0.0656
   20CHTO  H120 8227   3.822  11.974   0.671  1.1226 -1.7341 -3.2578
   20CHTO   N11 8228   4.007  12.051   0.733  0.7288 -0.0957 -0.2033
   20CHTO  H108 8229   4.107  12.047   0.697  0.1721 -2.0172 -1.6442
   20CHTO  H109 8230   3.955  12.139   0.763  1.2208 -0.6129  2.2701
   20CHTO   C61 8231   3.875  11.854   0.850 -0.0766 -0.3933  0.0747
   20CHTO  H118 8232   3.812  11.925   0.905  1.9328 -0.2975  2.3405
   20CHTO   O40 8233   3.799  11.733   0.828  0.6516 -0.0009 -0.3218
   20CHTO   C68 8234   3.783  11.660   0.705  0.9054  0.1670 -0.4054
   20CHTO  H125 8235   3.675  11.646   0.686  0.4165 -0.1735  2.3366
   20CHTO   C72 8236   3.837  11.516   0.732 -0.1644 -0.0694 -0.4415
   20CHTO   O48 8237   3.749  11.424   0.792 -0.3733 -0.2188  0.2385
   20CHTO  H105 8238   3.742  11.442   0.884  0.4007 -0.4104  0.3416
   20CHTO   O38 8239   3.987  11.820   0.934 -0.7112 -0.3059  0.3133
   20CHTO   C55 8240   3.973  11.802   1.075  0.1649 -0.0360 -0.0954
   20CHTO  H112 8241   3.870  11.767   1.093  0.4826 -0.4803  0.8719
   20CHTO   C56 8242   4.010  11.928   1.166  0.0338 -0.0541 -0.0384
   20CHTO  H113 8243   4.105  11.970   1.131  0.3114 -1.5812 -1.0997
   20CHTO   O42 8244   3.918  12.032   1.132  0.0279 -0.3103 -0.3133
   20CHTO  H100 8245   3.956  12.074   1.057 -0.4515 -1.6511 -1.3182
   20CHTO   C57 8246   4.012  11.896   1.317 -0.4567 -0.3056  0.6162
   20CHTO  H114 8247   3.909  11.879   1.349 -1.4053  0.6687 -1.8443
   20CHTO   N10 8248   4.069  12.004   1.404 -0.0767 -0.2032 -0.6767
   20CHTO  H106 8249   4.174  12.030   1.405 -0.7543  2.6699  0.0185
   20CHTO  H107 8250   4.034  11.968   1.499 -0.9981  0.3869 -0.7877
   20CHTO   C58 8251   4.085  11.762   1.344 -0.4374  0.1601 -0.4861
   20CHTO  H115 8252   4.195  11.776   1.332 -0.3421  2.1847  2.1673
   20CHTO   O37 8253   4.040  11.656   1.265 -0.0013  0.1054 -0.6740
   20CHTO   C59 8254   4.054  11.674   1.125 -0.9602  0.4807 -0.7421
   20CHTO  H116 8255   4.160  11.679   1.099 -0.6413  1.2871  0.6783
   20CHTO   C70 8256   4.021  11.540   1.057 -0.2829 -0.0846 -0.3510
   20CHTO   O46 8257   3.889  11.487   1.064 -0.4974 -0.2429 -0.4135
   20CHTO  H103 8258   3.835  11.534   1.124 -1.0598  0.3395 -1.3582
   20CHTO   O39 8259   4.042  11.705   1.507  0.0880 -0.4373  0.2703
   20CHTO   C60 8260   4.097  11.576   1.543  0.2267  0.2751 -0.1685
   20CHTO  H117 8261   4.056  11.499   1.478 -0.3442  1.9952 -1.9108
   20CHTO   C62 8262   4.255  11.576   1.532 -0.3227 -0.1634 -0.1935
   20CHTO  H119 8263   4.264  11.590   1.423 -0.3509  0.0339 -0.1720
   20CHTO   O43 8264   4.322  11.681   1.607  0.4292 -0.1231 -0.2397
   20CHTO  H101 8265   4.408  11.708   1.582  0.3116  1.2505  0.7794
   20CHTO   C66 8266   4.299  11.425   1.569 -0.1560 -0.5130  0.1502
   20CHTO  H123 8267   4.228  11.360   1.517  0.4604  0.4807 -1.9994
   20CHTO   N12 8268   4.444  11.400   1.531  0.5238  0.5977 -0.3229
   20CHTO  H110 8269   4.451  11.367   1.429 -0.6118  0.5858 -0.4078
   20CHTO  H111 8270   4.497  11.493   1.549 -1.7524  1.8079  0.3694
   20CHTO   C69 8271   4.268  11.408   1.714  0.5782  0.0065 -0.1501
   20CHTO  H126 8272   4.310  11.474   1.793  0.8732 -2.3566  1.7344
   20CHTO   O41 8273   4.100  11.408   1.727 -0.0579  0.3466 -0.0852
   20CHTO   C64 8274   4.061  11.548   1.694  0.1537 -0.4610  0.2465
   20CHTO  H121 8275   4.113  11.618   1.763  0.9603 -1.3378  0.5380
   20CHTO   C71 8276   3.907  11.554   1.725 -0.2420  0.2672  0.2326
   20CHTO   O47 8277   3.835  11.469   1.634  0.5388  0.7776  0.1513
   20CHTO  H104 8278   3.742  11.473   1.639  0.2110 -2.1001 -2.4506
   20CHTO   O34 8279   4.319  11.261   1.757 -0.1378 -0.0474 -0.1612
   20CHTO   C49 8280   4.261  11.127   1.712 -0.5811  1.1222 -0.4205
   20CHTO   H91 8281   4.242  11.137   1.605  1.0924 -4.1978 -1.3577
   20CHTO   C47 8282   4.129  11.102   1.779  0.0921  0.4007 -1.0936
   20CHTO   H89 8283   4.053  11.162   1.726  0.3079  3.2061  1.6212
   20CHTO   O33 8284   4.122  11.144   1.915  0.2878  0.1298 -0.4611
   20CHTO   H70 8285   4.119  11.067   1.968 -0.6223 -0.3842 -1.2509
   20CHTO   C45 8286   4.091  10.943   1.771  0.3289  0.8680 -0.3453
   20CHTO   H87 8287   4.106  10.903   1.873 -0.7104  1.2535 -0.0373
   20CHTO    N8 8288   3.950  10.926   1.743 -0.1596 -0.3178 -0.0690
   20CHTO   H75 8289   3.932  10.821   1.728 -2.6614  0.1537 -0.6500
   20CHTO   H76 8290   3.918  10.981   1.656  1.0948  0.7502  0.1281
   20CHTO   C43 8291   4.185  10.855   1.677 -0.3973  0.2659  0.4286
   20CHTO   H85 8292   4.158  10.750   1.686 -1.4722  0.4857 -0.2776
   20CHTO   O29 8293   4.326  10.879   1.697  0.3335  0.0634  0.7224
   20CHTO   C50 8294   4.369  11.014   1.725 -0.3107  0.0811  0.4170
   20CHTO   H92 8295   4.434  11.030   1.813 -0.0268  0.2836  0.1737
   20CHTO   C54 8296   4.483  11.030   1.627  0.2112  0.4006  0.1333
   20CHTO   O36 8297   4.467  11.032   1.483 -0.3235 -0.9577 -0.7153
   20CHTO   H72 8298   4.411  11.105   1.464  2.6438  1.9410  1.1657
   20CHTO   O27 8299   4.164  10.887   1.538 -0.5289 -0.0324  0.0436
   20CHTO   C37 8300   4.138  10.820   1.415  0.0685  0.2348  0.5396
   20CHTO   H79 8301   4.054  10.752   1.434  0.4813 -0.0827  1.2387
   20CHTO   C38 8302   4.104  10.923   1.311 -0.4559  0.1985 -0.0741
   20CHTO   H80 8303   4.181  11.001   1.316  1.4629 -1.6311 -0.3296
   20CHTO   O31 8304   3.977  10.977   1.343 -0.7968 -0.5580  0.0208
   20CHTO   H68 8305   3.962  11.059   1.301 -1.1411 -0.0520  1.1167
   20CHTO   C39 8306   4.110  10.867   1.155  0.2455 -0.3202 -0.0960
   20CHTO   H81 8307   4.026  10.799   1.140 -1.3158  1.5609 -0.0799
   20CHTO    N7 8308   4.098  10.972   1.053  0.2884 -0.0999 -0.2308
   20CHTO   H73 8309   4.141  10.934   0.962  2.4548 -0.0553  0.7353
   20CHTO   H74 8310   3.992  10.990   1.044  0.3871  0.1541 -0.8647
   20CHTO   C40 8311   4.240  10.777   1.139 -0.9042  0.0931  0.3083
   20CHTO   H82 8312   4.330  10.838   1.138 -0.3504 -0.7242  0.0767
   20CHTO   O26 8313   4.243  10.682   1.245  0.3241  0.1036 -0.6561
   20CHTO   C41 8314   4.268  10.735   1.376  0.0666  0.2552 -0.1628
   20CHTO   H83 8315   4.355  10.801   1.363  1.4307 -1.9389 -2.4533
   20CHTO   C52 8316   4.304  10.609   1.460 -0.7745  0.2179  0.0556
   20CHTO   O35 8317   4.175  10.528   1.474  0.1727 -0.0513  0.4106
   20CHTO   H71 8318   4.124  10.563   1.544  0.3215  0.5172  0.2378
   20CHTO   O28 8319   4.241  10.711   1.014 -0.2061 -0.0765  0.4386
   20CHTO   C42 8320   4.361  10.635   0.961  0.1182 -0.5784 -0.3658
   20CHTO   H84 8321   4.326  10.544   0.914 -3.4619  0.5319  0.0133
   20CHTO   C44 8322   4.477  10.591   1.064 -0.2007  0.6065  0.7584
   20CHTO   H86 8323   4.509  10.676   1.124 -1.9531  1.4584  0.5214
   20CHTO   O32 8324   4.430  10.496   1.169 -0.1921 -0.5685  0.1372
   20CHTO   H69 8325   4.369  10.431   1.138 -1.2163  0.0651  0.7912
   20CHTO   C48 8326   4.606  10.534   0.991 -0.7058 -0.0587 -0.2167
   20CHTO   H90 8327   4.581  10.429   0.977 -0.8607 -0.0094 -0.3023
   20CHTO    N9 8328   4.720  10.527   1.090  0.8327 -0.7178 -0.0954
   20CHTO   H77 8329   4.790  10.446   1.076  1.4784 -0.5173  1.7786
   20CHTO   H78 8330   4.759  10.627   1.097 -0.1097 -0.4800  2.2874
   20CHTO   C51 8331   4.642  10.603   0.858 -0.1821 -0.5280  0.6464
   20CHTO   H93 8332   4.693  10.695   0.887 -0.3247 -0.3190  0.2375
   20CHTO   O30 8333   4.525  10.633   0.777 -0.7245 -0.3383  0.3642
   20CHTO   C46 8334   4.413  10.724   0.846 -1.0390 -0.5544  0.2898
   20CHTO   H88 8335   4.461  10.816   0.879  3.8173 -2.5966 -0.6340
   20CHTO   C53 8336   4.314  10.756   0.740 -0.8906 -0.3365 -0.1729
   20CHTO   O72 8337   4.360  10.864   0.651 -0.4306  0.1869 -0.4730
   20CHTO  H199 8338   4.430  10.830   0.599 -0.3229  0.0566 -0.2425
   20CHTO   O22 8339   4.734  10.522   0.780 -0.5071  0.6550  0.4893
   20CHTO   C31 8340   4.801  10.572   0.659 -0.6269 -0.4465 -0.2845
   20CHTO   H59 8341   4.849  10.483   0.614  0.9762  0.2893 -0.0758
   20CHTO   C29 8342   4.713  10.638   0.551  0.2787 -0.4887  0.2013
   20CHTO   H57 8343   4.651  10.721   0.584  0.3159 -0.9757  1.5069
   20CHTO   O21 8344   4.619  10.537   0.508 -0.1664  0.1806  0.3769
   20CHTO   H37 8345   4.554  10.516   0.572 -1.2971 -1.0272 -1.1199
   20CHTO   C27 8346   4.803  10.695   0.433 -0.7898 -0.0199 -0.2531
   20CHTO   H55 8347   4.857  10.607   0.392 -0.0975  0.5277 -0.5273
   20CHTO    N5 8348   4.731  10.759   0.321  0.1600  0.1177  0.2815
   20CHTO   H43 8349   4.800  10.802   0.250  0.1894  2.0933  1.4639
   20CHTO   H44 8350   4.675  10.680   0.274 -1.8125  1.7116 -0.1219
   20CHTO   C25 8351   4.916  10.793   0.491  0.0485 -0.2719 -0.6668
   20CHTO   H53 8352   4.867  10.876   0.545  1.0324 -0.2641  0.2217
   20CHTO   O17 8353   4.991  10.721   0.593 -0.2163  0.6337  0.0602
   20CHTO   C32 8354   4.917  10.666   0.701 -0.2735  0.4193  0.1067
   20CHTO   H60 8355   4.873  10.755   0.747  1.1032  1.2638 -0.1995
   20CHTO   C36 8356   5.018  10.610   0.810  0.1751  1.1882 -0.1378
   20CHTO   O25 8357   5.078  10.498   0.747  0.2774  1.2318 -0.6922
   20CHTO   H40 8358   5.094  10.427   0.806 -1.1574  1.4069 -0.0803
   20CHTO   O15 8359   5.028  10.838   0.380  0.0272  0.3214  0.5451
   20CHTO   C19 8360   5.179  10.837   0.372 -0.6569  0.2466  0.1525
   20CHTO   H47 8361   5.187  10.874   0.269 -0.8910 -3.1980 -1.1671
   20CHTO   C20 8362   5.236  10.943   0.466 -0.4671  0.3048  0.8558
   20CHTO   H48 8363   5.223  10.913   0.571 -1.8370  0.8410  0.8548
   20CHTO   O19 8364   5.167  11.069   0.441 -0.3112  0.7657  0.3432
   20CHTO   H35 8365   5.185  11.128   0.512  0.5521  1.7133 -0.6448
   20CHTO   C21 8366   5.390  10.959   0.438  0.1135 -0.1171  0.4117
   20CHTO   H49 8367   5.414  10.981   0.334  3.9684 -1.3763  0.9669
   20CHTO    N4 8368   5.461  11.059   0.520  0.4057  0.3831 -0.3503
   20CHTO   H41 8369   5.400  11.100   0.600 -1.1609  0.1716 -1.4148
   20CHTO   H42 8370   5.504  11.138   0.460  1.0746  0.9373  0.8216
   20CHTO   C22 8371   5.462  10.818   0.449 -0.1006 -0.0503 -0.3829
   20CHTO   H50 8372   5.444  10.775   0.548  0.6009  0.5572  0.0103
   20CHTO   O14 8373   5.397  10.732   0.350  0.1332  0.1807 -0.6254
   20CHTO   C23 8374   5.258  10.702   0.376 -0.5300  0.3903  0.1543
   20CHTO   H51 8375   5.251  10.650   0.473  0.4152 -1.6983 -0.8808
   20CHTO   C34 8376   5.200  10.607   0.263  0.2249  0.0975 -0.0610
   20CHTO   O23 8377   5.291  10.496   0.251  0.1081  0.1217 -0.2385
   20CHTO   H38 8378   5.342  10.503   0.173  1.1231  0.2979  0.4342
   20CHTO   O16 8379   5.597  10.809   0.405 -0.2070  0.0836  0.2588
   20CHTO   C24 8380   5.688  10.706   0.470 -0.0347 -0.2751  0.3110
   20CHTO   H52 8381   5.639  10.650   0.549 -0.7999  1.7812  1.3551
   20CHTO   C26 8382   5.798  10.796   0.537  0.2662 -0.1420  0.4201
   20CHTO   H54 8383   5.857  10.843   0.456  0.8415  0.2959  1.0860
   20CHTO   O20 8384   5.726  10.877   0.627  0.1359 -0.1154 -0.3258
   20CHTO   H36 8385   5.738  10.963   0.591  1.9825  0.6541  2.0611
   20CHTO   C30 8386   5.891  10.698   0.612 -0.5074 -0.7460 -0.1733
   20CHTO   H58 8387   5.850  10.650   0.702 -0.6376  0.9586  0.7125
   20CHTO    N6 8388   6.002  10.787   0.670  0.0174 -0.0359  0.2747
   20CHTO   H45 8389   6.067  10.717   0.719  0.9233  0.3007 -0.4230
   20CHTO   H46 8390   6.057  10.847   0.598  0.8267 -0.0166  0.9100
   20CHTO   C33 8391   5.947  10.591   0.511 -0.6509  0.5272  0.1513
   20CHTO   H61 8392   6.015  10.645   0.443 -1.5624  0.7741 -0.5738
   20CHTO   O18 8393   5.842  10.525   0.443  0.4410 -0.1529 -0.4792
   20CHTO   C28 8394   5.752  10.610   0.372  0.9018  0.5310 -0.3712
   20CHTO   H56 8395   5.800  10.673   0.297  0.0385 -0.0308 -1.4061
   20CHTO   C35 8396   5.649  10.523   0.304 -0.0712  0.3817 -0.1398
   20CHTO   O24 8397   5.577  10.433   0.384  0.1875  0.8492 -0.5638
   20CHTO   H39 8398   5.507  10.482   0.422  0.7243  0.0940  1.4733
   20CHTO    O9 8399   6.028  10.501   0.577  0.2941 -0.4061  0.2535
   20CHTO   C13 8400   6.162  10.420   0.490 -0.8342 -0.4104  0.3624
   20CHTO   H26 8401   6.223  10.508   0.458  0.1582  0.0312  3.3010
   20CHTO   C11 8402   6.107  10.336   0.363 -0.2122 -0.3573  0.4780
   20CHTO   H24 8403   6.096  10.404   0.278  0.6680 -1.4051 -0.4734
   20CHTO    O8 8404   5.977  10.289   0.393  0.2876 -0.6266 -0.0507
   20CHTO    H3 8405   5.963  10.253   0.478 -0.5540 -2.9307 -1.1174
   20CHTO    C9 8406   6.212  10.231   0.330 -0.0877  0.3051 -0.5804
   20CHTO   H22 8407   6.309  10.282   0.315 -0.3741  0.3561 -2.3765
   20CHTO    N2 8408   6.184  10.156   0.206 -0.3458 -0.0845  0.0040
   20CHTO   H10 8409   6.277  10.117   0.169  0.0561  2.6652 -2.0350
   20CHTO   H11 8410   6.149  10.230   0.136 -1.5893  0.3100  1.0177
   20CHTO    C7 8411   6.232  10.132   0.450  0.0373 -0.1349 -0.3483
   20CHTO   H20 8412   6.330  10.082   0.435  0.2945  0.2373  0.0797
   20CHTO    O4 8413   6.219  10.205   0.580  0.4244  0.0350 -0.4283
   20CHTO   C14 8414   6.249  10.343   0.585 -0.0571 -0.2554  0.2660
   20CHTO   H27 8415   6.352  10.350   0.545  0.2014 -1.8325  0.6109
   20CHTO   C18 8416   6.251  10.403   0.724 -0.4277 -0.2411 -0.0786
   20CHTO   O13 8417   6.346  10.513   0.731 -0.1353  0.1736  0.0023
   20CHTO    H7 8418   6.432  10.478   0.745 -0.4146  0.2200  2.0495
   20CHTO    O2 8419   6.112  10.021   0.450 -0.1843  0.7059 -0.3648
   20CHTO    C1 8420   6.106   9.943   0.564 -0.7634  0.7714  0.0933
   20CHTO   H14 8421   6.127  10.001   0.656  0.5346  1.2043 -0.4631
   20CHTO    C2 8422   6.202   9.816   0.553  0.1713 -0.2442 -0.0342
   20CHTO   H15 8423   6.173   9.775   0.455  0.9835  0.3055 -0.5188
   20CHTO    O6 8424   6.344   9.859   0.559  0.1975 -0.0357  0.2320
   20CHTO    H1 8425   6.363   9.916   0.487  0.1423 -0.5268 -0.1744
   20CHTO    C3 8426   6.166   9.702   0.660  0.5306  0.5715  0.0331
   20CHTO   H16 8427   6.187   9.732   0.764  0.7342 -4.4563  1.5354
   20CHTO    N1 8428   6.235   9.565   0.640 -0.0351  0.0998  0.0336
   20CHTO    H8 8429   6.340   9.584   0.652  0.0181  0.9039 -1.5908
   20CHTO    H9 8430   6.223   9.535   0.537  3.0284  2.9983 -1.2512
   20CHTO    C4 8431   6.006   9.675   0.661  0.7965 -0.3920 -0.3564
   20CHTO   H17 8432   5.971   9.633   0.566 -1.6641  1.7547 -0.4333
   20CHTO    O1 8433   5.941   9.801   0.683  0.0267 -0.1453  0.1692
   20CHTO    C5 8434   5.954   9.896   0.576 -0.2894  0.5364 -0.1082
   20CHTO   H18 8435   5.921   9.860   0.478  0.7178  0.4538 -0.4275
   20CHTO   C16 8436   5.863  10.012   0.621  0.3447  0.5179  0.2040
   20CHTO   O11 8437   5.733   9.984   0.563 -0.1652 -0.3706  0.3351
   20CHTO    H5 8438   5.745  10.001   0.471  1.0919  0.9970  0.7382
   20CHTO    O3 8439   5.961   9.591   0.767  0.1252 -0.2165 -0.0369
   20CHTO    C6 8440   5.820   9.548   0.758  0.3076  0.6232  0.0123
   20CHTO   H19 8441   5.762   9.591   0.676  2.1034  0.5161 -1.3245
   20CHTO    C8 8442   5.821   9.399   0.728 -0.0315 -1.0658 -0.6230
   20CHTO   H21 8443   5.875   9.350   0.809  0.7820  1.8711  0.6771
   20CHTO    O7 8444   5.878   9.371   0.602  0.4290 -0.3228 -0.4659
   20CHTO    H2 8445   5.877   9.278   0.589 -3.6800  0.0101 -3.2143
   20CHTO   C12 8446   5.679   9.342   0.731  0.2382 -0.2194  0.5646
   20CHTO   H25 8447   5.633   9.387   0.641  0.0670  2.3625  1.9070
   20CHTO    N3 8448   5.672   9.196   0.727  0.1642  0.1098 -0.3397
   20CHTO   H12 8449   5.690   9.155   0.826 -0.2269  1.1774  0.1812
   20CHTO   H13 8450   5.745   9.156   0.659  3.3483  1.4736  2.1298
   20CHTO   C15 8451   5.598   9.390   0.855 -0.5060 -1.3307  0.4383
   20CHTO   H28 8452   5.630   9.353   0.952  1.5939  0.1189  0.3202
   20CHTO   O10 8453   5.443   9.385   0.839 -0.0062 -0.0407 -0.2400
   20CHTO    H4 8454   5.423   9.389   0.747 -0.3448  0.4017 -0.1516
   20CHTO    O5 8455   5.606   9.530   0.869  0.3964  0.1354  0.4693
   20CHTO   C10 8456   5.741   9.579   0.887 -0.7143 -0.0310  0.5767
   20CHTO   H23 8457   5.789   9.528   0.970  0.4656  1.2589  0.7061
   20CHTO   C17 8458   5.720   9.728   0.911  0.6764 -0.7805  0.0315
   20CHTO   O12 8459   5.827   9.793   0.978 -0.8641  0.9938  0.2775
   20CHTO    H6 8460   5.824   9.804   1.071  2.3227 -2.8616  0.9943
   21GLOH   H03 8461   3.227   7.889   0.532  0.7711  0.4916 -1.0018
   21GLOH    O1 8462   3.205   7.970   0.483 -0.2565  0.4959 -0.5400
   21GLOH    C1 8463   3.130   8.058   0.569  0.5579 -0.0742 -0.0406
   21GLOH   H02 8464   3.200   8.100   0.641  0.6218 -2.5650  1.4262
   21GLOH   H08 8465   3.061   8.000   0.632 -2.1063  3.1635  0.1479
   21GLOH    C2 8466   3.056   8.170   0.490 -0.4056  0.3046  0.5137
   21GLOH   H04 8467   2.982   8.115   0.431  0.2449 -1.7068  1.5104
   21GLOH    O2 8468   2.993   8.262   0.577  0.2743 -0.4185  0.3534
   21GLOH   H05 8469   3.056   8.293   0.644  0.3270  0.3767 -0.0626
   21GLOH    C3 8470   3.156   8.253   0.405  0.0235  0.2796  0.1074
   21GLOH   H06 8471   3.221   8.310   0.472  0.6408  1.6322 -1.6165
   21GLOH   H07 8472   3.098   8.325   0.348  1.0786  0.7435 -0.3905
   21GLOH    O3 8473   3.233   8.186   0.309  0.6630 -0.1879  0.5558
   21GLOH   H01 8474   3.314   8.155   0.354  1.2667  1.8830  0.9472
   22GLOH   H03 8475   3.752   8.262   2.415 -0.9167 -1.4771  1.2916
   22GLOH    O1 8476   3.667   8.309   2.412 -0.2803 -0.4003 -0.2896
   22GLOH    C1 8477   3.692   8.447   2.369 -0.1733  0.0919  0.0529
   22GLOH   H02 8478   3.766   8.440   2.289  0.1729  1.0536  0.2755
   22GLOH   H08 8479   3.743   8.500   2.450  0.4868 -1.4089  0.6327
   22GLOH    C2 8480   3.560   8.522   2.333 -0.9375  0.4647  0.2495
   22GLOH   H04 8481   3.586   8.628   2.322  1.1653  0.0083  0.5180
   22GLOH    O2 8482   3.497   8.468   2.214  0.4744  0.2113  0.4783
   22GLOH   H05 8483   3.556   8.458   2.138 -2.3014  2.0181 -1.9845
   22GLOH    C3 8484   3.455   8.506   2.445  0.1095 -0.0576 -0.9988
   22GLOH   H06 8485   3.452   8.401   2.475  2.3296  0.1773  0.1424
   22GLOH   H07 8486   3.355   8.529   2.408  0.2267 -1.1078 -1.9939
   22GLOH    O3 8487   3.495   8.581   2.555  0.8758 -0.6421  0.0843
   22GLOH   H01 8488   3.486   8.676   2.536 -1.7339 -0.5460  1.6079
   23GLOH   H03 8489   3.184   0.390   2.443  2.7817 -0.9802 -0.2482
   23GLOH    O1 8490   3.174   0.439   2.360  0.3963 -0.0832  0.5577
   23GLOH    C1 8491   3.146   0.349   2.247 -0.0744  0.0133 -0.0613
   23GLOH   H02 8492   3.038   0.352   2.228  0.1309  0.1307 -1.2567
   23GLOH   H08 8493   3.164   0.243   2.264 -0.4181  0.1161  0.9688
   23GLOH    C2 8494   3.218   0.390   2.114  0.2940 -0.6519 -0.1077
   23GLOH   H04 8495   3.323   0.393   2.147 -0.5820 -1.9680  2.8907
   23GLOH    O2 8496   3.194   0.294   2.013 -0.2629  0.0468  0.2484
   23GLOH   H05 8497   3.231   0.322   1.927  1.0104 -0.3599  0.6422
   23GLOH    C3 8498   3.161   0.530   2.081  0.0210 -0.8850 -0.9617
   23GLOH   H06 8499   3.052   0.525   2.087 -0.1139  1.2612 -1.3523
   23GLOH   H07 8500   3.189   0.567   1.983  1.5161 -0.3515 -0.3558
   23GLOH    O3 8501   3.201   0.625   2.181 -0.5766  0.3675  1.2405
   23GLOH   H01 8502   3.186   0.583   2.268  0.4771 -1.4094  0.5901
   24GLOH   H03 8503   3.075   9.535   2.600 -0.8333  1.2643 -0.0809
   24GLOH    O1 8504   2.995   9.481   2.585 -0.0232  0.1125 -0.3251
   24GLOH    C1 8505   2.928   9.467   2.707 -0.3380  0.1691  0.3989
   24GLOH   H02 8506   2.939   9.558   2.766 -2.4145  1.2147 -0.7588
   24GLOH   H08 8507   2.984   9.398   2.770  0.0284 -0.4388 -0.5679
   24GLOH    C2 8508   2.772   9.439   2.699 -0.0584  0.6219  0.1294
   24GLOH   H04 8509   2.714   9.526   2.666 -2.0299 -1.1040 -1.1585
   24GLOH    O2 8510   2.742   9.330   2.602 -0.3919 -0.1347 -0.4995
   24GLOH   H05 8511   2.810   9.316   2.534  1.0944 -0.1807  0.9661
   24GLOH    C3 8512   2.726   9.396   2.841 -0.4955  0.1309 -0.2629
   24GLOH   H06 8513   2.790   9.310   2.863 -1.0852  0.0587  1.2367
   24GLOH   H07 8514   2.625   9.357   2.850 -1.1840  1.7936 -0.7720
   24GLOH    O3 8515   2.748   9.493   2.940  0.0572 -0.5631  0.0565
   24GLOH   H01 8516   2.730   9.457   3.029  0.1253  1.6240  1.0101
   25GLOH   H03 8517   3.845   8.250   0.851 -2.6420  0.1554  1.6799
   25GLOH    O1 8518   3.806   8.213   0.769  0.0729  0.1161  0.3568
   25GLOH    C1 8519   3.702   8.304   0.738 -0.5775 -0.0474  0.1264
   25GLOH   H02 8520   3.732   8.409   0.745 -0.8596 -0.0580  1.7644
   25GLOH   H08 8521   3.619   8.296   0.808 -2.1110 -0.2203 -1.6735
   25GLOH    C2 8522   3.641   8.274   0.597  0.1909  0.9306 -0.8938
   25GLOH   H04 8523   3.718   8.234   0.530  0.0514 -0.8675 -0.0045
   25GLOH    O2 8524   3.542   8.170   0.599 -0.0294 -0.3226 -0.1206
   25GLOH   H05 8525   3.478   8.180   0.671 -1.0613 -2.3175 -0.7237
   25GLOH    C3 8526   3.580   8.404   0.544 -0.7586  0.3401  0.2324
   25GLOH   H06 8527   3.529   8.466   0.618 -1.5177  1.2387 -1.0187
   25GLOH   H07 8528   3.513   8.373   0.464  0.6429  0.9867 -1.2125
   25GLOH    O3 8529   3.680   8.486   0.476 -0.0617  0.0962 -0.1801
   25GLOH   H01 8530   3.693   8.440   0.392  2.1415 -2.1882  1.3395
   26GLOH   H03 8531   4.616   9.394   0.415  1.4179  0.6993  1.0148
   26GLOH    O1 8532   4.604   9.303   0.449 -0.6881  0.6388  0.1452
   26GLOH    C1 8533   4.571   9.298   0.589  0.2500 -0.4689  0.0567
   26GLOH   H02 8534   4.623   9.380   0.639 -1.3663 -0.6847  2.1466
   26GLOH   H08 8535   4.594   9.201   0.634 -3.0676 -1.5431 -0.4117
   26GLOH    C2 8536   4.422   9.314   0.621 -0.8528 -0.0947  0.2016
   26GLOH   H04 8537   4.369   9.226   0.581 -0.8423 -0.3299  0.7101
   26GLOH    O2 8538   4.399   9.320   0.766 -0.5687 -0.1473  0.3388
   26GLOH   H05 8539   4.306   9.318   0.793 -0.6786  0.1342 -0.0146
   26GLOH    C3 8540   4.360   9.440   0.561  0.2122  0.0308  0.0236
   26GLOH   H06 8541   4.426   9.525   0.580  1.0151 -0.3924 -0.8298
   26GLOH   H07 8542   4.274   9.457   0.625  0.7084 -0.5920  0.8787
   26GLOH    O3 8543   4.324   9.425   0.422 -0.1263  0.4182  0.5012
   26GLOH   H01 8544   4.311   9.516   0.388 -0.2057 -0.0803 -0.8273
   27GLOH   H03 8545   4.006   8.296   1.017 -0.8427  0.0994  0.8597
   27GLOH    O1 8546   3.917   8.314   0.982 -0.8047 -0.2421  0.5810
   27GLOH    C1 8547   3.872   8.416   1.065  0.5727  0.9213  0.3572
   27GLOH   H02 8548   3.953   8.484   1.093  0.4310  1.0078  0.5596
   27GLOH   H08 8549   3.825   8.377   1.156  0.9867  3.4367  1.7127
   27GLOH    C2 8550   3.761   8.506   1.006 -1.5366 -0.2767 -0.3071
   27GLOH   H04 8551   3.798   8.541   0.909  2.0109 -0.4456  0.9388
   27GLOH    O2 8552   3.637   8.434   0.992 -0.4628  1.0715  0.1195
   27GLOH   H05 8553   3.651   8.341   1.019  1.2560  0.9878 -1.0045
   27GLOH    C3 8554   3.746   8.628   1.097  0.5668  0.1302  0.5053
   27GLOH   H06 8555   3.727   8.590   1.197 -0.8865  0.0948  0.2209
   27GLOH   H07 8556   3.658   8.681   1.061 -1.6755 -2.5694  1.8227
   27GLOH    O3 8557   3.861   8.714   1.101 -0.2686 -0.1707  0.4075
   27GLOH   H01 8558   3.920   8.697   1.025 -0.0334 -1.6118  0.9031
   28GLOH   H03 8559   3.870   0.267   1.650  0.3989  0.4896 -1.0696
   28GLOH    O1 8560   3.862   0.180   1.606 -0.1299  0.0562 -0.1435
   28GLOH    C1 8561   3.998   0.122   1.620 -0.2452  0.0565 -0.2651
   28GLOH   H02 8562   4.003   0.032   1.560  2.3379  1.1948 -1.8391
   28GLOH   H08 8563   4.010   0.090   1.724 -0.6589  0.9119  0.0592
   28GLOH    C2 8564   4.117   0.214   1.580  0.3059 -0.1633  0.5350
   28GLOH   H04 8565   4.128   0.298   1.650 -0.7303 -1.5838  2.4214
   28GLOH    O2 8566   4.248   0.147   1.580 -0.1091  0.7892 -0.1618
   28GLOH   H05 8567   4.254   0.090   1.502  0.0143  0.4140  0.1231
   28GLOH    C3 8568   4.079   0.269   1.435  0.1286 -0.4948 -0.6517
   28GLOH   H06 8569   4.159   0.333   1.397  0.6353 -0.3204  0.6748
   28GLOH   H07 8570   3.991   0.332   1.443  0.6089 -0.0390  1.4111
   28GLOH    O3 8571   4.054   0.169   1.334  0.7171  0.2154 -0.6229
   28GLOH   H01 8572   4.140   0.138   1.302  0.7565  0.5263 -0.8259
   29GLOH   H03 8573   3.408   0.747   0.017 -1.0713 -1.3077  0.8896
   29GLOH    O1 8574   3.411   0.783   0.107 -0.2111  0.0428  0.3447
   29GLOH    C1 8575   3.530   0.863   0.112  0.7588 -0.1187 -1.2346
   29GLOH   H02 8576   3.554   0.899   0.212  1.4499  1.6682 -2.0301
   29GLOH   H08 8577   3.514   0.951   0.050 -1.3415  0.2759 -0.2079
   29GLOH    C2 8578   3.651   0.784   0.050  0.5194 -0.3523  0.4656
   29GLOH   H04 8579   3.637   0.675   0.061  1.3957 -0.6216 -0.9638
   29GLOH    O2 8580   3.655   0.819  -0.092  0.0841  0.2912  0.4296
   29GLOH   H05 8581   3.574   0.781  -0.132 -0.3678  0.7449  0.9035
   29GLOH    C3 8582   3.778   0.822   0.130  0.1402 -0.3252 -0.6221
   29GLOH   H06 8583   3.784   0.930   0.126 -3.3346  0.0219  1.5615
   29GLOH   H07 8584   3.864   0.780   0.077  0.9302 -1.2470  1.3288
   29GLOH    O3 8585   3.781   0.770   0.267  0.6075 -0.2647  0.1133
   29GLOH   H01 8586   3.833   0.688   0.268  1.8541  0.5078 -0.4365
   30GLOH   H03 8587   3.827   8.725   0.613  2.0929  0.4244  0.0961
   30GLOH    O1 8588   3.841   8.739   0.708 -0.5037  0.4382  0.5025
   30GLOH    C1 8589   3.887   8.873   0.731  0.0806  0.8010 -0.1016
   30GLOH   H02 8590   3.829   8.932   0.803 -1.5426 -0.1408 -0.6113
   30GLOH   H08 8591   3.861   8.926   0.639 -0.0586  2.3359  0.8016
   30GLOH    C2 8592   4.039   8.878   0.755 -0.4935 -0.8446  0.0965
   30GLOH   H04 8593   4.094   8.817   0.682 -1.1399 -0.4132 -0.7617
   30GLOH    O2 8594   4.072   9.018   0.730  0.1117 -0.0101 -0.2587
   30GLOH   H05 8595   4.158   9.019   0.684  1.2550  3.8052  1.7817
   30GLOH    C3 8596   4.076   8.827   0.896 -0.2464  0.5356  0.2932
   30GLOH   H06 8597   4.035   8.889   0.975  0.7905  1.5997  0.0107
   30GLOH   H07 8598   4.185   8.832   0.904 -0.2147 -1.1002  1.1907
   30GLOH    O3 8599   4.030   8.694   0.916  0.6112 -0.3132  0.3231
   30GLOH   H01 8600   4.043   8.622   0.850 -2.8664 -2.0978  1.4633
   31GLOH   H03 8601   3.652   0.190   0.137  0.1010  1.5083  2.8751
   31GLOH    O1 8602   3.614   0.105   0.163  0.1991  0.3120 -0.5826
   31GLOH    C1 8603   3.693   0.003   0.083  0.2575  0.8306 -0.0115
   31GLOH   H02 8604   3.786  -0.020   0.136 -0.3297 -1.3959  0.0905
   31GLOH   H08 8605   3.708   0.035  -0.020 -3.7727 -0.4015 -1.0452
   31GLOH    C2 8606   3.610  -0.127   0.076 -0.3022 -0.0142  0.5014
   31GLOH   H04 8607   3.510  -0.106   0.035 -1.4624 -0.7703  2.8030
   31GLOH    O2 8608   3.689  -0.222   0.002  0.1109 -0.5283  0.0852
   31GLOH   H05 8609   3.655  -0.214  -0.089  1.3236  2.9681 -0.1184
   31GLOH    C3 8610   3.570  -0.190   0.215 -0.2112 -0.3030 -0.1124
   31GLOH   H06 8611   3.659  -0.227   0.266 -0.1968  0.6211  0.5501
   31GLOH   H07 8612   3.499  -0.272   0.200  0.0362  0.0235 -3.3972
   31GLOH    O3 8613   3.516  -0.085   0.299  0.0963 -0.6179  0.1158
   31GLOH   H01 8614   3.550  -0.004   0.257 -0.2654 -0.2587  0.5121
   32GLOH   H03 8615   2.750   9.829   0.919 -0.4818 -0.4582  1.3336
   32GLOH    O1 8616   2.706   9.769   0.857 -0.3709  0.4679  0.3426
   32GLOH    C1 8617   2.659   9.663   0.941  0.6881 -0.0846  0.0533
   32GLOH   H02 8618   2.553   9.638   0.930  0.8664 -2.0991  2.3171
   32GLOH   H08 8619   2.676   9.696   1.044  3.7850  1.5146 -0.9149
   32GLOH    C2 8620   2.738   9.539   0.933 -0.7571  0.6940 -0.0377
   32GLOH   H04 8621   2.841   9.570   0.956 -1.3629  0.5115  3.1250
   32GLOH    O2 8622   2.689   9.433   1.018 -0.1634  0.1995 -0.2174
   32GLOH   H05 8623   2.709   9.451   1.111 -1.3567  0.4916 -0.0102
   32GLOH    C3 8624   2.738   9.476   0.793  0.8240  0.1616  0.0195
   32GLOH   H06 8625   2.634   9.444   0.778  0.4937  1.4369 -0.4550
   32GLOH   H07 8626   2.799   9.387   0.779 -0.0084 -0.0078 -2.9533
   32GLOH    O3 8627   2.784   9.568   0.690 -0.0288  0.3592 -0.8347
   32GLOH   H01 8628   2.759   9.661   0.708 -0.2837 -0.1875  1.7111
   33GLOH   H03 8629   4.011   9.517   2.009  1.2006 -1.2332 -1.0499
   33GLOH    O1 8630   3.945   9.466   1.960  0.4338 -0.9059 -0.3633
   33GLOH    C1 8631   3.833   9.555   1.931  0.3628  0.3512 -0.4073
   33GLOH   H02 8632   3.872   9.655   1.916 -0.2554  0.8319  1.0660
   33GLOH   H08 8633   3.768   9.560   2.018  0.5311 -2.6326 -0.0464
   33GLOH    C2 8634   3.747   9.508   1.813  0.0575  0.1159 -0.1458
   33GLOH   H04 8635   3.711   9.404   1.813 -0.1811  0.1777 -1.7494
   33GLOH    O2 8636   3.622   9.582   1.808 -0.3594 -0.3990  0.4821
   33GLOH   H05 8637   3.632   9.644   1.734  3.8414 -1.5677 -0.0549
   33GLOH    C3 8638   3.832   9.516   1.680 -0.9791  0.5762  0.1274
   33GLOH   H06 8639   3.835   9.622   1.656 -0.0113  0.6809  0.6888
   33GLOH   H07 8640   3.787   9.464   1.595 -1.5628 -1.2430  1.5263
   33GLOH    O3 8641   3.972   9.479   1.703 -0.2609  0.4256 -0.0250
   33GLOH   H01 8642   3.980   9.461   1.799 -0.6651 -0.3743 -0.1393
   34GLOH   H03 8643   3.949   9.104   2.667  0.8780 -0.4411  2.2606
   34GLOH    O1 8644   3.885   9.169   2.702  0.0160  0.0659 -0.2130
   34GLOH    C1 8645   3.950   9.276   2.774  0.1000  0.3611  0.1028
   34GLOH   H02 8646   3.965   9.241   2.877  1.9512 -1.7415 -0.8417
   34GLOH   H08 8647   3.883   9.362   2.779 -0.1443  0.1350  0.6771
   34GLOH    C2 8648   4.091   9.320   2.721  1.2374 -0.6441  0.3012
   34GLOH   H04 8649   4.145   9.225   2.708  2.3384  0.0648 -0.3653
   34GLOH    O2 8650   4.079   9.395   2.601 -0.1537  0.5490  0.4174
   34GLOH   H05 8651   4.168   9.403   2.564 -0.1388  2.1433  0.7562
   34GLOH    C3 8652   4.173   9.384   2.831  1.2292 -0.3908 -0.0700
   34GLOH   H06 8653   4.116   9.470   2.868  1.4584  0.2881 -1.2623
   34GLOH   H07 8654   4.269   9.423   2.798  1.1378  0.4801  0.6891
   34GLOH    O3 8655   4.198   9.293   2.932  0.6363  0.1703  0.0257
   34GLOH   H01 8656   4.241   9.342   3.004  1.5133  1.3468 -1.2565
   35GLOH   H03 8657   3.877   0.495   2.219  2.1468  0.4336 -1.1403
   35GLOH    O1 8658   3.843   0.575   2.173 -0.5546 -0.0726 -0.1162
   35GLOH    C1 8659   3.805   0.680   2.262  0.0183  0.3100 -0.5787
   35GLOH   H02 8660   3.828   0.644   2.363 -0.8706 -0.8057 -0.7571
   35GLOH   H08 8661   3.698   0.701   2.263 -0.1622 -0.5985  0.6312
   35GLOH    C2 8662   3.898   0.800   2.239  0.1006 -0.3582  0.4136
   35GLOH   H04 8663   4.002   0.765   2.249  0.2838  0.6889  2.3586
   35GLOH    O2 8664   3.879   0.865   2.113  0.0531  0.0988  0.3537
   35GLOH   H05 8665   3.902   0.799   2.046  0.0245  2.1137 -1.7123
   35GLOH    C3 8666   3.868   0.906   2.345 -0.2141  0.7215 -0.8764
   35GLOH   H06 8667   3.764   0.935   2.354 -0.3536 -0.1390  0.4569
   35GLOH   H07 8668   3.913   1.001   2.318  3.0832 -0.0378  1.5554
   35GLOH    O3 8669   3.915   0.863   2.481 -0.0743 -0.3067  0.1121
   35GLOH   H01 8670   3.834   0.839   2.529 -0.3959 -2.5089 -1.4381
   36GLOH   H03 8671   4.058   9.486   1.551 -0.7656  3.4490  0.4768
   36GLOH    O1 8672   4.091   9.508   1.462  0.6470  0.9683  0.3499
   36GLOH    C1 8673   4.006   9.611   1.420  0.9473 -0.0488 -0.0999
   36GLOH   H02 8674   3.985   9.688   1.493 -0.0283 -1.4255  1.0975
   36GLOH   H08 8675   3.904   9.575   1.401  0.6425 -0.0791  1.5872
   36GLOH    C2 8676   4.060   9.670   1.290  0.1576  0.1893 -0.7878
   36GLOH   H04 8677   4.077   9.592   1.214  0.5584 -1.9837  1.4526
   36GLOH    O2 8678   3.955   9.762   1.247 -0.4205  0.0894 -0.0082
   36GLOH   H05 8679   3.957   9.755   1.150  0.7666  0.7818 -0.0367
   36GLOH    C3 8680   4.192   9.748   1.325  0.9586 -0.0237 -0.3597
   36GLOH   H06 8681   4.265   9.685   1.377  3.1047  1.9113 -0.9196
   36GLOH   H07 8682   4.158   9.829   1.389  0.8075 -0.9279  0.7418
   36GLOH    O3 8683   4.259   9.812   1.214 -0.1643 -0.1188 -0.2363
   36GLOH   H01 8684   4.288   9.753   1.142 -0.1581  0.8866 -1.0863
   37GLOH   H03 8685   3.851   0.256   0.093  0.5111  0.9962  3.9342
   37GLOH    O1 8686   3.764   0.295   0.116 -0.8404  0.4902 -0.0050
   37GLOH    C1 8687   3.788   0.427   0.166  0.2758 -0.5056 -0.2002
   37GLOH   H02 8688   3.694   0.483   0.160  0.2142 -0.5736  0.0869
   37GLOH   H08 8689   3.856   0.481   0.101 -0.8973 -1.5410 -2.3397
   37GLOH    C2 8690   3.852   0.438   0.302  0.1601  0.6241 -0.2971
   37GLOH   H04 8691   3.924   0.356   0.316  1.2533  1.5018 -0.6322
   37GLOH    O2 8692   3.923   0.565   0.309  0.1059  0.1768 -0.3519
   37GLOH   H05 8693   4.000   0.548   0.366 -0.1494 -0.0725 -0.0790
   37GLOH    C3 8694   3.745   0.428   0.408  0.1555 -0.0640 -0.1778
   37GLOH   H06 8695   3.678   0.514   0.402 -0.5954 -0.6725 -0.5593
   37GLOH   H07 8696   3.788   0.421   0.508 -1.0579 -1.1575  0.2658
   37GLOH    O3 8697   3.660   0.313   0.407  0.2935  0.2511  0.4205
   37GLOH   H01 8698   3.583   0.331   0.350  1.5660  0.6156 -1.2295
   38GLOH   H03 8699   3.107   7.939   2.107 -0.1630  0.1315 -0.3268
   38GLOH    O1 8700   3.194   7.907   2.078 -0.1458 -0.1790  0.0538
   38GLOH    C1 8701   3.175   7.842   1.951  0.3183 -0.5062  0.4063
   38GLOH   H02 8702   3.101   7.761   1.949 -0.6586  0.2926  2.4601
   38GLOH   H08 8703   3.268   7.788   1.935  0.2910 -1.6331  3.7187
   38GLOH    C2 8704   3.149   7.924   1.821  0.0048  0.1708  1.1770
   38GLOH   H04 8705   3.231   7.997   1.817 -0.6763  0.8844  0.0346
   38GLOH    O2 8706   3.163   7.844   1.692  0.1815  0.2956 -0.1723
   38GLOH   H05 8707   3.098   7.883   1.630 -0.3072 -1.8569 -1.0626
   38GLOH    C3 8708   3.009   7.993   1.840  0.4274  0.1620  0.6256
   38GLOH   H06 8709   2.945   7.906   1.861  0.7583 -0.6982 -1.7803
   38GLOH   H07 8710   2.987   8.039   1.744 -1.8158 -0.2857  0.8945
   38GLOH    O3 8711   2.982   8.090   1.943 -0.0578 -0.2844 -0.0339
   38GLOH   H01 8712   3.039   8.167   1.926 -1.1415  0.5535  0.0473
   39GLOH   H03 8713   4.027   8.029   2.090 -0.5240 -2.0160 -2.7582
   39GLOH    O1 8714   4.066   8.090   2.025 -0.0286  0.0854 -0.5501
   39GLOH    C1 8715   3.965   8.116   1.928 -0.8929 -0.1409 -0.4478
   39GLOH   H02 8716   3.894   8.184   1.974  1.4231  2.5134 -0.6337
   39GLOH   H08 8717   3.916   8.027   1.890  0.0374  0.2645 -2.6775
   39GLOH    C2 8718   4.033   8.178   1.809  0.0709 -0.6009 -0.8205
   39GLOH   H04 8719   4.097   8.104   1.759  0.2279 -0.7083 -0.4612
   39GLOH    O2 8720   3.939   8.221   1.708 -0.6450  0.0365 -0.3378
   39GLOH   H05 8721   3.936   8.142   1.651 -0.8333 -1.0660  1.1686
   39GLOH    C3 8722   4.121   8.301   1.845 -0.3491 -0.2562 -1.0236
   39GLOH   H06 8723   4.178   8.332   1.757 -2.0297  0.9593 -1.7073
   39GLOH   H07 8724   4.183   8.279   1.932 -1.0879  0.0711 -0.4079
   39GLOH    O3 8725   4.044   8.407   1.900  0.0803 -0.0590 -0.0229
   39GLOH   H01 8726   3.960   8.423   1.854  0.7618  0.3009 -1.1571
   40GLOH   H03 8727   2.682   8.299   0.000 -1.7339  3.1603 -1.1088
   40GLOH    O1 8728   2.629   8.252  -0.067 -0.0941 -0.2037 -0.1665
   40GLOH    C1 8729   2.694   8.235  -0.194 -1.3082 -0.5818 -0.0734
   40GLOH   H02 8730   2.802   8.231  -0.176 -1.5284 -0.3088  1.3721
   40GLOH   H08 8731   2.670   8.326  -0.248  2.6430 -0.2726 -1.5040
   40GLOH    C2 8732   2.641   8.117  -0.276 -0.1047  0.0015  0.5512
   40GLOH   H04 8733   2.538   8.140  -0.310  0.0872  0.3603  0.2084
   40GLOH    O2 8734   2.723   8.098  -0.391  0.5787  0.1821  0.8414
   40GLOH   H05 8735   2.681   8.158  -0.455  0.1904 -0.5606  0.3913
   40GLOH    C3 8736   2.635   7.989  -0.192  0.0888  0.0848 -0.0051
   40GLOH   H06 8737   2.735   7.951  -0.171  1.0443  2.1304 -0.8199
   40GLOH   H07 8738   2.589   7.909  -0.251 -1.6031  1.1530 -0.1676
   40GLOH    O3 8739   2.565   8.020  -0.065  0.3573  0.0847 -0.3771
   40GLOH   H01 8740   2.571   8.118  -0.067 -2.6103  0.3124 -0.6848
   41GLOH   H03 8741   3.294   0.225   1.507 -0.0632  0.3858 -0.6205
   41GLOH    O1 8742   3.284   0.313   1.549 -0.7742  0.0167  0.0046
   41GLOH    C1 8743   3.411   0.382   1.569 -0.5311  0.6568  0.3154
   41GLOH   H02 8744   3.402   0.488   1.546 -0.9210  0.4594 -0.4549
   41GLOH   H08 8745   3.488   0.335   1.508  0.3743  1.0337  1.1630
   41GLOH    C2 8746   3.469   0.386   1.712 -0.9732  0.0200 -0.1861
   41GLOH   H04 8747   3.494   0.286   1.749  0.2155 -0.3855 -2.0302
   41GLOH    O2 8748   3.590   0.469   1.705 -0.0077  0.5844  0.3953
   41GLOH   H05 8749   3.567   0.563   1.713  2.1174  1.1296  0.4918
   41GLOH    C3 8750   3.367   0.450   1.810 -0.1166 -0.2856 -0.4621
   41GLOH   H06 8751   3.365   0.556   1.785 -0.5630 -0.2391 -0.2354
   41GLOH   H07 8752   3.402   0.443   1.913 -2.6018 -0.0525  0.4259
   41GLOH    O3 8753   3.234   0.401   1.794 -0.2709  0.1165  0.3313
   41GLOH   H01 8754   3.225   0.380   1.700 -0.5290 -0.2177  0.4293
   42GLOH   H03 8755   4.071   9.779   2.142 -2.5768 -0.1644 -1.7958
   42GLOH    O1 8756   4.020   9.858   2.167 -0.5875  0.4906  0.3786
   42GLOH    C1 8757   4.109   9.974   2.179  0.3931  0.3150 -0.1353
   42GLOH   H02 8758   4.076  10.041   2.259  0.6276 -1.2426  1.3103
   42GLOH   H08 8759   4.091  10.038   2.093 -1.5798  0.4618  0.3667
   42GLOH    C2 8760   4.259   9.947   2.205 -0.4182  0.5989  0.0145
   42GLOH   H04 8761   4.273   9.868   2.281  3.3070  1.1219 -0.0427
   42GLOH    O2 8762   4.328   9.903   2.082  0.1752  0.4019 -0.5681
   42GLOH   H05 8763   4.324   9.981   2.024  2.5133  0.9852 -0.0111
   42GLOH    C3 8764   4.328  10.065   2.281  0.4342 -0.7242 -0.5709
   42GLOH   H06 8765   4.320  10.149   2.213 -2.8537 -0.2721  0.2938
   42GLOH   H07 8766   4.435  10.049   2.293  0.3681  0.8229  2.5314
   42GLOH    O3 8767   4.258  10.103   2.401 -0.1649  0.1454 -0.2719
   42GLOH   H01 8768   4.255  10.025   2.460 -1.9593 -1.8766 -2.8902
   43GLOH   H03 8769   3.823   9.470   2.277 -1.4895  0.4094 -0.5279
   43GLOH    O1 8770   3.844   9.562   2.256  0.0231  0.2126  0.0619
   43GLOH    C1 8771   3.798   9.652   2.354  0.8344  0.0032 -0.4385
   43GLOH   H02 8772   3.865   9.738   2.357  0.4811  0.3646 -2.2181
   43GLOH   H08 8773   3.801   9.611   2.455  1.4960  1.5328  0.1688
   43GLOH    C2 8774   3.656   9.705   2.334  0.7414 -0.7013  0.8348
   43GLOH   H04 8775   3.592   9.619   2.309 -1.4025  1.6255 -2.1118
   43GLOH    O2 8776   3.609   9.774   2.455  0.4393  0.0072  0.0139
   43GLOH   H05 8777   3.572   9.861   2.432 -0.3400  0.1437  1.6708
   43GLOH    C3 8778   3.654   9.806   2.224  0.2428 -0.3424  0.4407
   43GLOH   H06 8779   3.551   9.838   2.210 -0.4457 -2.6143  0.0692
   43GLOH   H07 8780   3.688   9.757   2.133  2.7504  1.6050  0.2796
   43GLOH    O3 8781   3.751   9.905   2.244 -0.7398  0.4399  0.3091
   43GLOH   H01 8782   3.839   9.869   2.221 -0.5742  1.3359 -0.5154
   44GLOH   H03 8783   4.038   9.473   0.545  0.7097  1.1634  0.3821
   44GLOH    O1 8784   4.032   9.398   0.607  0.5811  0.5557 -0.3653
   44GLOH    C1 8785   4.026   9.278   0.523  0.8888  0.7817 -0.3303
   44GLOH   H02 8786   4.105   9.208   0.550  0.9931  1.5035  1.2538
   44GLOH   H08 8787   4.028   9.308   0.418 -1.6050 -0.7132 -0.8447
   44GLOH    C2 8788   3.898   9.192   0.544 -0.6048  0.5531 -0.0318
   44GLOH   H04 8789   3.919   9.107   0.478  0.0430 -0.2420  1.1748
   44GLOH    O2 8790   3.874   9.157   0.680 -0.4769  0.0892  0.1726
   44GLOH   H05 8791   3.948   9.097   0.699 -0.5167 -0.0730 -0.1760
   44GLOH    C3 8792   3.771   9.257   0.492 -0.8160  0.0503 -0.1689
   44GLOH   H06 8793   3.760   9.358   0.532  0.9679  0.7193 -1.3168
   44GLOH   H07 8794   3.679   9.207   0.522  0.2437 -2.7241 -1.3676
   44GLOH    O3 8795   3.782   9.276   0.349 -0.4672  0.5274 -0.0286
   44GLOH   H01 8796   3.770   9.191   0.302 -2.1328 -0.0797  1.3983
   45GLOH   H03 8797   3.936   8.722   0.063 -0.2515  0.3239 -1.3904
   45GLOH    O1 8798   4.015   8.679   0.027  0.3133  0.1188  0.0693
   45GLOH    C1 8799   3.974   8.632  -0.108  0.1652 -0.7610 -0.5833
   45GLOH   H02 8800   3.996   8.715  -0.175 -2.7949 -1.3318 -2.3368
   45GLOH   H08 8801   3.868   8.616  -0.128  0.4410 -1.5101 -1.4334
   45GLOH    C2 8802   4.062   8.518  -0.160  0.8312 -0.1010  0.3825
   45GLOH   H04 8803   4.042   8.426  -0.103  0.3350 -0.7107 -0.7587
   45GLOH    O2 8804   4.036   8.485  -0.296 -0.2099 -0.4109 -0.0730
   45GLOH   H05 8805   4.045   8.391  -0.321 -1.2270 -0.5787  0.1633
   45GLOH    C3 8806   4.212   8.555  -0.134 -0.1699  0.2316 -0.1951
   45GLOH   H06 8807   4.263   8.465  -0.166  0.7035  0.4194  0.6533
   45GLOH   H07 8808   4.236   8.575  -0.030 -0.1875  1.5584 -0.4293
   45GLOH    O3 8809   4.275   8.667  -0.202 -0.4795  0.2085  0.3450
   45GLOH   H01 8810   4.276   8.638  -0.295  0.4876 -0.4933  0.5637
   46GLOH   H03 8811   3.098   8.779   2.268 -1.9785 -1.6692  1.2803
   46GLOH    O1 8812   3.146   8.805   2.349 -0.6702  0.5164 -0.1451
   46GLOH    C1 8813   3.065   8.762   2.463 -0.3329 -0.1791  0.0456
   46GLOH   H02 8814   3.010   8.671   2.440  1.0104 -0.8716 -0.4815
   46GLOH   H08 8815   2.987   8.834   2.489 -0.9433  0.0598 -2.3276
   46GLOH    C2 8816   3.147   8.730   2.592  0.2584  1.1282 -0.1083
   46GLOH   H04 8817   3.232   8.663   2.570 -0.5149  0.3980 -0.8686
   46GLOH    O2 8818   3.198   8.854   2.646 -0.6199 -0.7034  0.2539
   46GLOH   H05 8819   3.173   8.928   2.589 -2.8705 -2.4497 -1.1415
   46GLOH    C3 8820   3.078   8.648   2.704  0.0676  0.7920  0.5846
   46GLOH   H06 8821   3.031   8.717   2.773 -1.6198  1.9417 -1.6492
   46GLOH   H07 8822   3.160   8.599   2.757 -0.2436  0.6061  0.8978
   46GLOH    O3 8823   2.987   8.548   2.657 -0.8021  0.4253  0.1082
   46GLOH   H01 8824   3.030   8.467   2.626  0.1901  0.0108  2.4505
   47GLOH   H03 8825   3.152   9.537   2.067 -0.5534  1.4910 -1.8852
   47GLOH    O1 8826   3.137   9.470   1.998 -0.4520 -0.1109 -0.3848
   47GLOH    C1 8827   2.997   9.450   1.984  0.1216 -0.7267 -0.9427
   47GLOH   H02 8828   2.942   9.510   2.057  1.8860  0.2603 -0.4053
   47GLOH   H08 8829   2.973   9.346   2.005  0.6301 -0.2507  2.2932
   47GLOH    C2 8830   2.947   9.490   1.843 -0.2099  0.0959  0.0066
   47GLOH   H04 8831   2.997   9.419   1.775 -2.8193 -2.4774  0.6974
   47GLOH    O2 8832   2.803   9.491   1.839  0.2443 -0.0619 -0.0199
   47GLOH   H05 8833   2.756   9.410   1.862 -3.6304  2.0423 -0.1325
   47GLOH    C3 8834   2.995   9.627   1.809  1.0174  0.2289 -0.0356
   47GLOH   H06 8835   2.963   9.704   1.880 -2.5023 -0.6300 -0.5686
   47GLOH   H07 8836   2.939   9.660   1.722 -0.5849 -1.1187  0.4650
   47GLOH    O3 8837   3.132   9.629   1.795 -0.2226 -0.1330  0.1713
   47GLOH   H01 8838   3.169   9.575   1.867  1.0158 -0.5602 -0.7745
   48GLOH   H03 8839   3.338   8.810   2.410 -0.7041 -0.9644  0.9155
   48GLOH    O1 8840   3.424   8.808   2.457  0.2122 -0.7144 -0.6895
   48GLOH    C1 8841   3.493   8.936   2.441  0.1115 -0.0638  0.2079
   48GLOH   H02 8842   3.425   9.014   2.477 -0.6421  0.1894 -1.6988
   48GLOH   H08 8843   3.508   8.958   2.335 -0.8304  0.9535  0.2703
   48GLOH    C2 8844   3.626   8.936   2.523  0.1654 -0.3147  0.5180
   48GLOH   H04 8845   3.684   9.026   2.499 -0.3941 -0.7265 -2.6569
   48GLOH    O2 8846   3.596   8.930   2.665 -0.3575 -0.5128  0.0360
   48GLOH   H05 8847   3.526   8.996   2.679  0.1611  0.0257  0.0933
   48GLOH    C3 8848   3.721   8.817   2.484  0.0055 -0.0239  0.1790
   48GLOH   H06 8849   3.671   8.723   2.506 -0.7559  0.0091 -1.3975
   48GLOH   H07 8850   3.816   8.826   2.537 -0.4506  1.8699  0.7117
   48GLOH    O3 8851   3.741   8.826   2.345 -0.4412  0.3329  0.3932
   48GLOH   H01 8852   3.819   8.774   2.319  0.6154  2.5516 -1.0054
   49GLOH   H03 8853   2.857   8.989   0.547 -0.6640 -1.7327  0.6850
   49GLOH    O1 8854   2.940   9.017   0.589 -0.7532 -0.2635 -0.0687
   49GLOH    C1 8855   2.948   9.160   0.562  0.6689  0.0066 -0.3594
   49GLOH   H02 8856   2.856   9.206   0.598 -0.8503 -2.0924 -1.4113
   49GLOH   H08 8857   2.946   9.178   0.454 -2.0913 -0.6587 -0.4614
   49GLOH    C2 8858   3.073   9.233   0.615 -0.4818  0.3257  0.4750
   49GLOH   H04 8859   3.165   9.187   0.576 -0.8181  1.5906 -1.9444
   49GLOH    O2 8860   3.064   9.374   0.582  0.1888  0.1364 -0.0040
   49GLOH   H05 8861   3.109   9.392   0.498  1.8424 -4.5534 -0.3099
   49GLOH    C3 8862   3.071   9.217   0.767 -0.4405 -0.3880  0.2572
   49GLOH   H06 8863   2.993   9.278   0.812 -0.8693 -1.3887  0.8674
   49GLOH   H07 8864   3.166   9.246   0.813 -0.3544 -1.3721  0.7037
   49GLOH    O3 8865   3.042   9.079   0.798 -0.0493  0.0342 -0.6870
   49GLOH   H01 8866   2.993   9.044   0.721 -0.3687 -0.2718 -0.3462
   50GLOH   H03 8867   3.463   8.951   1.150  0.5869 -0.5474 -1.1459
   50GLOH    O1 8868   3.551   8.916   1.175  0.4446  0.1589  0.3607
   50GLOH    C1 8869   3.622   9.033   1.220  0.0649  1.2994  0.2639
   50GLOH   H02 8870   3.631   9.025   1.328  2.5411 -0.0432 -0.0289
   50GLOH   H08 8871   3.562   9.117   1.185 -1.6862 -0.0721 -0.1470
   50GLOH    C2 8872   3.762   9.051   1.176 -0.3081 -0.0378 -0.6063
   50GLOH   H04 8873   3.797   9.150   1.211  1.1136 -0.5488 -0.5324
   50GLOH    O2 8874   3.845   8.948   1.228  0.2957 -0.2072 -0.3782
   50GLOH   H05 8875   3.823   8.869   1.175 -0.8614 -0.1025 -0.0784
   50GLOH    C3 8876   3.783   9.045   1.023  0.6916 -0.6894  0.7247
   50GLOH   H06 8877   3.742   8.953   0.983 -1.5955  0.3732  0.5333
   50GLOH   H07 8878   3.891   9.046   1.004  0.3546  2.1411 -1.4186
   50GLOH    O3 8879   3.727   9.154   0.957  0.2760 -0.4287  0.3248
   50GLOH   H01 8880   3.770   9.240   0.975  0.6412 -0.4633 -0.3839
   51GLOH   H03 8881   2.864   8.189   1.614 -1.0039 -0.0816  0.7332
   51GLOH    O1 8882   2.883   8.164   1.522 -0.2199 -0.6788  1.0632
   51GLOH    C1 8883   2.864   8.277   1.436 -0.5242  0.1644  0.3757
   51GLOH   H02 8884   2.871   8.367   1.496 -1.9504  0.7624 -0.3442
   51GLOH   H08 8885   2.763   8.273   1.396  1.0428 -0.2605 -3.8096
   51GLOH    C2 8886   2.960   8.282   1.314  0.0199 -0.3431  0.4733
   51GLOH   H04 8887   2.943   8.196   1.247  1.0679 -1.5960  1.7944
   51GLOH    O2 8888   2.932   8.403   1.233  0.1963 -0.1200  0.4130
   51GLOH   H05 8889   2.978   8.393   1.148 -0.7351  0.2778 -0.1539
   51GLOH    C3 8890   3.106   8.289   1.368  0.9132  0.5922 -0.3044
   51GLOH   H06 8891   3.129   8.195   1.417  1.9966  0.9097 -0.1864
   51GLOH   H07 8892   3.097   8.366   1.444 -1.9626 -1.5056  1.5835
   51GLOH    O3 8893   3.202   8.302   1.265  0.0359 -0.0946  0.1138
   51GLOH   H01 8894   3.187   8.395   1.238 -0.1304 -0.2231 -0.2354
   52GLOH   H03 8895   2.968   9.278   1.167 -1.0675  0.2712 -0.6311
   52GLOH    O1 8896   2.938   9.333   1.243 -0.0268  0.3051 -0.2362
   52GLOH    C1 8897   2.898   9.249   1.349 -0.7110 -0.1977 -0.2266
   52GLOH   H02 8898   2.883   9.307   1.440 -1.4062  2.0630 -1.7304
   52GLOH   H08 8899   2.983   9.186   1.375 -0.5306 -0.5479 -1.5949
   52GLOH    C2 8900   2.776   9.160   1.319  0.1621  0.0020  0.0970
   52GLOH   H04 8901   2.699   9.229   1.281  0.2262  0.7265  1.2626
   52GLOH    O2 8902   2.812   9.064   1.218 -0.4905  0.4818 -0.5363
   52GLOH   H05 8903   2.787   9.100   1.131  0.1882  0.6632 -0.6572
   52GLOH    C3 8904   2.724   9.086   1.442  0.1414 -0.2781 -0.1816
   52GLOH   H06 8905   2.792   9.008   1.474 -1.2585 -0.9600  1.2020
   52GLOH   H07 8906   2.633   9.038   1.406 -0.9274  2.6983 -1.6448
   52GLOH    O3 8907   2.691   9.176   1.546 -0.0153 -0.4288  0.3391
   52GLOH   H01 8908   2.682   9.131   1.632 -0.6530 -1.2842 -0.1675
   53GLOH   H03 8909   3.351   7.895   2.118 -0.1135  2.5946 -0.9557
   53GLOH    O1 8910   3.441   7.905   2.156 -0.1529  0.2203 -0.1463
   53GLOH    C1 8911   3.430   7.862   2.292 -1.0259 -0.5829  0.4847
   53GLOH   H02 8912   3.531   7.848   2.330 -0.6545  0.4514 -0.0896
   53GLOH   H08 8913   3.390   7.761   2.294  1.5071 -1.6084  2.1384
   53GLOH    C2 8914   3.363   7.954   2.388 -0.1952  0.6534 -0.9222
   53GLOH   H04 8915   3.269   7.996   2.351 -0.5076  0.0713 -0.8082
   53GLOH    O2 8916   3.342   7.894   2.518 -0.1252  0.3650 -0.3365
   53GLOH   H05 8917   3.246   7.899   2.532  0.1347  2.0153  0.9513
   53GLOH    C3 8918   3.463   8.065   2.423 -0.0516 -0.9231 -0.3001
   53GLOH   H06 8919   3.564   8.026   2.424  0.5639  0.4945 -2.1597
   53GLOH   H07 8920   3.438   8.121   2.513  1.7506  0.8538 -0.8663
   53GLOH    O3 8921   3.462   8.179   2.328  0.1271  0.0498 -0.0105
   53GLOH   H01 8922   3.532   8.243   2.351 -0.0788  0.4441 -0.4737
   54GLOH   H03 8923   3.226   7.755   1.561 -1.0507  1.4621 -0.3585
   54GLOH    O1 8924   3.232   7.727   1.468 -0.8143  0.0841  0.0555
   54GLOH    C1 8925   3.096   7.726   1.414  0.2213 -0.3166  0.2542
   54GLOH   H02 8926   3.018   7.677   1.472 -0.2563 -0.7770 -0.7556
   54GLOH   H08 8927   3.093   7.663   1.325 -2.7524 -1.6340  1.2441
   54GLOH    C2 8928   3.043   7.871   1.384 -0.2274  0.0552 -0.1525
   54GLOH   H04 8929   2.939   7.855   1.350 -0.0123 -1.4028 -0.1686
   54GLOH    O2 8930   3.034   7.945   1.502 -0.0119  0.1184  0.1279
   54GLOH   H05 8931   2.967   8.014   1.494  0.1861  0.3963  0.8117
   54GLOH    C3 8932   3.136   7.941   1.285 -0.6857 -0.3702 -0.3967
   54GLOH   H06 8933   3.227   7.974   1.336  1.0510 -1.5877 -2.5523
   54GLOH   H07 8934   3.079   8.026   1.247  0.5680  1.4751  1.7765
   54GLOH    O3 8935   3.169   7.854   1.174 -0.6714  0.3013  0.1753
   54GLOH   H01 8936   3.240   7.795   1.205 -0.7410  1.4077  2.5727
   55GLOH   H03 8937   4.512   0.250   1.065 -1.6211  1.9227  0.6666
   55GLOH    O1 8938   4.449   0.206   1.005 -0.0874  0.1502  0.3196
   55GLOH    C1 8939   4.361   0.120   1.081 -0.2926 -0.1685  0.0845
   55GLOH   H02 8940   4.376   0.013   1.067 -0.5877 -0.2749  0.5721
   55GLOH   H08 8941   4.259   0.155   1.062 -0.1914 -0.6309 -1.3694
   55GLOH    C2 8942   4.387   0.155   1.230  0.7113  0.4404  0.0669
   55GLOH   H04 8943   4.351   0.259   1.238  2.0022  0.8395  0.7588
   55GLOH    O2 8944   4.303   0.061   1.307 -0.6138  0.0083 -0.2893
   55GLOH   H05 8945   4.302  -0.023   1.259  0.0572  0.9576 -2.0180
   55GLOH    C3 8946   4.534   0.158   1.274 -0.3773 -0.5461 -0.0417
   55GLOH   H06 8947   4.564   0.055   1.294  2.5926  0.0219 -1.3209
   55GLOH   H07 8948   4.526   0.201   1.374 -0.7245  1.1062 -0.7566
   55GLOH    O3 8949   4.616   0.237   1.180  0.4037  0.6136  0.4779
   55GLOH   H01 8950   4.683   0.181   1.137  0.4193  0.2621  0.9576
   56GLOH   H03 8951   2.824   8.389   0.533  0.6339 -0.6998 -1.2174
   56GLOH    O1 8952   2.768   8.453   0.483  0.5421  0.2344  0.0525
   56GLOH    C1 8953   2.781   8.409   0.344 -0.6388  0.0299  0.3007
   56GLOH   H02 8954   2.740   8.309   0.331 -2.8535  0.9206  0.2894
   56GLOH   H08 8955   2.887   8.392   0.324 -0.2153  1.5220  1.1478
   56GLOH    C2 8956   2.726   8.499   0.237 -0.2168  0.0138 -1.0823
   56GLOH   H04 8957   2.768   8.601   0.247  0.9887 -0.7522  2.2903
   56GLOH    O2 8958   2.740   8.448   0.108  0.0017  0.2743  0.2378
   56GLOH   H05 8959   2.833   8.441   0.080 -0.3762 -0.1616 -0.9439
   56GLOH    C3 8960   2.575   8.523   0.264 -0.2439  0.5028  0.0997
   56GLOH   H06 8961   2.555   8.573   0.359  1.2743 -0.7968  1.1150
   56GLOH   H07 8962   2.527   8.425   0.268  1.9199 -0.6325 -1.3145
   56GLOH    O3 8963   2.527   8.607   0.154 -0.1253  0.0946 -0.1567
   56GLOH   H01 8964   2.568   8.562   0.078 -0.2137 -1.6934  0.8374
   57GLOH   H03 8965   2.846   9.186   2.178 -1.6506 -0.5877 -1.8262
   57GLOH    O1 8966   2.893   9.101   2.167 -0.3471 -0.1265  0.0569
   57GLOH    C1 8967   2.955   9.071   2.294  0.6757 -0.0133 -0.0332
   57GLOH   H02 8968   3.050   9.018   2.288 -0.0477 -1.7903  2.9952
   57GLOH   H08 8969   2.894   9.006   2.357  0.5537 -0.0749 -0.2134
   57GLOH    C2 8970   2.980   9.191   2.387 -0.2997 -0.5413  0.0440
   57GLOH   H04 8971   3.059   9.252   2.341 -1.3911  0.6533 -0.2801
   57GLOH    O2 8972   2.871   9.273   2.385 -0.1602  0.0663  0.2466
   57GLOH   H05 8973   2.873   9.316   2.298  1.8917 -0.0549  0.2177
   57GLOH    C3 8974   3.019   9.137   2.523  0.1804 -0.0128  0.2355
   57GLOH   H06 8975   2.947   9.065   2.561 -0.3435 -0.1914 -1.0871
   57GLOH   H07 8976   3.026   9.224   2.589  4.0804  1.2077 -1.6331
   57GLOH    O3 8977   3.137   9.068   2.525  0.7760  0.1624 -0.1568
   57GLOH   H01 8978   3.203   9.126   2.485  0.0018  0.1304 -1.5185
   58GLOH   H03 8979   3.320   7.706   1.347  0.0950 -1.3445  0.3791
   58GLOH    O1 8980   3.361   7.726   1.261 -0.6453 -0.2919  0.2560
   58GLOH    C1 8981   3.507   7.741   1.278  0.0380 -1.2181 -0.4032
   58GLOH   H02 8982   3.534   7.688   1.369 -1.1003 -0.6418  0.2844
   58GLOH   H08 8983   3.551   7.841   1.285  0.0252 -1.1083 -1.7751
   58GLOH    C2 8984   3.582   7.679   1.160  0.2432  0.0827 -0.0625
   58GLOH   H04 8985   3.557   7.572   1.156  0.8708 -0.0266 -1.0435
   58GLOH    O2 8986   3.549   7.749   1.036 -0.0347 -0.4756 -0.3730
   58GLOH   H05 8987   3.452   7.739   1.036 -0.3842  2.3711  0.2676
   58GLOH    C3 8988   3.736   7.691   1.170 -0.9076  0.4924  0.7678
   58GLOH   H06 8989   3.779   7.646   1.081  1.4311  1.2623  1.4517
   58GLOH   H07 8990   3.765   7.634   1.258  0.8254  3.2178  2.0192
   58GLOH    O3 8991   3.783   7.822   1.180  0.5478 -0.1060 -0.7244
   58GLOH   H01 8992   3.754   7.875   1.104 -2.3728 -0.5639  0.0224
   59GLOH   H03 8993   4.150   8.314   1.158  1.5019 -1.7805  1.5053
   59GLOH    O1 8994   4.133   8.255   1.082 -0.6600  0.0193  0.5348
   59GLOH    C1 8995   4.120   8.121   1.125 -0.3395 -0.6721 -0.5921
   59GLOH   H02 8996   4.219   8.079   1.143  0.4894 -0.0418 -3.4877
   59GLOH   H08 8997   4.072   8.063   1.047 -0.8200  0.1148 -0.8932
   59GLOH    C2 8998   4.018   8.121   1.245 -0.4313  0.3837  0.1598
   59GLOH   H04 8999   3.926   8.169   1.209 -0.9212 -0.5621  0.1142
   59GLOH    O2 9000   3.989   7.992   1.301 -0.5958 -0.8340 -0.3616
   59GLOH   H05 9001   3.929   7.929   1.257 -2.2265  0.9245 -0.7281
   59GLOH    C3 9002   4.075   8.210   1.357  0.0131 -0.9920  0.1591
   59GLOH   H06 9003   4.172   8.172   1.388 -0.0515 -2.6514 -1.5724
   59GLOH   H07 9004   4.010   8.192   1.444  0.2216  2.1799  1.0481
   59GLOH    O3 9005   4.074   8.348   1.322 -0.0790  0.0291 -0.8533
   59GLOH   H01 9006   4.044   8.391   1.404  1.5981 -1.6471  0.6881
   60GLOH   H03 9007   3.214   9.630   0.061 -0.9442  1.7243  0.7349
   60GLOH    O1 9008   3.197   9.640  -0.034 -0.1103  0.1038  0.4008
   60GLOH    C1 9009   3.133   9.767  -0.068  0.1276 -0.3743 -0.1522
   60GLOH   H02 9010   3.165   9.851  -0.005 -0.3246  0.4063 -0.9630
   60GLOH   H08 9011   3.026   9.747  -0.058 -0.2112  0.5140 -1.9714
   60GLOH    C2 9012   3.162   9.810  -0.213 -0.2609  0.5297 -0.2078
   60GLOH   H04 9013   3.103   9.740  -0.275 -1.6876  2.2735 -0.8772
   60GLOH    O2 9014   3.091   9.927  -0.240  0.2690  0.3153  0.2171
   60GLOH   H05 9015   3.082   9.939  -0.336  1.6672  0.6362  0.1143
   60GLOH    C3 9016   3.315   9.817  -0.234  0.1465 -0.2813  0.1082
   60GLOH   H06 9017   3.359   9.731  -0.184  0.4555 -0.1348  0.0858
   60GLOH   H07 9018   3.349   9.908  -0.183 -0.7932 -1.0533  2.1665
   60GLOH    O3 9019   3.347   9.825  -0.378  0.1746  0.2737  0.1087
   60GLOH   H01 9020   3.346   9.916  -0.412 -0.5986  0.4638  0.6332
   61GLOH   H03 9021   3.109   8.374   1.904  2.4372  0.0692  0.4024
   61GLOH    O1 9022   3.110   8.295   1.847 -0.4976 -0.0872  0.5016
   61GLOH    C1 9023   3.248   8.312   1.812 -0.6754 -0.2365  0.5528
   61GLOH   H02 9024   3.273   8.227   1.750 -2.6824 -0.3513 -0.1503
   61GLOH   H08 9025   3.304   8.333   1.903 -0.5052  0.5821  0.2741
   61GLOH    C2 9026   3.283   8.430   1.715  0.0526  0.0033  0.1243
   61GLOH   H04 9027   3.227   8.409   1.623  0.0612  0.4693  0.0110
   61GLOH    O2 9028   3.239   8.559   1.769  0.7012  0.3690  0.0970
   61GLOH   H05 9029   3.313   8.621   1.777  1.6428 -0.8337  0.8777
   61GLOH    C3 9030   3.431   8.438   1.694  0.4389  0.1456 -0.0546
   61GLOH   H06 9031   3.480   8.419   1.789  1.3813  2.0905 -0.1366
   61GLOH   H07 9032   3.461   8.537   1.660  0.0577  0.4448  0.4801
   61GLOH    O3 9033   3.472   8.339   1.599  0.5616  0.0954 -0.0687
   61GLOH   H01 9034   3.482   8.386   1.514  1.3142  1.4382  0.7369
   62GLOH   H03 9035   3.291   8.960   1.769  0.8854 -0.1334  2.4162
   62GLOH    O1 9036   3.352   8.911   1.712 -0.9802  0.3425 -0.0972
   62GLOH    C1 9037   3.319   8.902   1.569  0.0087 -0.1843 -0.1835
   62GLOH   H02 9038   3.335   8.798   1.540  2.1358  0.0693 -0.0371
   62GLOH   H08 9039   3.388   8.965   1.513  0.4338 -0.7564 -0.3016
   62GLOH    C2 9040   3.173   8.945   1.550  0.6773  0.1202 -0.6684
   62GLOH   H04 9041   3.117   8.867   1.603  2.0391 -0.7410 -0.4774
   62GLOH    O2 9042   3.147   9.074   1.606  0.9330 -0.0013  0.2906
   62GLOH   H05 9043   3.231   9.115   1.631  0.8794 -0.2939  0.9442
   62GLOH    C3 9044   3.121   8.940   1.405 -0.7330  0.2749  0.1325
   62GLOH   H06 9045   3.158   9.019   1.340  0.0916 -1.0023 -0.9681
   62GLOH   H07 9046   3.013   8.955   1.408 -0.5878  1.6063 -0.7741
   62GLOH    O3 9047   3.146   8.810   1.345  0.2098 -0.3167 -0.2167
   62GLOH   H01 9048   3.065   8.756   1.360 -0.9284  1.3267 -0.2811
   63GLOH   H03 9049   4.808   9.748   0.903  3.8079 -1.3387  1.7776
   63GLOH    O1 9050   4.836   9.840   0.920  0.0377  0.1740  0.3510
   63GLOH    C1 9051   4.862   9.917   0.803  0.0773  0.4786  0.6485
   63GLOH   H02 9052   4.764   9.922   0.755  0.7523  0.2531 -0.7756
   63GLOH   H08 9053   4.932   9.870   0.734  0.0315  0.4955  0.5905
   63GLOH    C2 9054   4.912  10.062   0.821  0.1451 -0.5215 -0.2684
   63GLOH   H04 9055   5.005  10.059   0.879  0.5670  1.9547 -0.7603
   63GLOH    O2 9056   4.948  10.129   0.695 -0.3558  0.3263 -0.1825
   63GLOH   H05 9057   4.865  10.144   0.646  0.3488 -1.5880 -2.0232
   63GLOH    C3 9058   4.809  10.139   0.907 -0.2976  0.5759 -0.0523
   63GLOH   H06 9059   4.720  10.138   0.844 -0.0706  0.6097 -0.3831
   63GLOH   H07 9060   4.834  10.244   0.922 -1.3209  0.8170 -0.0577
   63GLOH    O3 9061   4.783  10.081   1.036  0.0007  0.6146 -0.6444
   63GLOH   H01 9062   4.814   9.988   1.041 -1.4154 -0.0567 -3.1183
   64GLOH   H03 9063   4.295   0.315   0.200 -1.5967  0.8727  1.2125
   64GLOH    O1 9064   4.222   0.268   0.157 -0.4611  0.1894  0.0074
   64GLOH    C1 9065   4.285   0.163   0.077 -0.1644  0.3322 -0.5563
   64GLOH   H02 9066   4.384   0.197   0.048  0.2820  4.5849  5.1018
   64GLOH   H08 9067   4.236   0.150  -0.019 -0.1682 -0.9854 -0.3903
   64GLOH    C2 9068   4.300   0.034   0.162  0.6209 -0.1953 -0.4772
   64GLOH   H04 9069   4.199   0.009   0.196  0.1811  0.4732 -1.2758
   64GLOH    O2 9070   4.344  -0.076   0.078 -0.2549 -0.1142  0.2975
   64GLOH   H05 9071   4.388  -0.145   0.130  0.0047  0.1955  0.4923
   64GLOH    C3 9072   4.393   0.054   0.277  0.3586 -0.7674 -0.1534
   64GLOH   H06 9073   4.350   0.130   0.341  2.1482  1.1976 -1.2238
   64GLOH   H07 9074   4.486   0.096   0.238 -0.4555  0.2608 -1.0098
   64GLOH    O3 9075   4.424  -0.059   0.365  0.3908 -0.4801  0.2334
   64GLOH   H01 9076   4.500  -0.038   0.422 -0.3611 -2.2087  1.9573
   65GLOH   H03 9077   3.240   7.835   1.021  0.3582 -1.0188  0.8739
   65GLOH    O1 9078   3.260   7.833   0.926 -0.4477  0.0032  0.6706
   65GLOH    C1 9079   3.281   7.958   0.857 -0.2193 -0.5911 -0.4947
   65GLOH   H02 9080   3.180   7.998   0.845 -0.7183 -0.0055  4.6071
   65GLOH   H08 9081   3.317   7.941   0.756  0.7836  0.1040 -0.2596
   65GLOH    C2 9082   3.371   8.058   0.917 -1.0063  0.4407  0.3282
   65GLOH   H04 9083   3.466   8.004   0.926 -0.4056  1.3133 -0.6967
   65GLOH    O2 9084   3.404   8.166   0.822  0.7775  0.6216  0.5220
   65GLOH   H05 9085   3.373   8.250   0.860  2.8681  1.8991 -0.5243
   65GLOH    C3 9086   3.316   8.118   1.046 -0.2064  0.5474  0.0799
   65GLOH   H06 9087   3.376   8.190   1.102 -1.6933  1.5108  0.4735
   65GLOH   H07 9088   3.294   8.040   1.118 -0.3882 -0.0666 -0.6342
   65GLOH    O3 9089   3.199   8.191   1.031  0.4965 -0.1446  0.3440
   65GLOH   H01 9090   3.195   8.261   1.098 -0.3894  1.4993 -1.3960
   66GLOH   H03 9091   4.120   8.648   0.385  0.8147  1.9497  1.5546
   66GLOH    O1 9092   4.093   8.614   0.472 -0.0804 -0.4217  0.3717
   66GLOH    C1 9093   4.063   8.468   0.464  0.4845 -0.3863  0.0013
   66GLOH   H02 9094   4.159   8.420   0.445  1.0903  0.7972  0.0348
   66GLOH   H08 9095   3.987   8.454   0.389  0.9040  0.8301 -0.6612
   66GLOH    C2 9096   3.986   8.409   0.590  0.4428  0.0383 -0.2159
   66GLOH   H04 9097   3.895   8.470   0.600 -1.5856 -2.8024 -0.7339
   66GLOH    O2 9098   3.959   8.272   0.570  0.6071 -0.5516  0.2878
   66GLOH   H05 9099   3.898   8.245   0.640 -0.0706  0.0883 -0.0487
   66GLOH    C3 9100   4.081   8.427   0.717  0.0420 -0.4122  0.4026
   66GLOH   H06 9101   4.165   8.359   0.708 -0.0939 -0.3401 -1.7047
   66GLOH   H07 9102   4.034   8.402   0.812 -0.2294  1.9822  0.9424
   66GLOH    O3 9103   4.128   8.568   0.723  0.3164 -0.0042  0.5306
   66GLOH   H01 9104   4.119   8.600   0.631 -0.6743 -0.4233  0.4749
   67GLOH   H03 9105   3.867   9.338   0.723  1.4024  0.6285  1.8009
   67GLOH    O1 9106   3.809   9.390   0.781 -0.4576 -0.0083  0.5636
   67GLOH    C1 9107   3.888   9.489   0.852 -0.0728  0.5061  0.2621
   67GLOH   H02 9108   3.821   9.571   0.879 -0.2632  0.5231 -0.2720
   67GLOH   H08 9109   3.959   9.542   0.788  0.0403 -0.5138 -0.4646
   67GLOH    C2 9110   3.963   9.435   0.975 -0.5321  0.1095 -0.7536
   67GLOH   H04 9111   4.017   9.516   1.025  0.9356 -1.6315  0.5549
   67GLOH    O2 9112   3.865   9.373   1.060  0.1049  0.3931  0.2617
   67GLOH   H05 9113   3.887   9.380   1.155  0.8744 -0.5550  0.1512
   67GLOH    C3 9114   4.062   9.330   0.933 -0.5261  0.1710  0.5986
   67GLOH   H06 9115   4.013   9.237   0.905  0.6069  0.0234 -1.0107
   67GLOH   H07 9116   4.113   9.314   1.029 -1.2569  1.8237  1.2852
   67GLOH    O3 9117   4.157   9.370   0.835 -0.2787  0.1670  0.0728
   67GLOH   H01 9118   4.111   9.375   0.749 -0.4703  0.0075  0.1679
   68GLOH   H03 9119   3.228   0.356   1.235  0.8869 -1.9276  2.0063
   68GLOH    O1 9120   3.207   0.280   1.179 -0.3787 -0.1119 -0.0736
   68GLOH    C1 9121   3.335   0.251   1.116 -0.6843  0.2658 -0.3262
   68GLOH   H02 9122   3.356   0.317   1.031 -0.4220 -0.3573 -0.7461
   68GLOH   H08 9123   3.331   0.151   1.073  1.3226  0.6648 -1.5713
   68GLOH    C2 9124   3.449   0.265   1.213 -0.5877  0.8372  0.4655
   68GLOH   H04 9125   3.430   0.206   1.304 -2.1064 -0.0018 -0.3715
   68GLOH    O2 9126   3.569   0.235   1.149 -0.0026 -0.1982 -0.2837
   68GLOH   H05 9127   3.633   0.190   1.207  1.0526 -2.4043 -3.0070
   68GLOH    C3 9128   3.458   0.413   1.250 -0.2495 -0.2791  0.7689
   68GLOH   H06 9129   3.490   0.472   1.164 -2.1702 -2.8570 -1.8150
   68GLOH   H07 9130   3.537   0.427   1.324 -1.0907  0.5310  1.5224
   68GLOH    O3 9131   3.336   0.465   1.305  0.8357 -0.2542  0.3040
   68GLOH   H01 9132   3.320   0.553   1.266  0.1041 -0.8842 -0.8218
   69GLOH   H03 9133   4.066   0.451   1.165  1.5280 -0.7297  0.6631
   69GLOH    O1 9134   4.081   0.381   1.100 -0.1060 -0.3950 -0.1118
   69GLOH    C1 9135   3.954   0.314   1.070 -0.5205  0.0302 -0.3799
   69GLOH   H02 9136   3.885   0.387   1.027 -0.7906 -0.5862 -1.0055
   69GLOH   H08 9137   3.907   0.271   1.158  1.0565 -1.7381 -0.3701
   69GLOH    C2 9138   3.971   0.209   0.952  0.4308  0.1912 -0.0545
   69GLOH   H04 9139   4.033   0.132   1.000  0.1098 -1.1926 -1.8070
   69GLOH    O2 9140   3.844   0.149   0.901  0.2304  0.6774  0.1178
   69GLOH   H05 9141   3.792   0.208   0.844  0.5070  0.7466 -0.0683
   69GLOH    C3 9142   4.055   0.266   0.838 -0.2526  0.6981 -0.0276
   69GLOH   H06 9143   4.013   0.357   0.796  3.4670  2.2089 -0.6686
   69GLOH   H07 9144   4.055   0.203   0.748 -2.4869  2.3837 -1.2628
   69GLOH    O3 9145   4.188   0.301   0.891 -0.2694 -0.4400 -0.3523
   69GLOH   H01 9146   4.165   0.324   0.983  0.3223  1.2594 -0.6075
   70GLOH   H03 9147   3.935   8.972   2.068  0.6870 -0.9587  0.4730
   70GLOH    O1 9148   3.958   9.032   2.142 -0.2500  0.4135 -0.3228
   70GLOH    C1 9149   3.937   9.166   2.097 -0.0099 -0.3523  1.0914
   70GLOH   H02 9150   3.985   9.186   2.001  1.5605  0.4403  2.0193
   70GLOH   H08 9151   3.971   9.229   2.179 -2.4723 -0.7291  2.4452
   70GLOH    C2 9152   3.791   9.212   2.085  0.4829 -0.8402 -0.6482
   70GLOH   H04 9153   3.788   9.310   2.033  1.8047 -0.2141  0.4226
   70GLOH    O2 9154   3.733   9.123   1.996  0.0834  0.3019  0.3746
   70GLOH   H05 9155   3.691   9.055   2.052  1.3512 -1.3913 -0.6840
   70GLOH    C3 9156   3.731   9.226   2.227 -0.2103 -0.3409  0.1755
   70GLOH   H06 9157   3.754   9.134   2.279 -0.0327 -0.7545 -0.6214
   70GLOH   H07 9158   3.623   9.224   2.220 -0.3385  0.1576  1.7716
   70GLOH    O3 9159   3.784   9.332   2.308  0.5104  0.6084 -0.0073
   70GLOH   H01 9160   3.737   9.329   2.394  1.4845  1.9445  0.5870
   71GLOH   H03 9161   3.929   8.352   1.580  0.3410  1.0190  2.1405
   71GLOH    O1 9162   3.958   8.430   1.528  0.0815 -0.3145 -0.0459
   71GLOH    C1 9163   3.836   8.505   1.506 -0.0790 -0.6181 -0.1042
   71GLOH   H02 9164   3.749   8.440   1.520 -0.5925  0.3172  1.2008
   71GLOH   H08 9165   3.843   8.544   1.404 -0.3954 -0.6720 -0.1470
   71GLOH    C2 9166   3.817   8.618   1.607  0.2203 -0.4630  0.2733
   71GLOH   H04 9167   3.914   8.658   1.638  0.3752  0.5014 -1.3648
   71GLOH    O2 9168   3.720   8.720   1.547  0.1577  0.1923 -0.3209
   71GLOH   H05 9169   3.702   8.797   1.603 -1.2443  1.0684 -1.9096
   71GLOH    C3 9170   3.750   8.568   1.737  0.2733 -0.0105 -0.4518
   71GLOH   H06 9171   3.651   8.530   1.711 -0.4678  0.0348  2.1850
   71GLOH   H07 9172   3.730   8.656   1.797  1.5076 -0.1332  0.1547
   71GLOH    O3 9173   3.836   8.469   1.790 -0.0938  0.5112 -0.5320
   71GLOH   H01 9174   3.780   8.389   1.784  0.5985 -0.1146  1.1921
   72GLOH   H03 9175   3.299   8.229   2.332 -0.1138 -0.6507 -1.7353
   72GLOH    O1 9176   3.213   8.275   2.332  0.2489  0.1089  0.0929
   72GLOH    C1 9177   3.198   8.325   2.200  0.6283 -0.6385 -0.1569
   72GLOH   H02 9178   3.178   8.243   2.131 -0.4761 -0.9163  0.4847
   72GLOH   H08 9179   3.284   8.378   2.159 -0.5532  0.2463 -1.5817
   72GLOH    C2 9180   3.074   8.415   2.186 -0.3772 -0.3160  0.6684
   72GLOH   H04 9181   3.069   8.495   2.262  0.8123 -1.7753  2.3321
   72GLOH    O2 9182   3.067   8.468   2.051 -0.6252  0.6125 -0.2749
   72GLOH   H05 9183   3.099   8.560   2.056  1.4462 -0.0644 -0.3093
   72GLOH    C3 9184   2.944   8.338   2.205  0.5049  0.4158 -0.1921
   72GLOH   H06 9185   2.972   8.284   2.296  2.6065  0.5283 -0.7270
   72GLOH   H07 9186   2.929   8.257   2.132  1.9095 -1.1587  1.2183
   72GLOH    O3 9187   2.827   8.425   2.217 -0.4752  0.0046  0.3064
   72GLOH   H01 9188   2.837   8.476   2.299 -1.3552  0.7168 -0.0195
   73GLOH   H03 9189   3.709   0.824   0.608 -0.5805  0.3806  0.0729
   73GLOH    O1 9190   3.758   0.820   0.693  0.3993 -0.1033 -0.5007
   73GLOH    C1 9191   3.697   0.717   0.778  0.4098 -0.2163  0.2205
   73GLOH   H02 9192   3.656   0.634   0.721  1.7014  1.5338 -3.3651
   73GLOH   H08 9193   3.609   0.751   0.832  1.8622  1.2203  1.7431
   73GLOH    C2 9194   3.790   0.664   0.890 -0.0355 -0.2615  0.1524
   73GLOH   H04 9195   3.837   0.749   0.942  0.1947 -0.5372  0.3998
   73GLOH    O2 9196   3.725   0.581   0.989 -0.2450  0.4869 -0.0162
   73GLOH   H05 9197   3.672   0.510   0.949 -2.5824  1.8032  0.6459
   73GLOH    C3 9198   3.911   0.591   0.824 -0.6010  0.4380 -0.2426
   73GLOH   H06 9199   3.876   0.496   0.783 -0.0230  0.8061 -1.6139
   73GLOH   H07 9200   3.985   0.576   0.902  1.6140  2.9263 -1.7668
   73GLOH    O3 9201   3.972   0.665   0.720 -0.5680 -0.7059 -0.0302
   73GLOH   H01 9202   3.920   0.747   0.707  0.9049  0.2920  0.2448
   74GLOH   H03 9203   3.479   7.897   2.619 -0.0983 -0.5307  0.6865
   74GLOH    O1 9204   3.548   7.911   2.687  0.7610  0.2232 -0.3241
   74GLOH    C1 9205   3.484   7.967   2.799  0.5721 -0.1200 -0.0921
   74GLOH   H02 9206   3.390   7.920   2.825 -0.0280  1.7061  1.1456
   74GLOH   H08 9207   3.451   8.067   2.771 -0.6357 -0.6278 -0.5123
   74GLOH    C2 9208   3.587   7.956   2.913  0.1950 -0.1952  0.0833
   74GLOH   H04 9209   3.625   7.853   2.925 -0.0328 -0.0840  1.8195
   74GLOH    O2 9210   3.698   8.044   2.896  0.1183  0.5682  0.3287
   74GLOH   H05 9211   3.747   8.026   2.814  2.4084  2.9329  1.1065
   74GLOH    C3 9212   3.509   7.983   3.043  0.7220 -0.2251  0.3126
   74GLOH   H06 9213   3.567   7.957   3.132  1.9169  0.3194 -0.2852
   74GLOH   H07 9214   3.425   7.914   3.039  0.5727 -0.1998  2.4067
   74GLOH    O3 9215   3.474   8.122   3.044  0.0283 -0.5625 -0.3246
   74GLOH   H01 9216   3.513   8.152   3.128 -0.7998  3.7516 -1.3619
   75GLOH   H03 9217   3.464   0.521   0.279 -1.2973 -0.1378 -3.8207
   75GLOH    O1 9218   3.489   0.430   0.255  0.7403 -0.5242 -0.5774
   75GLOH    C1 9219   3.404   0.373   0.160 -0.1622  0.0885  0.5869
   75GLOH   H02 9220   3.454   0.293   0.105 -1.6173  0.4380 -1.3113
   75GLOH   H08 9221   3.373   0.445   0.084  1.5482 -1.1956 -1.3960
   75GLOH    C2 9222   3.282   0.322   0.230  0.6261 -0.0148  0.3899
   75GLOH   H04 9223   3.244   0.400   0.297  0.9699 -0.0590  0.6376
   75GLOH    O2 9224   3.189   0.282   0.126  0.3204  0.2299 -0.3154
   75GLOH   H05 9225   3.107   0.258   0.172  1.5048 -2.1708  0.5942
   75GLOH    C3 9226   3.306   0.198   0.314 -0.3999 -0.2661  0.3342
   75GLOH   H06 9227   3.380   0.229   0.388  0.5810  3.3433 -2.0238
   75GLOH   H07 9228   3.351   0.120   0.251  1.6194  0.8308  0.3625
   75GLOH    O3 9229   3.185   0.157   0.374 -0.2229 -0.0260 -0.0516
   75GLOH   H01 9230   3.133   0.105   0.311  1.5499 -2.2817  0.2747
   76GLOH   H03 9231   3.527   0.329   2.070  3.2908 -0.4506  0.0257
   76GLOH    O1 9232   3.505   0.237   2.045 -0.2571  0.3566 -0.1258
   76GLOH    C1 9233   3.630   0.158   2.043 -0.2898 -0.0291  0.9043
   76GLOH   H02 9234   3.617   0.063   2.096 -0.8299  0.1004  1.0096
   76GLOH   H08 9235   3.709   0.207   2.099  0.7183 -0.3446 -0.1944
   76GLOH    C2 9236   3.690   0.142   1.906 -0.4441  1.0181  0.6125
   76GLOH   H04 9237   3.692   0.239   1.854 -1.4099  0.3674 -0.6740
   76GLOH    O2 9238   3.824   0.100   1.912 -0.1099 -0.4837  0.3105
   76GLOH   H05 9239   3.835   0.010   1.947  1.8584 -0.8713 -1.1808
   76GLOH    C3 9240   3.607   0.037   1.829  0.2046 -0.1208  0.4848
   76GLOH   H06 9241   3.647   0.028   1.728  0.4721 -0.0606  0.5849
   76GLOH   H07 9242   3.500   0.060   1.832 -0.0615 -1.3640  0.4816
   76GLOH    O3 9243   3.615  -0.084   1.895  0.1494 -0.2293  0.5912
   76GLOH   H01 9244   3.692  -0.131   1.857  0.7870  0.3761  1.1107
   77GLOH   H03 9245   4.126   9.844   1.915 -0.9218 -0.2411  0.5255
   77GLOH    O1 9246   4.066   9.828   1.839 -0.0054 -0.0302 -0.2469
   77GLOH    C1 9247   4.142   9.796   1.717 -0.4219 -0.1188 -0.0931
   77GLOH   H02 9248   4.180   9.887   1.671 -0.0322 -0.3227 -0.1816
   77GLOH   H08 9249   4.075   9.756   1.640 -1.4935  0.9293  0.2876
   77GLOH    C2 9250   4.263   9.700   1.730  0.8306  0.1769 -0.3343
   77GLOH   H04 9251   4.225   9.597   1.742 -0.4968  0.8935  1.8605
   77GLOH    O2 9252   4.337   9.685   1.615 -0.3163  0.0648 -0.5848
   77GLOH   H05 9253   4.401   9.614   1.631 -1.7567 -1.2507 -0.5789
   77GLOH    C3 9254   4.346   9.718   1.858 -0.0362  0.4962  0.2872
   77GLOH   H06 9255   4.377   9.822   1.866 -1.1579  1.0590 -2.1556
   77GLOH   H07 9256   4.442   9.668   1.841 -0.1700  0.7591 -1.3143
   77GLOH    O3 9257   4.282   9.678   1.978  0.1294 -0.2295  0.1827
   77GLOH   H01 9258   4.324   9.732   2.048 -3.0159 -2.3969  3.9720
   78GLOH   H03 9259   3.020   9.572   0.666  0.4248  0.3156  0.6709
   78GLOH    O1 9260   3.072   9.655   0.670  0.6337  0.2121  0.0530
   78GLOH    C1 9261   3.060   9.686   0.812 -0.1087  0.1434 -0.2339
   78GLOH   H02 9262   2.957   9.695   0.845  0.2364 -1.0434  1.2515
   78GLOH   H08 9263   3.092   9.789   0.822 -0.1441  0.0619  0.7293
   78GLOH    C2 9264   3.149   9.607   0.905 -0.3462  0.5577 -0.1794
   78GLOH   H04 9265   3.125   9.657   1.000  0.7153  1.0599 -0.1712
   78GLOH    O2 9266   3.112   9.470   0.914 -0.3536 -0.4236  0.7120
   78GLOH   H05 9267   3.127   9.444   1.007 -0.0601 -0.8834  0.5360
   78GLOH    C3 9268   3.295   9.637   0.878  0.1774  0.1618 -0.0436
   78GLOH   H06 9269   3.315   9.605   0.776 -0.0739 -0.3656  0.0732
   78GLOH   H07 9270   3.354   9.586   0.954 -0.5724  0.6590  0.8843
   78GLOH    O3 9271   3.331   9.779   0.894 -0.0070  0.0236 -0.5446
   78GLOH   H01 9272   3.330   9.814   0.802 -1.5758 -0.1999 -0.6364
   79GLOH   H03 9273   4.331   9.569   1.056 -0.3134 -1.3153 -2.2736
   79GLOH    O1 9274   4.308   9.656   1.020 -0.1589 -0.1419  0.3755
   79GLOH    C1 9275   4.327   9.667   0.877 -0.9178  0.2137 -0.1782
   79GLOH   H02 9276   4.238   9.632   0.825 -1.6755  3.2312 -0.9879
   79GLOH   H08 9277   4.413   9.602   0.857 -1.2067  0.1540 -1.2308
   79GLOH    C2 9278   4.344   9.814   0.835 -0.2163 -0.2153 -0.2847
   79GLOH   H04 9279   4.419   9.865   0.898 -1.6308 -0.5851  1.7746
   79GLOH    O2 9280   4.392   9.826   0.701  0.5381 -0.4830 -0.0231
   79GLOH   H05 9281   4.385   9.920   0.676  1.6447 -0.5496 -0.5854
   79GLOH    C3 9282   4.214   9.894   0.866  0.1747  0.1685  0.2469
   79GLOH   H06 9283   4.229   9.994   0.827  0.3190 -0.0671 -0.3057
   79GLOH   H07 9284   4.204   9.891   0.974  0.9391 -0.1461  0.3112
   79GLOH    O3 9285   4.095   9.847   0.805  0.3613  0.4144 -0.6769
   79GLOH   H01 9286   4.022   9.869   0.866 -0.1552 -0.5290 -0.9284
   80GLOH   H03 9287   3.427   8.523   0.004 -0.5667 -0.9387 -0.6427
   80GLOH    O1 9288   3.403   8.503   0.096  0.6250 -0.1795 -0.1551
   80GLOH    C1 9289   3.480   8.383   0.125 -0.2883 -0.1838 -0.1716
   80GLOH   H02 9290   3.474   8.314   0.040  0.0848  0.2647 -0.5701
   80GLOH   H08 9291   3.428   8.326   0.202  3.5541  0.1108  2.7903
   80GLOH    C2 9292   3.627   8.420   0.163  0.6856  0.3131  0.0229
   80GLOH   H04 9293   3.622   8.521   0.206 -0.3013 -0.8453  2.6943
   80GLOH    O2 9294   3.684   8.331   0.261 -0.1530  0.1554 -0.2379
   80GLOH   H05 9295   3.658   8.239   0.243  2.0193 -0.7247  0.8925
   80GLOH    C3 9296   3.729   8.438   0.048 -0.6428  0.5808 -0.2477
   80GLOH   H06 9297   3.821   8.470   0.098 -0.5467  1.8610 -1.2311
   80GLOH   H07 9298   3.695   8.513  -0.023  0.0477  1.0884 -0.0450
   80GLOH    O3 9299   3.760   8.310  -0.009 -0.5170 -0.2638 -0.0476
   80GLOH   H01 9300   3.698   8.278  -0.077 -1.9707  1.2881  0.4951
   81GLOH   H03 9301   2.895   9.062   0.144 -0.8638  0.1007  2.4443
   81GLOH    O1 9302   2.961   9.129   0.172  0.3163  0.0701 -0.0790
   81GLOH    C1 9303   3.100   9.088   0.161  0.7532 -0.5678 -0.1474
   81GLOH   H02 9304   3.135   9.099   0.059 -0.7385 -2.6727 -0.9322
   81GLOH   H08 9305   3.106   8.981   0.181  2.6715 -0.2574  0.9886
   81GLOH    C2 9306   3.206   9.157   0.256  0.3501  0.4344  0.4513
   81GLOH   H04 9307   3.186   9.119   0.357  0.3519  1.7870  0.9648
   81GLOH    O2 9308   3.348   9.135   0.229  0.1518 -0.2255 -0.1114
   81GLOH   H05 9309   3.364   9.041   0.213  0.0432 -0.1187 -0.8470
   81GLOH    C3 9310   3.177   9.312   0.263 -0.1826 -0.2868 -0.1538
   81GLOH   H06 9311   3.068   9.312   0.273 -0.2301  3.3684  0.0508
   81GLOH   H07 9312   3.204   9.361   0.169  2.5358 -2.0935 -0.3455
   81GLOH    O3 9313   3.227   9.381   0.374  0.1038 -0.1006  0.1985
   81GLOH   H01 9314   3.311   9.344   0.407 -0.6006 -1.1108  0.9085
   82GLOH   H03 9315   3.255   9.131   1.880 -0.6089  0.2717 -0.4878
   82GLOH    O1 9316   3.218   9.041   1.875 -0.2907  0.0983  0.2284
   82GLOH    C1 9317   3.097   9.034   1.948 -0.3337  1.1126  0.6977
   82GLOH   H02 9318   3.041   9.126   1.929 -0.1718  1.3163  1.1988
   82GLOH   H08 9319   3.120   9.048   2.054  0.5108 -0.0879  0.6830
   82GLOH    C2 9320   3.012   8.908   1.918 -0.7287  0.0995 -0.4047
   82GLOH   H04 9321   2.929   8.906   1.991 -2.0935  1.8277 -1.8360
   82GLOH    O2 9322   2.967   8.936   1.781  0.1975 -0.1401  0.1087
   82GLOH   H05 9323   3.028   9.002   1.745 -0.9686  1.5785  1.1894
   82GLOH    C3 9324   3.093   8.774   1.931 -0.1564  0.4120  0.6345
   82GLOH   H06 9325   3.182   8.797   1.872 -2.8842  3.5657 -2.4379
   82GLOH   H07 9326   3.034   8.696   1.884  1.9678 -0.8974  0.0755
   82GLOH    O3 9327   3.125   8.737   2.071 -0.3184  0.0348 -0.1866
   82GLOH   H01 9328   3.206   8.787   2.092  0.8852 -0.7630 -2.6877
   83GLOH   H03 9329   4.024   0.001   0.429  1.8557 -1.7914 -0.9700
   83GLOH    O1 9330   3.998   0.033   0.341  0.1212  0.1134  0.1799
   83GLOH    C1 9331   3.856   0.042   0.369  0.0013  0.0333 -0.4020
   83GLOH   H02 9332   3.810  -0.056   0.354  0.9841 -0.3175 -1.1269
   83GLOH   H08 9333   3.821   0.115   0.297 -0.5448  1.6862  1.5007
   83GLOH    C2 9334   3.826   0.095   0.509 -0.4629  0.6113  0.9319
   83GLOH   H04 9335   3.875   0.192   0.526  1.7668 -0.6351  1.8410
   83GLOH    O2 9336   3.687   0.111   0.523 -0.6699  0.0641  0.1585
   83GLOH   H05 9337   3.671   0.190   0.469 -0.8879 -0.0869  0.0031
   83GLOH    C3 9338   3.879  -0.012   0.602  0.8075 -0.9351  0.3833
   83GLOH   H06 9339   3.820  -0.099   0.572  1.0694 -2.3392  3.7324
   83GLOH   H07 9340   3.846   0.028   0.698 -0.9689  0.4829 -0.7743
   83GLOH    O3 9341   4.016  -0.035   0.593  0.5347 -0.0102  0.2094
   83GLOH   H01 9342   4.060  -0.057   0.678  1.4075 -0.5350 -0.3745
   84GLOH   H03 9343   3.998   9.546   2.647 -1.2256 -0.4848  2.5677
   84GLOH    O1 9344   3.982   9.642   2.637 -0.2001 -0.5080  0.2794
   84GLOH    C1 9345   4.102   9.701   2.581 -0.4606 -0.2965 -0.3118
   84GLOH   H02 9346   4.106   9.683   2.473  0.8944 -0.3924 -0.2468
   84GLOH   H08 9347   4.182   9.657   2.640 -0.2851  0.8304  0.2827
   84GLOH    C2 9348   4.116   9.851   2.592 -0.6388 -0.3971 -1.4146
   84GLOH   H04 9349   4.108   9.872   2.700  0.7950 -2.0239 -0.9630
   84GLOH    O2 9350   4.239   9.905   2.541  0.2935 -0.5315  0.7590
   84GLOH   H05 9351   4.307   9.912   2.611  1.8862 -1.0991 -0.6874
   84GLOH    C3 9352   4.009   9.925   2.515  0.1127 -0.3224 -0.0761
   84GLOH   H06 9353   3.909   9.887   2.537  0.7277 -0.6681  2.1655
   84GLOH   H07 9354   4.032   9.895   2.413 -0.8802 -3.1234  0.4792
   84GLOH    O3 9355   4.014  10.068   2.541  0.4120 -0.5408  0.1467
   84GLOH   H01 9356   4.013  10.084   2.637  0.9199 -1.4296  0.3054
   85GLOH   H03 9357   3.916   9.680   0.103  1.7137 -2.0017  0.1438
   85GLOH    O1 9358   3.919   9.681   0.200  0.1053  0.9874  0.2045
   85GLOH    C1 9359   4.051   9.721   0.248  1.0728  0.5070 -0.7463
   85GLOH   H02 9360   4.055   9.830   0.246 -0.3731  0.5993  0.2090
   85GLOH   H08 9361   4.130   9.673   0.190 -0.6148  0.0437 -2.7335
   85GLOH    C2 9362   4.067   9.681   0.393 -0.6626 -0.2228 -0.1370
   85GLOH   H04 9363   3.993   9.733   0.456  0.2762  0.3333  0.5131
   85GLOH    O2 9364   4.037   9.543   0.412  0.0535  0.2232 -0.0420
   85GLOH   H05 9365   3.956   9.524   0.362  0.1506  1.1967 -0.5826
   85GLOH    C3 9366   4.211   9.723   0.436 -0.0378 -0.5077  0.7096
   85GLOH   H06 9367   4.220   9.718   0.544  2.1942  1.2321  0.6509
   85GLOH   H07 9368   4.218   9.831   0.428 -0.7001 -0.5215 -0.1828
   85GLOH    O3 9369   4.323   9.665   0.369  0.2935  0.1506 -0.1621
   85GLOH   H01 9370   4.364   9.740   0.323  2.5078  0.0953  1.6212
   86GLOH   H03 9371   3.465   9.466   2.096  0.6642  0.2576 -0.8234
   86GLOH    O1 9372   3.487   9.382   2.140 -0.3478  0.3637 -0.0924
   86GLOH    C1 9373   3.415   9.381   2.268  0.0852 -0.3977  0.7191
   86GLOH   H02 9374   3.318   9.429   2.259  0.8896  0.9238 -1.0042
   86GLOH   H08 9375   3.470   9.430   2.348  0.5355 -1.7699  1.2701
   86GLOH    C2 9376   3.390   9.236   2.322 -0.1849  0.0151  0.2914
   86GLOH   H04 9377   3.481   9.184   2.354  0.6474 -1.5681 -4.2539
   86GLOH    O2 9378   3.301   9.250   2.432  0.3489  0.2264 -0.2746
   86GLOH   H05 9379   3.333   9.320   2.491  2.8701 -0.6252 -0.5570
   86GLOH    C3 9380   3.332   9.145   2.212  0.4969 -0.6197  0.6133
   86GLOH   H06 9381   3.237   9.190   2.183  1.3663 -1.0045 -3.0619
   86GLOH   H07 9382   3.312   9.052   2.266 -1.5309 -0.6430 -0.1329
   86GLOH    O3 9383   3.414   9.126   2.099  0.1494  0.7816 -0.0643
   86GLOH   H01 9384   3.420   9.215   2.060 -3.1811  0.8746 -0.4916
   87GLOH   H03 9385   2.562   8.613   2.059 -0.4505  0.7742 -2.6151
   87GLOH    O1 9386   2.521   8.696   2.090 -0.4827 -0.2373  0.2571
   87GLOH    C1 9387   2.573   8.725   2.222  0.3809  0.1376  0.3424
   87GLOH   H02 9388   2.677   8.693   2.230  0.6223  0.5102 -1.1090
   87GLOH   H08 9389   2.519   8.681   2.305 -1.5563 -0.0000 -0.9614
   87GLOH    C2 9390   2.565   8.874   2.250  0.2802 -0.3589  0.6669
   87GLOH   H04 9391   2.459   8.904   2.248  1.2083  2.9863 -1.1519
   87GLOH    O2 9392   2.632   8.912   2.371 -0.4396  0.4533 -0.4382
   87GLOH   H05 9393   2.611   9.007   2.380 -0.5170  0.3534  0.5267
   87GLOH    C3 9394   2.630   8.958   2.133  0.0865  0.3884  0.1682
   87GLOH   H06 9395   2.735   8.928   2.128 -0.6448 -2.4075  0.8793
   87GLOH   H07 9396   2.626   9.063   2.161 -0.9381 -0.4055  3.1249
   87GLOH    O3 9397   2.576   8.942   2.002 -0.1337 -0.1156  0.1085
   87GLOH   H01 9398   2.558   8.847   1.998 -0.6503 -0.0637  1.2128
   88GLOH   H03 9399   4.353   9.427   1.242 -1.0622  0.0711 -0.1398
   88GLOH    O1 9400   4.373   9.472   1.158  0.4921  0.1569  0.2595
   88GLOH    C1 9401   4.513   9.508   1.146 -0.4609 -0.2282 -0.3699
   88GLOH   H02 9402   4.544   9.572   1.229 -0.9617  0.8131 -0.9753
   88GLOH   H08 9403   4.535   9.567   1.057  0.6382  1.2961  0.8882
   88GLOH    C2 9404   4.612   9.392   1.152 -0.4202 -0.2242  0.1421
   88GLOH   H04 9405   4.710   9.440   1.141 -1.1107  1.6697  1.9086
   88GLOH    O2 9406   4.613   9.333   1.280 -0.0617  0.1320 -0.5966
   88GLOH   H05 9407   4.519   9.337   1.308 -0.3689 -0.9312 -1.4590
   88GLOH    C3 9408   4.595   9.298   1.027  0.4411  0.1088  0.2967
   88GLOH   H06 9409   4.493   9.262   1.023  0.8332 -0.8974 -1.3130
   88GLOH   H07 9410   4.649   9.203   1.031  0.1495 -0.0361  0.7746
   88GLOH    O3 9411   4.610   9.371   0.904 -0.2921 -0.3262 -0.1173
   88GLOH   H01 9412   4.537   9.337   0.850  0.0775 -1.1893 -0.0764
   89GLOH   H03 9413   4.048   8.223   2.197  0.3034 -2.2069  0.2412
   89GLOH    O1 9414   4.039   8.237   2.293  0.2339  0.5355 -0.1342
   89GLOH    C1 9415   4.048   8.111   2.363  0.5691  0.5928  0.4613
   89GLOH   H02 9416   4.119   8.115   2.446  0.0222 -0.3342  0.9761
   89GLOH   H08 9417   4.093   8.035   2.299  0.0621  0.5391  0.1651
   89GLOH    C2 9418   3.911   8.054   2.393  0.0174  0.3921 -0.7765
   89GLOH   H04 9419   3.926   7.954   2.435  0.2605  0.5348 -0.5133
   89GLOH    O2 9420   3.850   8.136   2.491  0.1824 -0.0100  0.1731
   89GLOH   H05 9421   3.891   8.139   2.579  0.5501 -1.1219  0.0467
   89GLOH    C3 9422   3.831   8.023   2.268 -0.7781  0.8198 -0.6454
   89GLOH   H06 9423   3.812   8.118   2.218 -0.1586 -0.3869 -3.2553
   89GLOH   H07 9424   3.737   7.975   2.294  0.1443 -1.0683 -0.7082
   89GLOH    O3 9425   3.891   7.942   2.158  0.5715 -0.3043  0.3827
   89GLOH   H01 9426   3.825   7.906   2.097 -0.9371 -0.5717  2.1244
   90GLOH   H03 9427   3.102   9.769   0.572 -0.2737  0.2758 -1.2423
   90GLOH    O1 9428   3.148   9.829   0.510 -0.1692  1.0472 -0.4182
   90GLOH    C1 9429   3.238   9.754   0.430  0.4918 -0.4114  0.1097
   90GLOH   H02 9430   3.289   9.686   0.499  0.9430  0.5707  0.7624
   90GLOH   H08 9431   3.311   9.819   0.382 -1.1513 -0.1492 -2.1030
   90GLOH    C2 9432   3.171   9.690   0.306 -0.2822  0.2395  0.3941
   90GLOH   H04 9433   3.152   9.776   0.240  0.3322  0.7255  0.8440
   90GLOH    O2 9434   3.273   9.614   0.233  0.0056  0.0362  0.3582
   90GLOH   H05 9435   3.300   9.547   0.298  1.2368 -0.0323 -0.2182
   90GLOH    C3 9436   3.037   9.617   0.331 -0.3931  0.6021  0.3192
   90GLOH   H06 9437   3.040   9.584   0.435 -0.8355  2.2179  0.8581
   90GLOH   H07 9438   3.031   9.527   0.270  0.5126  0.3652  0.5786
   90GLOH    O3 9439   2.927   9.694   0.301 -0.0419  0.2725 -0.5072
   90GLOH   H01 9440   2.857   9.629   0.285  1.8706 -1.1557 -3.5734
   91GLOH   H03 9441   3.482   9.441   1.342 -0.3009 -0.5428 -1.3709
   91GLOH    O1 9442   3.523   9.530   1.338 -0.1406 -0.6165 -1.3949
   91GLOH    C1 9443   3.575   9.536   1.205  0.0820  0.9110  0.4913
   91GLOH   H02 9444   3.506   9.485   1.138  0.7038  0.1911  0.3933
   91GLOH   H08 9445   3.670   9.482   1.207 -0.3130  0.1945 -0.0795
   91GLOH    C2 9446   3.605   9.678   1.151  0.3737  0.5985  0.0053
   91GLOH   H04 9447   3.690   9.717   1.209  2.9310 -0.1676 -3.0732
   91GLOH    O2 9448   3.653   9.671   1.018  0.0577 -0.9552 -0.1591
   91GLOH   H05 9449   3.598   9.614   0.962 -1.4700 -0.9201  1.2783
   91GLOH    C3 9450   3.493   9.779   1.168  0.5094  0.0798 -0.1032
   91GLOH   H06 9451   3.512   9.860   1.097 -0.0455  1.5194  1.3386
   91GLOH   H07 9452   3.498   9.814   1.271  0.6789 -0.3091  0.0210
   91GLOH    O3 9453   3.358   9.733   1.142 -0.1323 -0.7676  0.0831
   91GLOH   H01 9454   3.330   9.753   1.051 -1.1906 -1.6367  0.2136
   92GLOH   H03 9455   3.093   7.962   0.031  1.6528 -0.6768 -0.6112
   92GLOH    O1 9456   3.121   7.970  -0.062  0.2157 -0.2562 -1.0194
   92GLOH    C1 9457   3.063   8.088  -0.128 -0.2392  0.4265  0.3322
   92GLOH   H02 9458   2.955   8.081  -0.119 -0.3747 -0.6312 -1.7069
   92GLOH   H08 9459   3.086   8.077  -0.234 -0.9745 -1.2320  0.3316
   92GLOH    C2 9460   3.112   8.226  -0.076 -1.0982 -0.3828 -0.6610
   92GLOH   H04 9461   3.221   8.237  -0.061 -1.0781 -0.9277 -0.3909
   92GLOH    O2 9462   3.078   8.336  -0.168 -0.3733  0.2656 -0.4057
   92GLOH   H05 9463   3.132   8.325  -0.248 -0.1648  1.0546 -0.3713
   92GLOH    C3 9464   3.062   8.246   0.069 -0.3189 -0.2458  0.4989
   92GLOH   H06 9465   3.104   8.342   0.101 -0.2792 -0.0300 -0.1888
   92GLOH   H07 9466   3.092   8.173   0.144 -1.6084  0.7829  2.0455
   92GLOH    O3 9467   2.922   8.246   0.078  0.1098 -0.1248 -0.0255
   92GLOH   H01 9468   2.897   8.164   0.124 -1.0215  0.0257 -0.3754
   93GLOH   H03 9469   3.078   0.182   1.168  0.6503 -0.3275 -1.3119
   93GLOH    O1 9470   3.002   0.126   1.146  0.1780 -0.2816  0.1694
   93GLOH    C1 9471   3.030   0.053   1.024  0.2999  0.1180  0.1079
   93GLOH   H02 9472   3.071  -0.043   1.052  1.5868  1.3271  2.5384
   93GLOH   H08 9473   3.109   0.096   0.963  0.3483 -0.6596 -0.3858
   93GLOH    C2 9474   2.908   0.028   0.937  0.4898 -0.8369  0.2453
   93GLOH   H04 9475   2.944  -0.032   0.852 -0.0330  0.2213 -0.7314
   93GLOH    O2 9476   2.807  -0.042   1.012  0.6117  0.2932  0.2809
   93GLOH   H05 9477   2.827  -0.021   1.105 -0.5948 -0.0895  0.6320
   93GLOH    C3 9478   2.867   0.166   0.891 -0.4138 -0.0018  0.7921
   93GLOH   H06 9479   2.849   0.228   0.979  1.3719  1.3900  0.1935
   93GLOH   H07 9480   2.774   0.154   0.836  0.6110 -0.8049 -0.7943
   93GLOH    O3 9481   2.966   0.227   0.801 -0.2630  0.0456  0.1364
   93GLOH   H01 9482   2.947   0.188   0.713  1.5247  0.8214 -0.6242
   94GLOH   H03 9483   3.233   0.288   2.648 -0.1491 -1.3826 -0.5045
   94GLOH    O1 9484   3.253   0.300   2.553  0.3643 -0.0722 -0.2387
   94GLOH    C1 9485   3.331   0.185   2.515 -0.6315  0.1555 -0.5548
   94GLOH   H02 9486   3.304   0.139   2.420  1.3585 -3.4492  0.5365
   94GLOH   H08 9487   3.303   0.104   2.582 -0.2187  0.9171  0.5480
   94GLOH    C2 9488   3.484   0.204   2.515 -0.3723  0.3332  0.0410
   94GLOH   H04 9489   3.518   0.220   2.619 -0.2441  0.2450  0.0119
   94GLOH    O2 9490   3.557   0.102   2.452  0.2798  0.6023  0.1159
   94GLOH   H05 9491   3.635   0.127   2.400  1.0704  0.8881  1.4281
   94GLOH    C3 9492   3.519   0.339   2.452 -0.2793  0.4657  0.0858
   94GLOH   H06 9493   3.478   0.344   2.352  1.0937  0.5977 -0.4917
   94GLOH   H07 9494   3.627   0.351   2.440 -0.8798  2.1809 -4.3461
   94GLOH    O3 9495   3.465   0.451   2.519  0.1925 -0.3910 -0.4816
   94GLOH   H01 9496   3.369   0.436   2.512 -0.1913  1.2451  0.9477
   95GLOH   H03 9497   3.275   9.805   1.264  2.1136  1.4969 -0.2098
   95GLOH    O1 9498   3.244   9.844   1.348  0.9621  0.3651 -0.0946
   95GLOH    C1 9499   3.279   9.765   1.466  0.9092 -0.5236 -0.0688
   95GLOH   H02 9500   3.380   9.724   1.454  0.3848 -1.8680 -0.0566
   95GLOH   H08 9501   3.202   9.688   1.475  0.7512 -0.4025 -0.4340
   95GLOH    C2 9502   3.258   9.853   1.586 -0.3657 -0.1645 -0.5115
   95GLOH   H04 9503   3.151   9.873   1.600  0.1425  0.3186  3.3717
   95GLOH    O2 9504   3.308   9.793   1.712  0.4729  0.1984  0.0157
   95GLOH   H05 9505   3.244   9.724   1.740 -0.9217  1.5356  0.1924
   95GLOH    C3 9506   3.325   9.988   1.573  0.0413  0.2069 -0.3149
   95GLOH   H06 9507   3.434   9.978   1.581  0.0701 -1.8359 -2.7791
   95GLOH   H07 9508   3.282  10.048   1.653  0.9192 -0.9470  1.0559
   95GLOH    O3 9509   3.282  10.064   1.453 -0.1819 -0.2140 -0.2207
   95GLOH   H01 9510   3.246   9.997   1.392  1.0945 -0.4913 -0.6748
   96GLOH   H03 9511   3.341   0.681   2.151 -0.6015  0.2844 -1.2582
   96GLOH    O1 9512   3.425   0.716   2.116  0.3193 -0.5188  0.0763
   96GLOH    C1 9513   3.398   0.846   2.050  0.3640 -0.6476  0.3390
   96GLOH   H02 9514   3.461   0.921   2.097 -1.0085  2.0324 -1.9207
   96GLOH   H08 9515   3.293   0.874   2.059  1.0257  1.7450  0.9686
   96GLOH    C2 9516   3.430   0.841   1.900 -0.4812  0.2228 -0.0368
   96GLOH   H04 9517   3.347   0.797   1.843  0.8329 -0.9072 -1.1097
   96GLOH    O2 9518   3.466   0.975   1.853 -0.7759 -0.4494 -0.1205
   96GLOH   H05 9519   3.558   0.990   1.877 -0.9782  0.4314  0.1331
   96GLOH    C3 9520   3.554   0.746   1.872  0.0513 -0.1014  0.9560
   96GLOH   H06 9521   3.535   0.649   1.916  1.1349 -0.7370  0.0534
   96GLOH   H07 9522   3.640   0.786   1.925  0.4055  2.5192 -1.4443
   96GLOH    O3 9523   3.588   0.725   1.733 -0.6291 -0.4547  0.5833
   96GLOH   H01 9524   3.603   0.812   1.694  0.2569 -1.3228 -1.0648
   97GLOH   H03 9525   2.872   0.041   1.294 -0.2444  0.0901  0.7166
   97GLOH    O1 9526   2.849  -0.051   1.272 -0.5746  0.2614  0.3638
   97GLOH    C1 9527   2.949  -0.154   1.294  0.0288 -0.1735  0.4400
   97GLOH   H02 9528   2.977  -0.168   1.398  0.4022  2.4014  0.7306
   97GLOH   H08 9529   3.034  -0.121   1.233 -1.7315 -1.1494 -2.6605
   97GLOH    C2 9530   2.898  -0.288   1.234  0.0574 -0.3217  0.3458
   97GLOH   H04 9531   2.889  -0.277   1.125 -1.1827 -2.1395  0.2469
   97GLOH    O2 9532   2.996  -0.395   1.262 -0.2725  0.2986  0.1020
   97GLOH   H05 9533   2.949  -0.480   1.254  0.8932 -0.2257 -1.3946
   97GLOH    C3 9534   2.760  -0.312   1.300  0.1333  0.8934 -0.4104
   97GLOH   H06 9535   2.694  -0.233   1.264  0.5799  2.3797  1.8971
   97GLOH   H07 9536   2.774  -0.281   1.403  1.9823 -0.3058 -0.2797
   97GLOH    O3 9537   2.689  -0.436   1.285  0.2614  0.1129 -0.5200
   97GLOH   H01 9538   2.656  -0.458   1.374  1.0108 -0.2634 -0.3304
   98GLOH   H03 9539   3.350   0.730   1.108 -2.5074  1.9488 -0.7954
   98GLOH    O1 9540   3.298   0.656   1.145 -0.3293  0.5461 -0.4486
   98GLOH    C1 9541   3.230   0.588   1.039 -0.4906  0.0649 -0.2108
   98GLOH   H02 9542   3.132   0.629   1.015 -0.0813  1.4732  0.5066
   98GLOH   H08 9543   3.216   0.487   1.079  0.2254  0.8045  1.9719
   98GLOH    C2 9544   3.308   0.604   0.907 -0.3141  0.3038 -0.4238
   98GLOH   H04 9545   3.413   0.585   0.935 -0.3009  0.6555 -0.2274
   98GLOH    O2 9546   3.257   0.519   0.804 -0.4426  0.3991 -0.5493
   98GLOH   H05 9547   3.270   0.424   0.817 -1.6150  0.3949  0.7410
   98GLOH    C3 9548   3.301   0.753   0.866  0.0309 -0.8590  0.6681
   98GLOH   H06 9549   3.203   0.798   0.848  1.3408  1.6186 -0.5740
   98GLOH   H07 9550   3.352   0.757   0.770  2.2152 -2.0561  1.7520
   98GLOH    O3 9551   3.369   0.835   0.964  0.4959 -0.2502  0.4978
   98GLOH   H01 9552   3.343   0.927   0.945 -0.1052 -0.7784 -1.2679
   99GLOH   H03 9553   4.316   9.346   1.886  0.7592 -0.5142  0.2727
   99GLOH    O1 9554   4.331   9.283   1.813 -0.2248 -0.1816 -0.2294
   99GLOH    C1 9555   4.477   9.270   1.787  0.3468  0.1019 -0.2453
   99GLOH   H02 9556   4.508   9.166   1.780 -1.2388 -0.5000  1.2253
   99GLOH   H08 9557   4.534   9.316   1.868 -0.7254 -0.2659  0.7231
   99GLOH    C2 9558   4.528   9.340   1.655 -0.1288  0.1194  0.2866
   99GLOH   H04 9559   4.513   9.264   1.577 -1.4076  0.8721 -0.2097
   99GLOH    O2 9560   4.472   9.472   1.620 -0.3115 -0.7908 -0.7170
   99GLOH   H05 9561   4.408   9.445   1.552  0.9824 -1.0128 -1.8747
   99GLOH    C3 9562   4.676   9.358   1.674 -0.3682  0.2274  0.0446
   99GLOH   H06 9563   4.701   9.408   1.768  1.5039 -0.3215 -0.1283
   99GLOH   H07 9564   4.713   9.435   1.606  0.9393  0.0612  0.5515
   99GLOH    O3 9565   4.754   9.239   1.665 -0.3913 -0.3559  0.2685
   99GLOH   H01 9566   4.783   9.224   1.573 -0.6975  1.7690 -0.1925
  100GLOH   H03 9567   2.519   8.750   0.126 -0.4104 -0.0038  0.4841
  100GLOH    O1 9568   2.522   8.837   0.083 -0.0568 -0.5608 -0.6496
  100GLOH    C1 9569   2.572   8.942   0.168  0.0396  0.3178  0.0228
  100GLOH   H02 9570   2.518   8.953   0.262 -1.3281  3.5000 -1.0575
  100GLOH   H08 9571   2.578   9.033   0.108  0.6613 -0.9604 -1.8876
  100GLOH    C2 9572   2.719   8.911   0.210 -1.0772  0.2307  0.0116
  100GLOH   H04 9573   2.726   8.806   0.244 -1.6289  0.0603 -0.3873
  100GLOH    O2 9574   2.810   8.917   0.100  0.4926  0.6458  0.5121
  100GLOH   H05 9575   2.778   8.860   0.028  0.5694  2.2631 -0.8371
  100GLOH    C3 9576   2.767   8.994   0.332  0.3003  0.4066  0.1012
  100GLOH   H06 9577   2.769   9.103   0.323  2.6975  0.3608 -0.2012
  100GLOH   H07 9578   2.868   8.955   0.349 -0.0938  0.0369  1.7334
  100GLOH    O3 9579   2.701   8.954   0.449 -0.4326  0.4183  0.4827
  100GLOH   H01 9580   2.697   8.857   0.459  1.0858  0.0600 -1.8107
  101GLOH   H03 9581   4.100   8.915   2.635  0.0442 -0.3728 -1.9036
  101GLOH    O1 9582   4.013   8.959   2.624  0.2475  0.4349 -0.4540
  101GLOH    C1 9583   4.026   9.023   2.498  0.2998  0.0427 -0.7554
  101GLOH   H02 9584   4.054   9.128   2.504 -1.0283  0.5477 -2.5958
  101GLOH   H08 9585   3.927   9.019   2.451  0.0363 -1.8826 -0.0980
  101GLOH    C2 9586   4.136   8.954   2.404  0.4094 -0.1276  0.1594
  101GLOH   H04 9587   4.113   8.850   2.377  1.7247 -0.6526  1.0433
  101GLOH    O2 9588   4.154   9.037   2.284  0.5058  0.2696 -0.6251
  101GLOH   H05 9589   4.069   9.040   2.237  1.3172  1.0914 -2.0583
  101GLOH    C3 9590   4.265   8.964   2.479  0.0013  0.2572  0.1219
  101GLOH   H06 9591   4.289   9.068   2.503  0.7475 -0.1845  1.3026
  101GLOH   H07 9592   4.344   8.924   2.416 -0.3686 -1.2515  0.6105
  101GLOH    O3 9593   4.252   8.888   2.602 -0.6493  0.0062 -0.5035
  101GLOH   H01 9594   4.275   8.799   2.570  0.8370  0.4875 -0.8443
  102GLOH   H03 9595   3.007   8.731   0.613  1.3975 -2.3726  0.4440
  102GLOH    O1 9596   2.938   8.711   0.680  0.4604 -0.3276  0.1127
  102GLOH    C1 9597   2.986   8.746   0.810 -0.1702 -0.0864  0.0203
  102GLOH   H02 9598   2.914   8.801   0.870  0.9776  1.0727  0.3491
  102GLOH   H08 9599   3.073   8.810   0.796 -0.4197  0.8165  2.3829
  102GLOH    C2 9600   3.025   8.625   0.901  0.0629 -0.2234  0.5482
  102GLOH   H04 9601   3.116   8.573   0.868  0.3573 -0.7854  2.1910
  102GLOH    O2 9602   3.063   8.676   1.030  0.5324  0.0690  0.1581
  102GLOH   H05 9603   2.982   8.712   1.068 -0.8445 -1.3258 -1.3910
  102GLOH    C3 9604   2.901   8.532   0.917 -0.3523  0.4299  0.0426
  102GLOH   H06 9605   2.842   8.534   0.825 -0.2458 -0.2090 -0.0416
  102GLOH   H07 9606   2.846   8.570   1.003 -1.4538 -1.1096  0.0445
  102GLOH    O3 9607   2.940   8.392   0.946 -0.3656 -0.0549 -0.2902
  102GLOH   H01 9608   3.008   8.366   0.882 -0.2730  1.5204 -0.8507
  103GLOH   H03 9609   3.526   7.972   1.544  1.4655  4.8263  1.9102
  103GLOH    O1 9610   3.616   7.935   1.547  0.0209  0.8895  0.3675
  103GLOH    C1 9611   3.611   7.861   1.671 -0.3871 -0.1336  0.4601
  103GLOH   H02 9612   3.693   7.789   1.673 -0.4925 -0.4038 -2.8887
  103GLOH   H08 9613   3.515   7.810   1.667 -0.5236  0.1828 -0.2471
  103GLOH    C2 9614   3.613   7.928   1.811  0.5750  0.4307  0.3624
  103GLOH   H04 9615   3.698   7.996   1.815  0.7994  0.1419  0.5291
  103GLOH    O2 9616   3.482   7.990   1.829 -0.0038  0.6127 -0.0526
  103GLOH   H05 9617   3.447   8.020   1.744 -0.2740  0.1569 -0.1025
  103GLOH    C3 9618   3.640   7.816   1.914  0.3926 -0.0633 -0.4587
  103GLOH   H06 9619   3.726   7.755   1.883  0.1103  0.2523 -1.9280
  103GLOH   H07 9620   3.556   7.747   1.914  0.1292  0.2580 -0.1260
  103GLOH    O3 9621   3.654   7.859   2.049 -1.0107 -0.4506 -0.2150
  103GLOH   H01 9622   3.570   7.885   2.090 -0.8306 -0.9425  0.4675
  104GLOH   H03 9623   3.409   9.184   0.568 -0.5207 -0.1316 -1.3700
  104GLOH    O1 9624   3.410   9.278   0.544  0.2412  0.2206  0.0305
  104GLOH    C1 9625   3.445   9.357   0.661 -0.7389 -0.7122  0.4515
  104GLOH   H02 9626   3.353   9.414   0.674 -0.1568  0.5453 -0.8859
  104GLOH   H08 9627   3.523   9.430   0.640 -1.0932 -0.2047  0.8556
  104GLOH    C2 9628   3.478   9.268   0.785  0.3126 -0.5575 -0.0075
  104GLOH   H04 9629   3.388   9.208   0.805  0.5709 -2.7374 -4.6067
  104GLOH    O2 9630   3.590   9.183   0.752  0.3114  0.4364 -0.0390
  104GLOH   H05 9631   3.649   9.183   0.829  1.2616  1.2883 -0.7623
  104GLOH    C3 9632   3.494   9.354   0.910 -0.4355 -0.0407 -0.2271
  104GLOH   H06 9633   3.543   9.286   0.980 -2.1964 -0.9663  0.1269
  104GLOH   H07 9634   3.399   9.376   0.960  0.2791 -0.4539  1.3442
  104GLOH    O3 9635   3.577   9.464   0.887  0.1200 -0.2673  0.1526
  104GLOH   H01 9636   3.662   9.428   0.855  0.1366 -1.7663  1.8075
  105GLOH   H03 9637   3.366   8.537   0.247  0.0471  0.9850 -0.4415
  105GLOH    O1 9638   3.318   8.544   0.332  0.0371 -0.8976 -0.2794
  105GLOH    C1 9639   3.210   8.635   0.335 -0.1516 -0.0556 -0.0592
  105GLOH   H02 9640   3.119   8.577   0.321 -1.1455  1.3258  0.6242
  105GLOH   H08 9641   3.218   8.713   0.259 -0.3088  3.1037  3.0280
  105GLOH    C2 9642   3.199   8.700   0.474 -0.1092  0.0265 -0.5959
  105GLOH   H04 9643   3.284   8.768   0.489 -0.0545  0.5574 -3.1047
  105GLOH    O2 9644   3.081   8.780   0.488  0.1734 -0.3838  0.5584
  105GLOH   H05 9645   3.097   8.862   0.439  1.1886  0.3420  2.0529
  105GLOH    C3 9646   3.203   8.597   0.588  0.0183  0.5115  0.6640
  105GLOH   H06 9647   3.111   8.539   0.582  0.2236  0.3523 -1.4457
  105GLOH   H07 9648   3.195   8.650   0.683 -1.7063  0.5887  0.5011
  105GLOH    O3 9649   3.317   8.509   0.573 -0.6084 -0.7538  0.2479
  105GLOH   H01 9650   3.330   8.507   0.476  0.9025  0.7709  0.3985
  106GLOH   H03 9651   3.485   8.546   1.363 -1.1521  0.3817  0.3269
  106GLOH    O1 9652   3.469   8.454   1.389 -0.1779  0.3038  0.6608
  106GLOH    C1 9653   3.532   8.373   1.285  0.3923 -0.0291 -0.2840
  106GLOH   H02 9654   3.634   8.407   1.268  1.1457 -1.9640  0.2466
  106GLOH   H08 9655   3.475   8.396   1.195  0.4419 -0.2895 -0.3826
  106GLOH    C2 9656   3.541   8.226   1.315  0.3292  0.2919 -0.0516
  106GLOH   H04 9657   3.599   8.228   1.409  0.5328 -0.4595 -0.1535
  106GLOH    O2 9658   3.408   8.176   1.338 -0.3470  0.2097  0.3646
  106GLOH   H05 9659   3.340   8.236   1.303  0.7396  0.8358 -0.6915
  106GLOH    C3 9660   3.626   8.135   1.216  0.0793 -0.0477 -0.3589
  106GLOH   H06 9661   3.577   8.038   1.206 -0.6041  0.2812 -0.2250
  106GLOH   H07 9662   3.720   8.106   1.261 -0.0571  0.1946  0.0791
  106GLOH    O3 9663   3.644   8.195   1.087  0.3645  0.0116 -0.1408
  106GLOH   H01 9664   3.672   8.117   1.035  0.3482 -0.1423  0.0803
  107GLOH   H03 9665   3.973   8.606   2.296 -0.1030  0.2747  0.6646
  107GLOH    O1 9666   3.905   8.669   2.265  0.0562 -0.0639 -0.3524
  107GLOH    C1 9667   3.899   8.647   2.127  0.5473  0.4037  0.7203
  107GLOH   H02 9668   3.812   8.699   2.086  1.8631  1.7358 -0.4363
  107GLOH   H08 9669   3.884   8.541   2.103 -1.6533  1.1709 -1.5148
  107GLOH    C2 9670   4.032   8.690   2.062  0.0217 -0.2997 -0.6081
  107GLOH   H04 9671   4.075   8.770   2.126  0.7532 -0.6420 -0.6698
  107GLOH    O2 9672   4.127   8.588   2.054 -0.1039  0.6159 -0.1443
  107GLOH   H05 9673   4.102   8.516   1.994 -3.6994  1.1807  0.5875
  107GLOH    C3 9674   4.006   8.751   1.922 -0.0482  0.0973 -1.0263
  107GLOH   H06 9675   3.965   8.675   1.854 -2.4502  0.0953  0.3683
  107GLOH   H07 9676   4.091   8.788   1.865  1.3482 -1.9415 -0.2974
  107GLOH    O3 9677   3.911   8.864   1.936 -0.3501 -0.3637  0.4872
  107GLOH   H01 9678   3.918   8.899   1.845  1.0634 -0.3113  0.6105
  108GLOH   H03 9679   3.927   8.991   1.615  2.0256 -0.1170 -0.4199
  108GLOH    O1 9680   3.961   8.976   1.705  0.0225  0.0957  0.3961
  108GLOH    C1 9681   4.097   9.022   1.710 -0.3779  0.0969  0.1050
  108GLOH   H02 9682   4.160   8.935   1.690 -2.2025 -0.8683 -1.6251
  108GLOH   H08 9683   4.122   9.067   1.806  0.5239 -0.5950  0.2035
  108GLOH    C2 9684   4.120   9.122   1.597  0.2786  0.4023  0.0627
  108GLOH   H04 9685   4.063   9.210   1.632  1.9076  1.0917  1.0393
  108GLOH    O2 9686   4.257   9.156   1.594 -0.0706  0.4572  0.3389
  108GLOH   H05 9687   4.274   9.207   1.675  2.5208  0.3135 -0.0446
  108GLOH    C3 9688   4.070   9.070   1.462 -0.2401  0.0002  0.6271
  108GLOH   H06 9689   4.127   8.986   1.423 -1.5430 -0.0455 -1.2502
  108GLOH   H07 9690   4.096   9.144   1.386  1.1221  0.6971  1.7569
  108GLOH    O3 9691   3.929   9.044   1.465  0.4887  0.2651  0.3469
  108GLOH   H01 9692   3.913   8.990   1.385  0.5100 -1.6407  1.5930
  109GLOH   H03 9693   4.494   0.426   0.306 -0.4021  0.8128 -0.4842
  109GLOH    O1 9694   4.403   0.392   0.315 -0.0182 -0.2118 -0.3889
  109GLOH    C1 9695   4.355   0.427   0.441 -0.2737 -0.3071  0.9832
  109GLOH   H02 9696   4.353   0.536   0.443 -0.2267 -0.2641 -0.5830
  109GLOH   H08 9697   4.415   0.380   0.519  1.0718 -0.6298 -0.2306
  109GLOH    C2 9698   4.209   0.375   0.459 -0.3328  0.2637  0.3416
  109GLOH   H04 9699   4.153   0.401   0.368 -0.7694  0.1687  0.5817
  109GLOH    O2 9700   4.185   0.232   0.472 -0.0714  0.0423 -0.2015
  109GLOH   H05 9701   4.174   0.199   0.381 -0.6364  0.9192 -0.4580
  109GLOH    C3 9702   4.149   0.455   0.575  0.0445  0.4712 -0.5465
  109GLOH   H06 9703   4.218   0.472   0.657  0.9471 -1.6642 -0.8256
  109GLOH   H07 9704   4.062   0.404   0.616  0.2985 -0.2529 -0.8997
  109GLOH    O3 9705   4.114   0.580   0.527  0.5014  0.0872 -0.0227
  109GLOH   H01 9706   4.052   0.612   0.595 -0.0117 -0.1799 -0.3598
  110GLOH   H03 9707   3.973   0.194   1.898  0.2891 -1.6014  2.6266
  110GLOH    O1 9708   4.023   0.269   1.935 -0.1713 -0.0480  0.2285
  110GLOH    C1 9709   3.946   0.386   1.947  0.3061 -0.1360  0.2907
  110GLOH   H02 9710   3.998   0.449   2.019  0.0111  1.3207 -0.7569
  110GLOH   H08 9711   3.848   0.369   1.992 -0.1581  0.3220 -0.5370
  110GLOH    C2 9712   3.928   0.471   1.818  0.7498  0.2282 -0.1261
  110GLOH   H04 9713   4.025   0.512   1.787  0.3277  0.1248 -1.6506
  110GLOH    O2 9714   3.863   0.396   1.713 -0.1381  0.0812  0.5150
  110GLOH   H05 9715   3.771   0.422   1.693 -0.6309 -0.9614  1.3891
  110GLOH    C3 9716   3.846   0.598   1.844  0.2901 -0.1582  0.4001
  110GLOH   H06 9717   3.745   0.564   1.865  0.0322  0.9182  0.9749
  110GLOH   H07 9718   3.851   0.662   1.756  0.2809 -0.3023  0.2956
  110GLOH    O3 9719   3.895   0.681   1.952 -0.4686 -0.7739 -0.4045
  110GLOH   H01 9720   3.865   0.639   2.035 -0.0292  0.0706  0.1793
  111GLOH   H03 9721   3.981   9.575   2.196 -0.4144  2.3601 -1.1927
  111GLOH    O1 9722   4.069   9.580   2.154  0.1604 -0.2545 -0.4071
  111GLOH    C1 9723   4.153   9.482   2.216  0.2776 -0.3565  0.5265
  111GLOH   H02 9724   4.101   9.437   2.300 -0.2472  1.4216  1.1875
  111GLOH   H08 9725   4.234   9.545   2.255  1.7704 -1.7402 -0.3157
  111GLOH    C2 9726   4.216   9.377   2.122 -0.0683 -0.1009 -0.5825
  111GLOH   H04 9727   4.144   9.304   2.082  1.0884  0.1987 -3.3612
  111GLOH    O2 9728   4.269   9.437   2.002 -0.1321  0.0611 -0.6347
  111GLOH   H05 9729   4.268   9.534   2.008 -1.6570 -0.0374  1.2424
  111GLOH    C3 9730   4.337   9.299   2.177 -0.0527  0.0519 -0.1827
  111GLOH   H06 9731   4.422   9.366   2.173 -0.4485  0.5245 -0.7516
  111GLOH   H07 9732   4.362   9.225   2.100  0.0846  0.9466 -1.0054
  111GLOH    O3 9733   4.318   9.242   2.308  0.2460  0.5035 -0.2038
  111GLOH   H01 9734   4.253   9.170   2.301  0.1434  0.5948 -0.2060
  112GLOH   H03 9735   3.815   9.024   0.142  2.1364  0.9749  0.3667
  112GLOH    O1 9736   3.794   9.045   0.235 -0.2653 -0.4074  0.2022
  112GLOH    C1 9737   3.700   8.946   0.276 -0.0901 -0.0015  0.7362
  112GLOH   H02 9738   3.608   8.973   0.225 -0.2059 -0.6170  0.6151
  112GLOH   H08 9739   3.693   8.952   0.385  0.4725  0.1943  0.7654
  112GLOH    C2 9740   3.734   8.800   0.236 -0.3087 -0.1912 -1.1587
  112GLOH   H04 9741   3.643   8.745   0.265 -1.2335  2.5282  1.3335
  112GLOH    O2 9742   3.768   8.792   0.097  0.0722 -0.3556 -0.1931
  112GLOH   H05 9743   3.713   8.853   0.046 -0.5344  0.5365  1.4646
  112GLOH    C3 9744   3.842   8.736   0.320 -0.0135 -0.2638  0.2092
  112GLOH   H06 9745   3.928   8.803   0.325  0.7632 -1.4217  3.1743
  112GLOH   H07 9746   3.876   8.650   0.261  1.1873  0.1951  0.2104
  112GLOH    O3 9747   3.799   8.710   0.454 -0.2037 -0.3461  0.0546
  112GLOH   H01 9748   3.753   8.624   0.460  1.7917 -1.4360 -0.0144
  113GLOH   H03 9749   3.474   8.762   0.921 -0.3361 -0.5070  1.4936
  113GLOH    O1 9750   3.383   8.797   0.917  0.0408  0.3714  0.2605
  113GLOH    C1 9751   3.390   8.920   0.846  0.1317  0.2934  0.2346
  113GLOH   H02 9752   3.467   8.988   0.884  0.7128 -0.7130  0.8536
  113GLOH   H08 9753   3.294   8.970   0.829  0.7797  1.2644 -0.6918
  113GLOH    C2 9754   3.436   8.890   0.700 -0.0481  0.2635  1.0300
  113GLOH   H04 9755   3.351   8.831   0.662  2.5109 -1.6919 -1.9231
  113GLOH    O2 9756   3.456   9.009   0.618 -0.4678 -0.5926 -0.3424
  113GLOH   H05 9757   3.510   9.072   0.668 -0.6663 -0.4484 -0.3091
  113GLOH    C3 9758   3.561   8.796   0.698 -0.7840  0.3157  0.2352
  113GLOH   H06 9759   3.636   8.849   0.639 -0.4225  0.0527  0.4533
  113GLOH   H07 9760   3.532   8.703   0.649  0.3761 -0.3374  0.7757
  113GLOH    O3 9761   3.610   8.757   0.829  0.1411 -0.0451  0.2202
  113GLOH   H01 9762   3.708   8.757   0.834  0.2261  0.9719 -1.0750
  114GLOH   H03 9763   2.943   9.533   2.427  1.7344  0.8349  0.2411
  114GLOH    O1 9764   2.951   9.573   2.339 -0.6110 -0.3515 -0.5681
  114GLOH    C1 9765   2.855   9.683   2.331 -0.0122  0.5085 -0.1516
  114GLOH   H02 9766   2.878   9.759   2.406 -0.6864 -0.1175  0.6896
  114GLOH   H08 9767   2.758   9.648   2.367  0.0687 -1.4184 -1.7606
  114GLOH    C2 9768   2.822   9.741   2.195  0.0202  0.0342 -0.4604
  114GLOH   H04 9769   2.912   9.724   2.135  0.7945  0.5648  0.5218
  114GLOH    O2 9770   2.717   9.671   2.123 -0.0881 -0.2687 -0.0225
  114GLOH   H05 9771   2.752   9.642   2.037  0.0011  1.5648 -0.6299
  114GLOH    C3 9772   2.803   9.898   2.208 -0.1529  0.5592 -0.1246
  114GLOH   H06 9773   2.730   9.909   2.288  1.7440  1.5545  1.5022
  114GLOH   H07 9774   2.765   9.943   2.116 -3.7370 -0.0948  0.9253
  114GLOH    O3 9775   2.929   9.955   2.248 -0.7435  0.1494  0.8162
  114GLOH   H01 9776   2.976   9.971   2.164 -0.7855 -1.2642  0.5138
  115GLOH   H03 9777   3.607   0.122   0.673  0.1865 -1.6304  0.4217
  115GLOH    O1 9778   3.575   0.142   0.763 -0.1677  0.3171 -0.1265
  115GLOH    C1 9779   3.455   0.065   0.798 -0.1263 -0.4436 -0.2008
  115GLOH   H02 9780   3.413   0.102   0.892  0.7824 -1.4722  0.6208
  115GLOH   H08 9781   3.477  -0.037   0.827  1.2471 -0.7244 -2.1272
  115GLOH    C2 9782   3.347   0.071   0.688 -0.8397  0.6235  0.5080
  115GLOH   H04 9783   3.401   0.062   0.593 -1.2897 -0.2433  0.3287
  115GLOH    O2 9784   3.264  -0.044   0.706  0.3690 -0.2318 -0.0097
  115GLOH   H05 9785   3.216  -0.073   0.627 -2.3566  2.4218  0.5698
  115GLOH    C3 9786   3.268   0.203   0.691  0.3544  0.0333 -0.5974
  115GLOH   H06 9787   3.183   0.212   0.623 -0.2907  1.3369  0.3653
  115GLOH   H07 9788   3.339   0.275   0.652  1.0356 -0.7228 -0.7636
  115GLOH    O3 9789   3.230   0.248   0.821 -0.1640 -0.2925 -0.4765
  115GLOH   H01 9790   3.133   0.251   0.819 -0.2185 -0.9454  0.8092
  116GLOH   H03 9791   3.722   9.136   1.825 -0.5301 -2.3223 -0.8197
  116GLOH    O1 9792   3.660   9.168   1.757 -0.1329  0.2483 -0.0049
  116GLOH    C1 9793   3.534   9.210   1.816  0.0865 -0.1456  0.5511
  116GLOH   H02 9794   3.565   9.280   1.894  0.5021 -0.0389  0.2904
  116GLOH   H08 9795   3.480   9.125   1.859  1.8954 -1.5185  0.1591
  116GLOH    C2 9796   3.441   9.288   1.718 -0.3233  0.1687 -0.2813
  116GLOH   H04 9797   3.514   9.361   1.680  1.8270 -1.6391  0.2659
  116GLOH    O2 9798   3.394   9.206   1.618 -0.5131  0.1363 -0.0632
  116GLOH   H05 9799   3.429   9.245   1.536  0.1718  0.8262  0.5413
  116GLOH    C3 9800   3.328   9.366   1.792  0.0993 -0.1160  0.2973
  116GLOH   H06 9801   3.243   9.380   1.726 -0.5230 -2.1813  0.6503
  116GLOH   H07 9802   3.358   9.465   1.829 -1.0613  0.6609 -0.8351
  116GLOH    O3 9803   3.284   9.295   1.911  0.8320  0.1517  1.0750
  116GLOH   H01 9804   3.226   9.362   1.952  0.0779  0.3612 -0.3277
  117GLOH   H03 9805   3.700   8.889   2.199 -0.1714  0.0537 -0.3746
  117GLOH    O1 9806   3.645   8.941   2.137 -0.2529 -0.1557 -0.4786
  117GLOH    C1 9807   3.577   8.873   2.040 -0.3564  0.0458  0.3780
  117GLOH   H02 9808   3.651   8.811   1.990 -1.0794 -0.3988 -0.1504
  117GLOH   H08 9809   3.538   8.937   1.961 -0.5619  0.6561  0.9668
  117GLOH    C2 9810   3.454   8.789   2.087  0.0077  0.0762 -0.2175
  117GLOH   H04 9811   3.486   8.748   2.184 -1.1968 -0.0233  0.1421
  117GLOH    O2 9812   3.344   8.869   2.097  0.1878 -0.2977  0.0094
  117GLOH   H05 9813   3.369   8.962   2.107  1.5004 -0.9679  3.9511
  117GLOH    C3 9814   3.437   8.666   1.987  0.4444  0.0742 -0.3698
  117GLOH   H06 9815   3.347   8.609   2.009  2.1594 -2.6395 -0.1997
  117GLOH   H07 9816   3.521   8.598   1.995  1.2538  1.2151  1.1260
  117GLOH    O3 9817   3.435   8.707   1.846  0.1021 -0.5403 -0.0055
  117GLOH   H01 9818   3.442   8.805   1.846 -1.8593 -0.3688  1.0769
  118GLOH   H03 9819   4.590   9.700   0.187 -0.5066  1.9974  1.1845
  118GLOH    O1 9820   4.499   9.716   0.156 -0.3108  0.5265 -0.2410
  118GLOH    C1 9821   4.491   9.619   0.058  0.2803  0.0514 -0.0857
  118GLOH   H02 9822   4.536   9.647  -0.038  0.9196 -3.1900 -0.7782
  118GLOH   H08 9823   4.385   9.617   0.033  0.2643  2.7777 -0.3945
  118GLOH    C2 9824   4.549   9.479   0.094 -0.6748  0.2409 -0.7029
  118GLOH   H04 9825   4.517   9.455   0.196  0.9726 -3.2110 -0.9399
  118GLOH    O2 9826   4.518   9.378   0.003 -0.2116  0.5400  0.4304
  118GLOH   H05 9827   4.542   9.292   0.042  0.5337  0.6126  0.1275
  118GLOH    C3 9828   4.704   9.504   0.106 -0.7701  0.0678  0.2942
  118GLOH   H06 9829   4.750   9.520   0.008  0.0254 -0.6160  0.5501
  118GLOH   H07 9830   4.737   9.409   0.147  2.6694  0.7152 -0.8029
  118GLOH    O3 9831   4.737   9.607   0.196  0.0984  0.4186  0.1334
  118GLOH   H01 9832   4.700   9.585   0.283  1.4115  0.9926  0.8440
  119GLOH   H03 9833   4.312   0.790   2.519  0.7765  0.6598 -0.6360
  119GLOH    O1 9834   4.345   0.700   2.501  0.0347  0.0809  0.7703
  119GLOH    C1 9835   4.246   0.612   2.443 -0.4637  0.8768 -0.2008
  119GLOH   H02 9836   4.209   0.651   2.348  2.3075  2.6198 -0.6346
  119GLOH   H08 9837   4.170   0.587   2.516  0.3058 -2.4470 -0.4319
  119GLOH    C2 9838   4.297   0.468   2.424  0.2038 -0.2916 -0.2354
  119GLOH   H04 9839   4.328   0.443   2.526  1.1762  1.1781 -0.1564
  119GLOH    O2 9840   4.197   0.373   2.383 -0.0867  0.5808  0.2844
  119GLOH   H05 9841   4.213   0.279   2.405  0.7099  0.4178 -0.9453
  119GLOH    C3 9842   4.422   0.459   2.328 -0.4272 -0.0322  0.1832
  119GLOH   H06 9843   4.407   0.513   2.234  1.6199 -1.9526 -1.3007
  119GLOH   H07 9844   4.453   0.359   2.299  0.5760  0.3868 -0.2142
  119GLOH    O3 9845   4.532   0.528   2.389 -0.4096  0.1900  0.0314
  119GLOH   H01 9846   4.501   0.609   2.434 -1.0964 -0.9269  1.5920
  120GLOH   H03 9847   4.683   0.491   0.185  0.1093 -0.0214  0.7220
  120GLOH    O1 9848   4.658   0.417   0.244  0.4425 -0.2836  0.5370
  120GLOH    C1 9849   4.776   0.334   0.248  0.0623 -0.6501  0.0357
  120GLOH   H02 9850   4.757   0.253   0.177  0.0390  0.7915 -1.6316
  120GLOH   H08 9851   4.795   0.286   0.344 -1.3213 -0.8763  0.2055
  120GLOH    C2 9852   4.906   0.406   0.210  0.3636  0.1107  0.1502
  120GLOH   H04 9853   4.937   0.489   0.275  1.8664  0.4948 -1.0066
  120GLOH    O2 9854   5.008   0.309   0.220 -0.2326 -0.0745 -0.2137
  120GLOH   H05 9855   5.064   0.336   0.294  0.5417  1.0472 -1.1768
  120GLOH    C3 9856   4.904   0.466   0.069  0.6748 -0.4876  0.2675
  120GLOH   H06 9857   4.905   0.378   0.004 -1.4139 -0.5810  0.3259
  120GLOH   H07 9858   4.993   0.527   0.054  0.5654 -0.6710 -1.2567
  120GLOH    O3 9859   4.790   0.554   0.052 -0.1273 -0.6370 -0.1448
  120GLOH   H01 9860   4.791   0.600  -0.034 -0.9400  0.3053  0.3439
  121ACOH    H4 9861   3.875   1.017   2.082 -2.5669  0.2368 -1.4762
  121ACOH    O2 9862   3.880   1.112   2.067 -0.2637  0.4083  0.1446
  121ACOH    C2 9863   3.774   1.147   1.988 -0.5217 -0.0572  0.1300
  121ACOH    O1 9864   3.705   1.071   1.919  0.0349  0.2495 -0.0155
  121ACOH    C1 9865   3.778   1.290   1.945 -0.2342 -1.1160 -0.3342
  121ACOH    H1 9866   3.676   1.329   1.955  0.2108  0.0117 -0.1040
  121ACOH    H2 9867   3.805   1.284   1.840 -0.6748  0.2123 -0.5319
  121ACOH    H3 9868   3.859   1.334   2.002 -0.7752 -0.5558  0.0137
  122ACOH    H4 9869   5.011   0.143   0.158  0.0782  0.6316 -1.2547
  122ACOH    O2 9870   5.039   0.059   0.119 -0.1606  0.2950 -0.7134
  122ACOH    C2 9871   4.977  -0.044   0.180 -0.8774 -0.5056 -0.2022
  122ACOH    O1 9872   4.895  -0.030   0.267  0.6992  0.0077 -0.1435
  122ACOH    C1 9873   5.014  -0.171   0.118  0.4549  0.3936  0.6153
  122ACOH    H1 9874   5.118  -0.196   0.137  0.0057 -2.8669 -0.8269
  122ACOH    H2 9875   5.010  -0.162   0.009  0.6556  2.2000  0.7251
  122ACOH    H3 9876   4.953  -0.251   0.159 -0.8336  0.7101 -0.6636
  123ACOH    H4 9877   2.672   8.447   2.117  0.0033 -3.3938 -1.4956
  123ACOH    O2 9878   2.587   8.464   2.073 -0.0805  0.3589 -0.0708
  123ACOH    C2 9879   2.547   8.336   2.058 -0.8076 -0.0241  0.1762
  123ACOH    O1 9880   2.582   8.242   2.121  0.0542  0.0383  0.4422
  123ACOH    C1 9881   2.423   8.337   1.974  0.9706  0.3585  0.1343
  123ACOH    H1 9882   2.341   8.319   2.044  1.8437 -0.0087  1.0818
  123ACOH    H2 9883   2.421   8.264   1.893  1.6397  1.3294 -0.7747
  123ACOH    H3 9884   2.393   8.430   1.927 -1.7955 -0.6456 -0.1643
  124ACOH    H4 9885   2.558   7.923   0.063  3.6927 -0.3446  0.1287
  124ACOH    O2 9886   2.540   7.850   0.125 -0.0173  0.0173 -0.3716
  124ACOH    C2 9887   2.636   7.848   0.216 -0.6590 -0.1202 -0.0802
  124ACOH    O1 9888   2.734   7.920   0.221  0.1919 -0.2415 -0.4118
  124ACOH    C1 9889   2.593   7.759   0.326 -0.1073  0.3602  0.6599
  124ACOH    H1 9890   2.680   7.700   0.354  0.3563  0.8610  0.2806
  124ACOH    H2 9891   2.504   7.700   0.301  1.0536 -0.4081 -1.8179
  124ACOH    H3 9892   2.568   7.826   0.408 -0.1573  1.2274 -0.0570
  125ACOH    H4 9893   3.249   7.701   0.841  0.5400 -0.0441 -0.6219
  125ACOH    O2 9894   3.255   7.614   0.799 -0.8683 -0.4190 -0.0710
  125ACOH    C2 9895   3.218   7.618   0.670 -0.4982  0.2148  0.3764
  125ACOH    O1 9896   3.200   7.719   0.605 -0.1868  0.4988 -0.8462
  125ACOH    C1 9897   3.231   7.482   0.611 -0.2705 -0.0595 -0.4245
  125ACOH    H1 9898   3.165   7.464   0.527 -1.1639  0.1998  0.2132
  125ACOH    H2 9899   3.213   7.414   0.694  1.9657 -1.3885 -0.9740
  125ACOH    H3 9900   3.334   7.471   0.576 -0.6101 -0.4617 -1.2897
  126ACOH    H4 9901   5.091   0.151   0.679  0.9148 -1.8345 -0.0227
  126ACOH    O2 9902   5.185   0.167   0.663  0.5368  0.2857 -0.2758
  126ACOH    C2 9903   5.202   0.262   0.567 -0.2283 -0.1191 -0.1571
  126ACOH    O1 9904   5.131   0.288   0.472 -0.3742  0.8500 -0.0254
  126ACOH    C1 9905   5.343   0.310   0.583 -0.1046  0.1269  0.2574
  126ACOH    H1 9906   5.366   0.331   0.687  1.2093  0.3808 -0.0800
  126ACOH    H2 9907   5.348   0.411   0.541 -1.2769 -0.0575 -0.3443
  126ACOH    H3 9908   5.408   0.233   0.541 -0.2553 -0.1705  0.5665
  127ACOH    H4 9909   3.411   0.996   1.698  0.7229  2.1948 -0.1429
  127ACOH    O2 9910   3.382   0.993   1.606  0.3248  0.1341  0.0364
  127ACOH    C2 9911   3.489   0.983   1.523  0.2370 -0.3844  0.2626
  127ACOH    O1 9912   3.610   0.987   1.550 -0.3889 -0.0683 -0.0796
  127ACOH    C1 9913   3.443   0.981   1.384 -0.2760  0.5173  0.2531
  127ACOH    H1 9914   3.508   0.911   1.332  0.4752 -0.1160  1.9900
  127ACOH    H2 9915   3.462   1.080   1.342  1.4378  0.8475  1.7229
  127ACOH    H3 9916   3.339   0.953   1.372 -0.6156  1.9555 -0.2755
  128ACOH    H4 9917   2.712   9.245   0.990 -0.0926 -0.0218 -1.4459
  128ACOH    O2 9918   2.730   9.150   1.005  0.4146  0.3043  0.1013
  128ACOH    C2 9919   2.662   9.084   0.906 -0.3553 -0.2865  0.1832
  128ACOH    O1 9920   2.662   9.129   0.790  0.6927 -0.4440 -0.8750
  128ACOH    C1 9921   2.665   8.938   0.923  0.0268  0.6116 -0.1822
  128ACOH    H1 9922   2.754   8.896   0.877 -1.1285 -2.3056  0.1321
  128ACOH    H2 9923   2.575   8.889   0.884  1.0532 -1.4071 -0.0358
  128ACOH    H3 9924   2.665   8.911   1.028 -2.6079  0.8730 -0.0767
  129ACOH    H4 9925   3.734   0.621   1.137  0.8647  1.2518  0.0270
  129ACOH    O2 9926   3.714   0.616   1.232 -0.1557  0.3990 -0.2228
  129ACOH    C2 9927   3.825   0.593   1.306 -0.3764  0.8850 -0.2241
  129ACOH    O1 9928   3.930   0.559   1.257 -0.5158 -0.4652 -0.5353
  129ACOH    C1 9929   3.807   0.616   1.451  0.6948 -0.6959 -0.6662
  129ACOH    H1 9930   3.713   0.568   1.476  0.5690  0.3848  0.9942
  129ACOH    H2 9931   3.790   0.723   1.466  0.2153 -0.6376 -1.6033
  129ACOH    H3 9932   3.885   0.573   1.514 -0.2735 -0.4088  0.7449
  130ACOH    H4 9933   2.872   8.846   1.681 -1.4082 -0.0784 -0.4238
  130ACOH    O2 9934   2.863   8.809   1.591  0.2311  0.0253 -0.6444
  130ACOH    C2 9935   2.756   8.731   1.599  0.8869  0.0137 -0.8183
  130ACOH    O1 9936   2.707   8.688   1.699  0.7799  0.1841 -0.7024
  130ACOH    C1 9937   2.670   8.728   1.474  0.4700  0.6757 -0.1023
  130ACOH    H1 9938   2.629   8.627   1.466 -0.7317  1.2053 -0.6081
  130ACOH    H2 9939   2.733   8.743   1.386 -0.2992 -0.2104 -0.8083
  130ACOH    H3 9940   2.595   8.806   1.484 -1.7056 -1.5117  1.0672
  131ACOH    H4 9941   4.519   9.184   0.392 -2.6618  1.7252  1.7082
  131ACOH    O2 9942   4.465   9.107   0.370  0.1153  0.1323  0.1952
  131ACOH    C2 9943   4.483   9.081   0.243 -0.2237  0.4999 -0.5868
  131ACOH    O1 9944   4.552   9.150   0.168  0.0217 -0.6563 -0.5675
  131ACOH    C1 9945   4.419   8.952   0.196  0.1648 -0.2281 -0.5494
  131ACOH    H1 9946   4.311   8.964   0.192  0.1042 -0.1837  0.8612
  131ACOH    H2 9947   4.440   8.874   0.269  2.3584  0.1584 -0.7129
  131ACOH    H3 9948   4.450   8.917   0.098  0.4628  1.4779 -1.0854
  132ACOH    H4 9949   3.524   9.857   0.446  0.8769  0.3044 -0.5831
  132ACOH    O2 9950   3.546   9.833   0.538 -0.2718 -0.1164 -0.4169
  132ACOH    C2 9951   3.568   9.706   0.554 -0.5642 -0.2946  0.4886
  132ACOH    O1 9952   3.547   9.618   0.475 -0.2935  0.0744 -0.7177
  132ACOH    C1 9953   3.623   9.698   0.692  0.0297  0.2485  0.4687
  132ACOH    H1 9954   3.537   9.684   0.758 -0.7966 -3.4892 -1.2569
  132ACOH    H2 9955   3.682   9.785   0.720 -0.1264  0.2830  0.6828
  132ACOH    H3 9956   3.688   9.610   0.699 -0.6402 -0.5335 -2.3051
  133SOL     OW 9957   3.607   9.494   2.691 -0.0963  0.4147  0.1734
  133SOL    HW1 9958   3.666   9.575   2.691  1.0431 -0.4091  0.0482
  133SOL    HW2 9959   3.592   9.463   2.784 -0.8567  1.0062  0.2468
  134SOL     OW 9960   2.926   0.019   2.652  0.1935  0.4458  0.2450
  134SOL    HW1 9961   2.996  -0.023   2.594 -2.6381 -1.8831 -1.6524
  134SOL    HW2 9962   2.851   0.052   2.594 -1.6128  0.2444  2.3920
  135SOL     OW 9963   4.427   0.339   0.766  0.0174  0.1800 -0.4618
  135SOL    HW1 9964   4.440   0.292   0.853  1.3659  0.7948 -0.3214
  135SOL    HW2 9965   4.351   0.403   0.773 -0.3507 -0.3048  0.0329
  136SOL     OW 9966   3.534   9.417   0.265  0.3406 -0.0401  0.3172
  136SOL    HW1 9967   3.519   9.488   0.334  0.5081  1.0683 -0.7828
  136SOL    HW2 9968   3.606   9.354   0.298  0.2400  0.3296  1.2599
  137SOL     OW 9969   3.378   8.024   1.579  0.8232  0.5283  0.2731
  137SOL    HW1 9970   3.374   8.081   1.497  0.3174  0.7721  0.4682
  137SOL    HW2 9971   3.290   7.977   1.591  0.4720  1.4423  1.3588
  138SOL     OW 9972   3.002   8.542   1.638  0.3989  0.1226  0.5771
  138SOL    HW1 9973   2.932   8.529   1.708 -0.7221  0.5626 -0.4262
  138SOL    HW2 9974   3.092   8.547   1.681 -0.3793  1.6446  2.1220
  139SOL     OW 9975   3.041   0.368   0.451  0.5985 -0.4591 -0.0964
  139SOL    HW1 9976   3.105   0.312   0.398 -0.6960 -0.4588 -1.6903
  139SOL    HW2 9977   2.971   0.310   0.491  1.5101 -0.4427  1.5598
  140SOL     OW 9978   3.402   0.658   0.348  0.0666 -0.3592 -0.0294
  140SOL    HW1 9979   3.322   0.638   0.406 -0.1383 -1.9757 -0.8501
  140SOL    HW2 9980   3.374   0.720   0.275 -0.4919 -1.0836 -0.4369
  141SOL     OW 9981   2.975   0.059   0.579 -0.1892  0.1104  0.4764
  141SOL    HW1 9982   2.893   0.009   0.550 -0.5308  1.1936 -0.4352
  141SOL    HW2 9983   3.055   0.022   0.532 -0.3148 -0.1325  0.4505
  142SOL     OW 9984   3.828   9.823   1.767  0.7821 -0.0514  0.1615
  142SOL    HW1 9985   3.924   9.812   1.793  0.4119 -1.3264  1.0598
  142SOL    HW2 9986   3.822   9.873   1.681  2.2414  0.2852  0.2390
  143SOL     OW 9987   2.600   9.787   0.608 -0.0836  0.3981  0.4593
  143SOL    HW1 9988   2.566   9.694   0.599  0.5712  0.2402 -0.3816
  143SOL    HW2 9989   2.642   9.799   0.698  0.8306 -0.4410  0.1453
  144SOL     OW 9990   3.271   8.903   1.119 -0.5169 -0.3561  0.3767
  144SOL    HW1 9991   3.229   8.842   1.187 -0.8695 -0.8680 -0.2943
  144SOL    HW2 9992   3.315   8.847   1.048 -1.5104  0.1729 -0.6612
  145SOL     OW 9993   3.330   9.853   1.960  0.3002 -0.2406 -0.2109
  145SOL    HW1 9994   3.407   9.911   1.984 -0.5506  1.0918 -0.6520
  145SOL    HW2 9995   3.342   9.819   1.866 -0.3901  1.2227 -0.8433
  146SOL     OW 9996   2.758   9.399   0.481  0.2742 -0.1600 -0.2459
  146SOL    HW1 9997   2.713   9.314   0.506 -1.4915  0.6860 -0.4385
  146SOL    HW2 9998   2.790   9.446   0.563 -0.2838 -0.1801 -0.0192
  147SOL     OW 9999   3.147   0.946   0.592  0.0385 -0.0353  0.3789
  147SOL    HW110000   3.235   0.954   0.545  0.3336 -0.9867  0.7473
  147SOL    HW210001   3.124   0.849   0.603 -0.9861  0.2049  0.4133
  148SOL     OW10002   3.792   9.860   1.441 -0.8153  0.0262  0.3724
  148SOL    HW110003   3.862   9.830   1.376 -0.4750 -0.2956  0.8785
  148SOL    HW210004   3.741   9.937   1.403  0.6386  1.0796  0.5091
  149SOL     OW10005   3.684   9.263   2.548 -0.1092 -0.2707  0.1340
  149SOL    HW110006   3.644   9.342   2.596 -0.9782 -0.6224 -0.0022
  149SOL    HW210007   3.755   9.222   2.604 -0.8732 -0.4609  0.9755
  150SOL     OW10008   2.629   9.269   1.961  0.0736 -0.1936 -0.6583
  150SOL    HW110009   2.615   9.195   1.895 -0.2356  0.4555 -1.3212
  150SOL    HW210010   2.541   9.303   1.992  0.2131 -0.6343  0.2612
  151SOL     OW10011   3.944   0.385   2.313  0.2754 -0.2745 -0.5731
  151SOL    HW110012   4.042   0.399   2.328  0.4913 -1.9448 -0.3317
  151SOL    HW210013   3.917   0.296   2.350 -1.5878  0.6853  0.4402
  152SOL     OW10014   3.405   8.893   0.158  0.0317 -1.0053  0.6023
  152SOL    HW110015   3.334   8.867   0.093  0.5932 -1.1772  0.0527
  152SOL    HW210016   3.494   8.891   0.113  0.1044  1.9238  0.5204
  153SOL     OW10017   3.870   9.869   0.944  0.0192  0.1508  0.3647
  153SOL    HW110018   3.838   9.963   0.928  0.5369  0.0043 -1.6731
  153SOL    HW210019   3.791   9.808   0.952 -0.3082  0.6534  1.0432
  154SOL     OW10020   3.675   8.265   1.744 -0.2711  0.4341 -0.2482
  154SOL    HW110021   3.672   8.167   1.761 -0.2865  0.8933  2.6366
  154SOL    HW210022   3.606   8.290   1.676  0.2454 -1.6306 -1.5723
  155SOL     OW10023   4.618   9.751   0.606  0.2999  0.0658 -0.2774
  155SOL    HW110024   4.530   9.775   0.645  0.8939  1.4452  0.2359
  155SOL    HW210025   4.661   9.832   0.566  2.7736  0.1130  2.3238
  156SOL     OW10026   3.666   8.377   2.045 -0.3791  0.5399  0.1997
  156SOL    HW110027   3.596   8.305   2.048 -1.3868  1.4669 -0.7819
  156SOL    HW210028   3.708   8.379   1.954  0.3345  0.5494  0.5267
  157SOL     OW10029   3.357   0.070   2.189  0.4410  0.3635 -0.2082
  157SOL    HW110030   3.298   0.042   2.114  2.8695 -2.2802 -1.2110
  157SOL    HW210031   3.425   0.135   2.155  1.0505 -0.2314 -0.1352
  158SOL     OW10032   4.264   8.985   0.543  0.2380 -0.1097  0.2388
  158SOL    HW110033   4.355   9.012   0.510  0.7223  0.4028  1.9590
  158SOL    HW210034   4.198   8.994   0.469  1.3369  0.8432 -0.6421
  159SOL     OW10035   3.449   9.159   2.686  0.0324  0.3042  0.0566
  159SOL    HW110036   3.494   9.233   2.636 -2.3495  1.3497 -0.6141
  159SOL    HW210037   3.422   9.192   2.777  1.7165 -0.7152  0.9657
  160SOL     OW10038   2.454   9.549   0.591  0.6306 -0.5202  0.0860
  160SOL    HW110039   2.476   9.499   0.507  0.6603  0.4107 -0.4628
  160SOL    HW210040   2.375   9.506   0.635 -0.0145 -0.4082 -0.9509
  161SOL     OW10041   3.967   8.166   0.337 -0.0293 -0.2787 -0.0400
  161SOL    HW110042   3.873   8.157   0.304  0.0800 -0.1747 -0.3856
  161SOL    HW210043   3.966   8.201   0.431 -0.3014  1.2980 -0.6007
  162SOL     OW10044   3.508   8.167   2.045 -0.1278 -0.3111  0.1932
  162SOL    HW110045   3.507   8.124   2.135 -1.4641  1.0606  0.8617
  162SOL    HW210046   3.488   8.099   1.974 -0.6227 -1.0892  1.0801
  163SOL     OW10047   3.922   9.338   1.319  0.0955 -0.0367  0.2048
  163SOL    HW110048   3.849   9.291   1.368 -0.6081 -0.1747 -0.9715
  163SOL    HW210049   3.980   9.387   1.385  0.2588 -1.7334  1.3576
  164SOL     OW10050   2.667   9.446   1.530  0.0494  0.0493 -0.2604
  164SOL    HW110051   2.651   9.486   1.621  1.7745 -0.8776  0.4788
  164SOL    HW210052   2.695   9.350   1.541  2.2585  0.5043 -1.6351
  165SOL     OW10053   2.957   7.969   2.201 -0.4156  0.5566  0.4252
  165SOL    HW110054   2.880   7.980   2.264 -1.5746 -0.2476 -0.8059
  165SOL    HW210055   2.949   8.036   2.127 -0.1681  0.1924  0.0642
  166SOL     OW10056   2.576   9.171   0.530  0.4636 -0.3075 -0.0642
  166SOL    HW110057   2.601   9.158   0.625  2.5909  0.8724 -0.4297
  166SOL    HW210058   2.601   9.089   0.477 -0.3445 -0.7975  0.3033
  167SOL     OW10059   3.604   0.465   2.133  0.0045  0.0250 -0.2970
  167SOL    HW110060   3.698   0.477   2.167 -0.3154 -0.6113  0.8235
  167SOL    HW210061   3.555   0.552   2.141 -0.4025 -0.3660  1.9645
  168SOL     OW10062   3.622   8.915   1.677  0.0430  0.4795  0.1649
  168SOL    HW110063   3.524   8.897   1.668 -0.2110  1.2965  1.2760
  168SOL    HW210064   3.637   9.010   1.706  1.1949  0.5906 -0.7102
  169SOL     OW10065   4.165   8.722   0.234  0.3658  0.1617 -0.3124
  169SOL    HW110066   4.209   8.812   0.230  0.8961 -0.0271  1.1907
  169SOL    HW210067   4.118   8.705   0.147  0.6887  1.6660 -0.8033
  170SOL     OW10068   3.600   0.788   0.500  0.1622  0.3795 -0.3483
  170SOL    HW110069   3.673   0.797   0.433 -0.0455  0.8472 -0.5129
  170SOL    HW210070   3.519   0.748   0.455  0.4789 -0.6019 -0.0508
  171SOL     OW10071   2.888   8.814   1.171  1.0512 -0.3740 -0.5015
  171SOL    HW110072   2.913   8.754   1.247  3.7366  0.7526 -0.4297
  171SOL    HW210073   2.891   8.909   1.202  2.5258  0.1186 -2.0743
  172SOL     OW10074   2.838   8.504   1.868  0.1928  0.4215 -0.7374
  172SOL    HW110075   2.791   8.591   1.856 -2.8518 -1.1101 -0.2515
  172SOL    HW210076   2.882   8.501   1.957 -1.6372  0.6038  0.1917
  173SOL     OW10077   3.193   9.441   1.159 -0.1398 -0.2266 -0.5088
  173SOL    HW110078   3.131   9.514   1.185 -1.2977 -1.3999  0.0551
  173SOL    HW210079   3.276   9.447   1.215 -0.4502  0.3351 -0.1009
  174SOL     OW10080   3.637   0.348   0.913 -0.6528 -0.1108 -0.4176
  174SOL    HW110081   3.605   0.290   0.838 -0.5008 -2.6092  1.3665
  174SOL    HW210082   3.640   0.294   0.997 -1.7565  2.8813  1.6138
  175SOL     OW10083   2.772   9.349   2.163  0.4899 -0.6101 -0.5782
  175SOL    HW110084   2.758   9.448   2.167  1.0577 -0.5800  0.8699
  175SOL    HW210085   2.721   9.312   2.085 -0.9939  0.5976 -0.2178
  176SOL     OW10086   4.662   9.974   0.438 -0.0209 -0.3752  0.3644
  176SOL    HW110087   4.737   9.968   0.373 -2.1062  1.6697 -2.3399
  176SOL    HW210088   4.669  10.060   0.489  0.2420 -0.8540  1.1568
  177SOL     OW10089   3.148   8.334   0.767  0.1502 -0.0552  0.1569
  177SOL    HW110090   3.232   8.387   0.758  0.1987 -0.2914 -0.8124
  177SOL    HW210091   3.146   8.288   0.856  1.3097 -0.5159 -0.0567
  178SOL     OW10092   4.321   9.420   2.499  0.0386  0.2263 -0.0354
  178SOL    HW110093   4.398   9.415   2.563 -0.9679 -1.0148  1.1098
  178SOL    HW210094   4.339   9.359   2.421 -1.0935 -2.4154  1.7097
  179SOL     OW10095   3.302   9.164   1.197 -0.1997  0.5798 -0.3781
  179SOL    HW110096   3.228   9.226   1.170  0.1733  1.3640  0.3566
  179SOL    HW210097   3.274   9.070   1.181 -1.4360  0.8565  0.0530
  180SOL     OW10098   3.888   8.003   1.537 -0.1980  0.6957  0.2568
  180SOL    HW110099   3.937   7.975   1.455 -0.5765 -0.5872  0.4554
  180SOL    HW210100   3.791   7.981   1.527 -0.4301  1.5561  0.5976
  181SOL     OW10101   2.829   8.256   1.748  0.0045 -0.9236  0.7314
  181SOL    HW110102   2.822   8.185   1.819 -1.9134  0.3223  1.8143
  181SOL    HW210103   2.814   8.345   1.789 -0.5069 -0.1226 -1.1592
  182SOL     OW10104   4.734   9.595   0.849 -0.0157 -0.0171 -0.3034
  182SOL    HW110105   4.698   9.508   0.880  1.7798 -0.8334 -0.4534
  182SOL    HW210106   4.709   9.610   0.753  0.7761 -0.9871 -0.6691
  183SOL     OW10107   2.738   8.701   0.513 -0.7596 -0.5567  0.2865
  183SOL    HW110108   2.791   8.710   0.598 -0.1858 -1.2816  0.0097
  183SOL    HW210109   2.746   8.608   0.479 -0.4260 -0.0908 -0.9427
  184SOL     OW10110   3.058   7.918   0.184  0.4359  0.2009  0.4647
  184SOL    HW110111   3.115   7.978   0.240 -1.9065  1.6233  1.3875
  184SOL    HW210112   3.012   7.851   0.242  0.3136 -0.2249 -0.1208
  185SOL     OW10113   3.210   8.555   1.209  0.1113  0.1854 -0.0142
  185SOL    HW110114   3.216   8.623   1.283  2.2627  2.1021 -1.9025
  185SOL    HW210115   3.166   8.597   1.130 -1.4341 -1.6307 -0.1551
  186SOL     OW10116   3.429   0.708   2.514 -0.4845 -0.6606  0.1567
  186SOL    HW110117   3.332   0.722   2.496 -0.3808 -2.0487 -1.6743
  186SOL    HW210118   3.456   0.617   2.484  1.5749  0.0137 -0.1796
  187SOL     OW10119   3.482   9.287   1.382  0.9764 -0.0403  0.7239
  187SOL    HW110120   3.440   9.225   1.316  1.4087 -0.1722  0.5734
  187SOL    HW210121   3.577   9.260   1.398  1.2818  0.7974  0.3764
  188SOL     OW10122   3.168   9.639   2.181  0.0451 -0.2328  0.2420
  188SOL    HW110123   3.104   9.612   2.254  2.4479 -2.0181  1.7806
  188SOL    HW210124   3.242   9.693   2.220  1.2733 -1.0593 -0.8749
  189SOL     OW10125   3.755   0.200   1.367 -0.0926 -0.2493 -0.1170
  189SOL    HW110126   3.783   0.188   1.462 -0.0406 -0.2255 -0.1290
  189SOL    HW210127   3.836   0.220   1.311 -0.0864 -0.5204 -0.2077
  190SOL     OW10128   2.597   9.167   2.421  0.0599 -0.0483 -0.7211
  190SOL    HW110129   2.631   9.178   2.515 -0.0695 -1.0851 -0.5463
  190SOL    HW210130   2.630   9.242   2.365 -1.3989  1.6078  0.5822
  191SOL     OW10131   3.044   9.150   1.069  0.0406  0.0053  0.4241
  191SOL    HW110132   2.989   9.079   1.114  0.1771 -0.4732 -0.1633
  191SOL    HW210133   3.037   9.140   0.970  2.0042 -0.6747  0.3445
  192SOL     OW10134   4.379   0.107   0.615 -0.1350 -0.6322  0.4438
  192SOL    HW110135   4.416   0.166   0.687  1.7145 -1.5100  0.2490
  192SOL    HW210136   4.305   0.154   0.568  0.5311  1.0730  1.0700
  193SOL     OW10137   3.612   9.649   1.553 -0.4544 -0.7941 -0.1994
  193SOL    HW110138   3.672   9.710   1.502 -1.1922 -0.6575 -0.9019
  193SOL    HW210139   3.590   9.569   1.497  1.2295 -2.1892  1.0218
  194SOL     OW10140   3.729   9.212   1.495 -0.3044 -0.1207 -0.2246
  194SOL    HW110141   3.798   9.139   1.490 -0.0843 -0.0585  1.6756
  194SOL    HW210142   3.682   9.208   1.583 -1.6174  0.8670 -0.8581
  195SOL     OW10143   2.804   8.567   2.442 -0.4506 -0.4492  0.3218
  195SOL    HW110144   2.869   8.536   2.512 -2.6131 -2.5091  1.4770
  195SOL    HW210145   2.751   8.644   2.478 -1.9126 -1.8296  1.2124
  196SOL     OW10146   3.701   7.963   0.967  0.2902  0.7276  0.0678
  196SOL    HW110147   3.635   7.887   0.971  1.6032 -0.3922  0.9836
  196SOL    HW210148   3.704   7.999   0.874 -0.8200  0.0635 -0.2353
  197SOL     OW10149   3.817   0.135   2.385  0.1885 -0.2421 -0.3523
  197SOL    HW110150   3.895   0.096   2.435 -0.9398 -1.8171  0.2337
  197SOL    HW210151   3.777   0.064   2.327 -0.7991  0.5777 -0.6775
  198SOL     OW10152   3.994   0.162   0.107  0.2367 -0.3757 -0.2796
  198SOL    HW110153   4.074   0.215   0.134 -0.1463 -0.3884  0.8841
  198SOL    HW210154   3.972   0.096   0.178  0.0616 -1.3704 -1.2500
  199SOL     OW10155   3.394   8.434   0.860 -0.6503 -0.2204 -0.1441
  199SOL    HW110156   3.413   8.492   0.781 -1.5049  0.2524 -0.0020
  199SOL    HW210157   3.470   8.439   0.925 -0.7508  0.7859 -0.1055
  200SOL     OW10158   2.970   8.634   1.367  0.1546  0.5575 -0.4874
  200SOL    HW110159   2.953   8.559   1.303  0.6416 -0.3090  0.4069
  200SOL    HW210160   2.984   8.598   1.459 -0.3805  1.7956  0.0981
  201SOL     OW10161   2.689   8.795   2.590 -0.3044  0.6817 -0.1235
  201SOL    HW110162   2.654   8.835   2.505 -1.0828 -0.8935 -0.5639
  201SOL    HW210163   2.627   8.817   2.665 -1.4428 -0.8215 -0.6171
  202SOL     OW10164   4.125   9.022   0.320  0.2951 -0.0445 -0.3057
  202SOL    HW110165   4.026   9.019   0.307  0.1384 -2.6865  1.1965
  202SOL    HW210166   4.162   9.102   0.273 -2.3310  0.0837 -2.2941
  203SOL     OW10167   2.693   9.034   1.776  0.1910  0.2851  0.5415
  203SOL    HW110168   2.631   9.004   1.848  1.1490  1.7302  1.9804
  203SOL    HW210169   2.781   8.987   1.787  0.1535  0.0773 -0.0357
  204SOL     OW10170   3.363   9.437   2.606  0.2967  0.2295  0.2539
  204SOL    HW110171   3.299   9.511   2.624  0.7083  0.3642  1.1723
  204SOL    HW210172   3.456   9.468   2.626  0.4980 -0.4468  0.3613
  205SOL     OW10173   4.315   8.620   2.225  0.3918  0.1683 -0.2878
  205SOL    HW110174   4.383   8.679   2.181  1.2455 -1.5671 -1.3756
  205SOL    HW210175   4.240   8.603   2.161 -0.5704  1.2381  0.5410
  206SOL     OW10176   3.172   0.605   0.520 -0.1983  0.4139  0.2206
  206SOL    HW110177   3.090   0.552   0.498 -0.4104  0.4628  0.8869
  206SOL    HW210178   3.199   0.587   0.615  1.2265 -0.4923 -0.3270
  207SOL     OW10179   4.680   0.256   0.570 -0.5857  0.5835  0.4911
  207SOL    HW110180   4.707   0.335   0.514 -0.7553 -1.1710 -2.1632
  207SOL    HW210181   4.591   0.274   0.612 -0.3121  2.0603  0.4869
  208SOL     OW10182   2.793   9.899   0.434  0.3625  0.1553 -0.2205
  208SOL    HW110183   2.839   9.824   0.387  0.5842 -0.5981  1.1793
  208SOL    HW210184   2.717   9.862   0.489  0.6062  0.9190  0.6438
  209SOL     OW10185   4.163   0.902   2.534 -0.3863 -0.3757  0.2978
  209SOL    HW110186   4.185   0.985   2.584  1.2808 -0.1918 -0.6967
  209SOL    HW210187   4.067   0.903   2.506 -0.5687  0.8357  0.9591
  210SOL     OW10188   3.259   1.095   0.930  0.6750 -0.2710  0.6025
  210SOL    HW110189   3.213   1.100   0.842  0.0691 -0.3479  0.9097
  210SOL    HW210190   3.227   1.169   0.989  2.9191  1.2782 -0.0883
  211SOL     OW10191   4.290   0.112   1.916  0.4239  0.2514  0.4553
  211SOL    HW110192   4.335   0.122   1.827  1.3991 -2.2213  0.6627
  211SOL    HW210193   4.214   0.178   1.921  1.2686  1.4465 -1.6029
  212SOL     OW10194   2.981   0.111   0.223  0.4703 -0.0841 -0.0533
  212SOL    HW110195   2.946   0.085   0.133 -2.1398  0.9149  0.6377
  212SOL    HW210196   2.925   0.069   0.294  0.3378  1.9344  1.0751
  213SOL     OW10197   4.818   9.221   1.409 -0.7594  0.5692 -0.4173
  213SOL    HW110198   4.892   9.199   1.346 -0.5071 -2.1218  0.7677
  213SOL    HW210199   4.748   9.274   1.360  0.2475  0.0503 -2.4871
  214SOL     OW10200   3.098   0.035   2.029 -0.1077  0.1826  0.0224
  214SOL    HW110201   3.173  -0.027   2.010 -0.0476 -0.4319  2.0813
  214SOL    HW210202   3.133   0.129   2.034  0.6027 -0.1272  1.2305
  215SOL     OW10203   3.452   9.621   2.034 -0.5475  0.1107 -0.8397
  215SOL    HW110204   3.393   9.700   2.019  0.8006  1.3042  0.0139
  215SOL    HW210205   3.539   9.635   1.987  0.3007 -0.1314  0.6283
  216SOL     OW10206   4.807   0.580   2.485 -0.4024 -0.3083  0.3984
  216SOL    HW110207   4.786   0.651   2.418 -0.8454 -0.8867 -0.0795
  216SOL    HW210208   4.733   0.512   2.486  0.4221 -1.2212  0.2313
  217SOL     OW10209   3.976   8.154   0.030  0.6317  0.1281 -0.6011
  217SOL    HW110210   3.992   8.099   0.112  0.7147  0.4886 -0.3740
  217SOL    HW210211   3.922   8.235   0.054 -1.9936 -1.3148 -1.4426
  218SOL     OW10212   3.070   1.141   0.744 -0.0358  0.4181  0.1907
  218SOL    HW110213   3.004   1.200   0.699  0.1349 -0.6382 -1.4554
  218SOL    HW210214   3.110   1.077   0.678  0.5486 -0.8555  1.7328
  219SOL     OW10215   4.321   9.372   1.406  0.2007  0.6545 -0.1895
  219SOL    HW110216   4.304   9.287   1.456  0.3387  1.2011  0.7813
  219SOL    HW210217   4.235   9.422   1.394  0.1850  0.5758 -0.4197
  220SOL     OW10218   3.559   8.726   1.347 -0.2441 -0.1450  0.1819
  220SOL    HW110219   3.551   8.808   1.290 -1.2851  0.0467  0.5938
  220SOL    HW210220   3.630   8.741   1.416 -1.9912  1.3179  1.7364
  221SOL     OW10221   4.598   9.577   0.407  0.2218 -0.0704  0.0499
  221SOL    HW110222   4.634   9.640   0.476  1.1157  0.2496 -0.7002
  221SOL    HW210223   4.501   9.597   0.393 -0.2303 -0.8148  1.9366
   9.98163   9.98163   2.69253
