ALL ATOM STRUCTURE FOR MOLECULE GLYCEROL
   14
    0GLOH   H03    1  -0.269  -0.009  -0.056
    0GLOH    O1    2  -0.222  -0.024   0.028
    0GLOH    C1    3  -0.095  -0.083  -0.003
    0GLOH   H02    4  -0.106  -0.169  -0.071
    0GLOH   H08    5  -0.055  -0.119   0.092
    0GLOH    C2    6  -0.001   0.022  -0.063
    0GLOH   H04    7  -0.032   0.045  -0.166
    0GLOH    O2    8  -0.006   0.140   0.018
    0GLOH   H05    9  -0.097   0.143   0.052
    0GLOH    C3   10   0.145  -0.024  -0.064
    0GLOH   H06   11   0.206   0.051  -0.117
    0GLOH   H07   12   0.155  -0.119  -0.117
    0GLOH    O3   13   0.194  -0.043   0.069
    0GLOH   H01   14   0.163   0.035   0.118
   0.00000   0.00000   0.00000
