UNITED ATOM STRUCTURE FOR MOLECULE UNL
97101
    0CHTO  H203    1   2.326   5.604   3.790
    0CHTO   O82    2   2.269   5.574   3.860
    0CHTO  C123    3   2.334   5.584   3.986
    0CHTO  H227    4   2.361   5.690   4.004
    0CHTO   O77    5   2.240   5.538   4.085
    0CHTO  C118    6   2.290   5.553   4.218
    0CHTO  H222    7   2.315   5.659   4.238
    0CHTO  C125    8   2.183   5.507   4.321
    0CHTO   O84    9   2.066   5.587   4.303
    0CHTO  H205   10   1.996   5.558   4.360
    0CHTO  C114   11   2.416   5.467   4.238
    0CHTO  H218   12   2.388   5.361   4.227
    0CHTO  C116   13   2.523   5.503   4.131
    0CHTO  H220   14   2.562   5.605   4.148
    0CHTO   O79   15   2.633   5.411   4.137
    0CHTO  H201   16   2.698   5.431   4.071
    0CHTO  C120   17   2.458   5.492   3.991
    0CHTO  H224   18   2.429   5.386   3.976
    0CHTO   N21   19   2.558   5.528   3.891
    0CHTO  H211   20   2.573   5.635   3.889
    0CHTO  H212   21   2.529   5.492   3.793
    0CHTO   O75   22   2.458   5.495   4.371
    0CHTO  C112   23   2.565   5.409   4.418
    0CHTO  H216   24   2.658   5.430   4.363
    0CHTO   O73   25   2.523   5.272   4.405
    0CHTO  C113   26   2.620   5.182   4.458
    0CHTO  H217   27   2.717   5.200   4.408
    0CHTO  C124   28   2.576   5.039   4.425
    0CHTO   O83   29   2.544   5.028   4.285
    0CHTO  H204   30   2.512   4.940   4.266
    0CHTO  C109   31   2.638   5.202   4.611
    0CHTO  H213   32   2.538   5.187   4.657
    0CHTO  C110   33   2.686   5.347   4.630
    0CHTO  H214   34   2.784   5.361   4.583
    0CHTO   O78   35   2.696   5.378   4.769
    0CHTO  H200   36   2.723   5.468   4.782
    0CHTO  C111   37   2.582   5.441   4.568
    0CHTO  H215   38   2.485   5.428   4.620
    0CHTO   N19   39   2.621   5.582   4.582
    0CHTO  H207   40   2.541   5.645   4.547
    0CHTO  H208   41   2.711   5.602   4.526
    0CHTO   O74   42   2.730   5.105   4.667
    0CHTO  C115   43   2.718   5.090   4.810
    0CHTO  H219   44   2.661   5.171   4.854
    0CHTO   O76   45   2.647   4.970   4.845
    0CHTO  C122   46   2.700   4.855   4.776
    0CHTO  H226   47   2.668   4.861   4.672
    0CHTO  C126   48   2.637   4.725   4.834
    0CHTO   O85   49   2.675   4.700   4.970
    0CHTO  H206   50   2.654   4.773   5.026
    0CHTO  C121   51   2.856   4.851   4.782
    0CHTO  H225   52   2.890   4.748   4.805
    0CHTO   O81   53   2.907   4.891   4.654
    0CHTO  H202   54   2.881   4.832   4.585
    0CHTO  C119   55   2.905   4.947   4.893
    0CHTO  H223   56   2.851   4.914   4.982
    0CHTO  C117   57   2.860   5.093   4.871
    0CHTO  H221   58   2.925   5.153   4.806
    0CHTO   N20   59   2.855   5.165   4.999
    0CHTO  H209   60   2.952   5.162   5.047
    0CHTO  H210   61   2.780   5.124   5.065
    0CHTO   O80   62   3.042   4.934   4.935
    0CHTO  C103   63   3.145   4.921   4.834
    0CHTO  H190   64   3.124   4.836   4.768
    0CHTO  C101   65   3.174   5.046   4.745
    0CHTO  H188   66   3.190   5.135   4.807
    0CHTO   O68   67   3.066   5.070   4.652
    0CHTO  H168   68   3.076   5.154   4.607
    0CHTO   C99   69   3.305   5.019   4.664
    0CHTO  H186   70   3.291   4.931   4.598
    0CHTO   N17   71   3.346   5.133   4.580
    0CHTO  H174   72   3.349   5.223   4.640
    0CHTO  H175   73   3.279   5.146   4.496
    0CHTO   C97   74   3.422   4.985   4.757
    0CHTO  H184   75   3.438   5.070   4.825
    0CHTO   O64   76   3.387   4.866   4.829
    0CHTO  C104   77   3.274   4.887   4.914
    0CHTO  H191   78   3.295   4.968   4.984
    0CHTO  C108   79   3.250   4.762   4.998
    0CHTO   O71   80   3.372   4.728   5.066
    0CHTO  H171   81   3.360   4.648   5.115
    0CHTO   O62   82   3.539   4.961   4.678
    0CHTO   C91   83   3.663   4.980   4.749
    0CHTO  H178   84   3.666   5.085   4.782
    0CHTO   C92   85   3.777   4.963   4.648
    0CHTO  H179   86   3.762   5.030   4.561
    0CHTO   O66   87   3.899   5.004   4.710
    0CHTO  H166   88   3.972   5.001   4.649
    0CHTO   C93   89   3.790   4.816   4.602
    0CHTO  H180   90   3.891   4.802   4.560
    0CHTO   N16   91   3.694   4.783   4.495
    0CHTO  H172   92   3.593   4.790   4.532
    0CHTO  H173   93   3.714   4.683   4.459
    0CHTO   C94   94   3.772   4.721   4.724
    0CHTO  H181   95   3.672   4.680   4.729
    0CHTO   O61   96   3.798   4.796   4.844
    0CHTO   C95   97   3.690   4.887   4.870
    0CHTO  H182   98   3.600   4.830   4.894
    0CHTO  C106   99   3.726   4.970   4.996
    0CHTO   O69  100   3.743   4.877   5.104
    0CHTO  H169  101   3.759   4.924   5.186
    0CHTO   O63  102   3.872   4.618   4.707
    0CHTO   C96  103   3.858   4.509   4.800
    0CHTO  H183  104   3.754   4.475   4.797
    0CHTO   C98  105   3.893   4.545   4.946
    0CHTO  H185  106   3.825   4.622   4.986
    0CHTO   O67  107   3.872   4.428   5.025
    0CHTO  H167  108   3.886   4.450   5.116
    0CHTO  C102  109   4.042   4.590   4.957
    0CHTO  H189  110   4.071   4.575   5.062
    0CHTO   N18  111   4.063   4.733   4.928
    0CHTO  H176  112   4.001   4.794   4.993
    0CHTO  H177  113   4.042   4.758   4.825
    0CHTO  C105  114   4.130   4.502   4.867
    0CHTO  H192  115   4.151   4.555   4.773
    0CHTO   O65  116   4.064   4.378   4.837
    0CHTO  C100  117   3.950   4.395   4.752
    0CHTO  H187  118   3.987   4.420   4.651
    0CHTO  C107  119   3.874   4.261   4.743
    0CHTO   O70  120   3.810   4.234   4.867
    0CHTO  H170  121   3.756   4.156   4.863
    0CHTO   O57  122   4.250   4.485   4.945
    0CHTO   C85  123   4.346   4.393   4.892
    0CHTO  H157  124   4.303   4.291   4.891
    0CHTO   C83  125   4.464   4.392   4.991
    0CHTO  H155  126   4.429   4.368   5.093
    0CHTO   O56  127   4.521   4.524   4.995
    0CHTO  H135  128   4.457   4.588   5.023
    0CHTO   C81  129   4.569   4.289   4.948
    0CHTO  H153  130   4.531   4.188   4.968
    0CHTO   N14  131   4.693   4.307   5.026
    0CHTO  H141  132   4.671   4.290   5.130
    0CHTO  H142  133   4.731   4.408   5.014
    0CHTO   C79  134   4.600   4.302   4.797
    0CHTO  H151  135   4.548   4.219   4.746
    0CHTO   O52  136   4.548   4.427   4.745
    0CHTO   C86  137   4.403   4.434   4.753
    0CHTO  H158  138   4.381   4.540   4.732
    0CHTO   C90  139   4.338   4.353   4.640
    0CHTO   O60  140   4.416   4.371   4.521
    0CHTO  H138  141   4.378   4.320   4.450
    0CHTO   O50  142   4.741   4.292   4.773
    0CHTO   C73  143   4.780   4.303   4.635
    0CHTO  H145  144   4.739   4.394   4.589
    0CHTO   C74  145   4.739   4.180   4.552
    0CHTO  H146  146   4.629   4.173   4.547
    0CHTO   O54  147   4.787   4.195   4.418
    0CHTO  H133  148   4.760   4.120   4.367
    0CHTO   C75  149   4.801   4.055   4.618
    0CHTO  H147  150   4.764   4.047   4.722
    0CHTO   N13  151   4.764   3.933   4.543
    0CHTO  H139  152   4.657   3.922   4.543
    0CHTO  H140  153   4.808   3.847   4.591
    0CHTO   C76  154   4.955   4.074   4.619
    0CHTO  H148  155   4.988   4.079   4.514
    0CHTO   O49  156   4.993   4.194   4.690
    0CHTO   C77  157   4.935   4.312   4.635
    0CHTO  H149  158   4.970   4.327   4.533
    0CHTO   C88  159   4.981   4.435   4.716
    0CHTO   O58  160   5.125   4.445   4.711
    0CHTO  H136  161   5.157   4.522   4.756
    0CHTO   O51  162   5.012   3.962   4.690
    0CHTO   C78  163   5.156   3.964   4.694
    0CHTO  H150  164   5.195   4.067   4.705
    0CHTO   C80  165   5.216   3.901   4.567
    0CHTO  H152  166   5.171   3.801   4.552
    0CHTO   O55  167   5.188   3.985   4.454
    0CHTO  H134  168   5.218   3.945   4.373
    0CHTO   C84  169   5.369   3.889   4.583
    0CHTO  H156  170   5.412   3.989   4.589
    0CHTO   N15  171   5.426   3.821   4.466
    0CHTO  H143  172   5.385   3.722   4.459
    0CHTO  H144  173   5.533   3.814   4.478
    0CHTO   C87  174   5.401   3.811   4.712
    0CHTO  H159  175   5.361   3.709   4.703
    0CHTO   O53  176   5.343   3.880   4.824
    0CHTO   C82  177   5.200   3.883   4.817
    0CHTO  H154  178   5.160   3.781   4.813
    0CHTO   C89  179   5.143   3.949   4.945
    0CHTO   O59  180   5.190   3.874   5.058
    0CHTO  H137  181   5.158   3.914   5.137
    0CHTO   O45  182   5.545   3.807   4.726
    0CHTO   C67  183   5.585   3.770   4.859
    0CHTO  H124  184   5.551   3.845   4.931
    0CHTO   C65  185   5.525   3.633   4.898
    0CHTO  H122  186   5.521   3.571   4.808
    0CHTO   O44  187   5.393   3.659   4.950
    0CHTO  H102  188   5.345   3.579   4.968
    0CHTO   C63  189   5.618   3.561   4.998
    0CHTO  H120  190   5.693   3.503   4.942
    0CHTO   N11  191   5.549   3.461   5.082
    0CHTO  H108  192   5.498   3.390   5.020
    0CHTO  H109  193   5.477   3.509   5.148
    0CHTO   C61  194   5.692   3.665   5.086
    0CHTO  H118  195   5.752   3.608   5.159
    0CHTO   O40  196   5.781   3.743   5.008
    0CHTO   C68  197   5.739   3.764   4.872
    0CHTO  H125  198   5.777   3.681   4.810
    0CHTO   C72  199   5.805   3.894   4.819
    0CHTO   O48  200   5.781   3.915   4.680
    0CHTO  H105  201   5.826   3.993   4.650
    0CHTO   O38  202   5.602   3.754   5.155
    0CHTO   C55  203   5.668   3.816   5.266
    0CHTO  H112  204   5.774   3.833   5.242
    0CHTO   C56  205   5.650   3.734   5.397
    0CHTO  H113  206   5.542   3.730   5.419
    0CHTO   O42  207   5.694   3.598   5.383
    0CHTO  H100  208   5.672   3.547   5.460
    0CHTO   C57  209   5.726   3.803   5.512
    0CHTO  H114  210   5.833   3.805   5.489
    0CHTO   N10  211   5.705   3.732   5.640
    0CHTO  H106  212   5.722   3.798   5.723
    0CHTO  H107  213   5.770   3.647   5.647
    0CHTO   C58  214   5.675   3.947   5.524
    0CHTO  H115  215   5.570   3.945   5.560
    0CHTO   O37  216   5.684   4.018   5.400
    0CHTO   C59  217   5.607   3.955   5.296
    0CHTO  H116  218   5.502   3.947   5.326
    0CHTO   C70  219   5.620   4.046   5.173
    0CHTO   O46  220   5.579   4.180   5.204
    0CHTO  H103  221   5.583   4.233   5.126
    0CHTO   O39  222   5.759   4.011   5.622
    0CHTO   C60  223   5.743   4.153   5.630
    0CHTO  H117  224   5.770   4.198   5.534
    0CHTO   C62  225   5.600   4.195   5.668
    0CHTO  H119  226   5.534   4.170   5.583
    0CHTO   O43  227   5.560   4.121   5.784
    0CHTO  H101  228   5.468   4.136   5.805
    0CHTO   C66  229   5.599   4.348   5.692
    0CHTO  H123  230   5.624   4.399   5.598
    0CHTO   N12  231   5.467   4.395   5.734
    0CHTO  H110  232   5.445   4.363   5.835
    0CHTO  H111  233   5.392   4.361   5.665
    0CHTO   C69  234   5.703   4.384   5.800
    0CHTO  H126  235   5.679   4.331   5.894
    0CHTO   O41  236   5.833   4.349   5.751
    0CHTO   C64  237   5.844   4.206   5.734
    0CHTO  H121  238   5.825   4.155   5.831
    0CHTO   C71  239   5.988   4.171   5.690
    0CHTO   O47  240   6.078   4.228   5.787
    0CHTO  H104  241   6.168   4.208   5.764
    0CHTO   O34  242   5.688   4.526   5.819
    0CHTO   C49  243   5.738   4.576   5.945
    0CHTO   H91  244   5.687   4.523   6.026
    0CHTO   C47  245   5.703   4.725   5.946
    0CHTO   H89  246   5.743   4.768   6.040
    0CHTO   O33  247   5.561   4.749   5.940
    0CHTO   H70  248   5.519   4.711   6.016
    0CHTO   C45  249   5.769   4.792   5.822
    0CHTO   H87  250   5.701   4.790   5.736
    0CHTO    N8  251   5.799   4.932   5.855
    0CHTO   H75  252   5.709   4.980   5.892
    0CHTO   H76  253   5.835   4.985   5.768
    0CHTO   C43  254   5.899   4.717   5.782
    0CHTO   H85  255   5.871   4.634   5.717
    0CHTO   O29  256   5.963   4.674   5.902
    0CHTO   C50  257   5.891   4.565   5.962
    0CHTO   H92  258   5.925   4.470   5.917
    0CHTO   C54  259   5.930   4.552   6.111
    0CHTO   O36  260   6.072   4.529   6.120
    0CHTO   H72  261   6.097   4.519   6.211
    0CHTO   O27  262   5.984   4.806   5.708
    0CHTO   C37  263   6.115   4.754   5.679
    0CHTO   H79  264   6.169   4.729   5.772
    0CHTO   C38  265   6.108   4.626   5.593
    0CHTO   H80  266   6.039   4.643   5.508
    0CHTO   O31  267   6.062   4.518   5.673
    0CHTO   H68  268   6.055   4.437   5.624
    0CHTO   C39  269   6.249   4.587   5.541
    0CHTO   H81  270   6.311   4.561   5.628
    0CHTO    N7  271   6.241   4.470   5.452
    0CHTO   H73  272   6.340   4.435   5.428
    0CHTO   H74  273   6.187   4.494   5.362
    0CHTO   C40  274   6.317   4.705   5.468
    0CHTO   H82  275   6.258   4.733   5.379
    0CHTO   O26  276   6.326   4.813   5.562
    0CHTO   C41  277   6.195   4.861   5.602
    0CHTO   H83  278   6.139   4.892   5.512
    0CHTO   C52  279   6.220   4.985   5.690
    0CHTO   O35  280   6.300   5.083   5.621
    0CHTO   H71  281   6.305   5.164   5.671
    0CHTO   O28  282   6.449   4.666   5.427
    0CHTO   C42  283   6.523   4.764   5.352
    0CHTO   H84  284   6.623   4.719   5.339
    0CHTO   C44  285   6.547   4.899   5.422
    0CHTO   H86  286   6.452   4.954   5.428
    0CHTO   O32  287   6.598   4.878   5.554
    0CHTO   H69  288   6.606   4.961   5.600
    0CHTO   C48  289   6.645   4.982   5.335
    0CHTO   H90  290   6.740   4.928   5.325
    0CHTO    N9  291   6.675   5.112   5.401
    0CHTO   H77  292   6.589   5.176   5.399
    0CHTO   H78  293   6.759   5.160   5.353
    0CHTO   C51  294   6.580   5.001   5.195
    0CHTO   H93  295   6.486   5.055   5.208
    0CHTO   O30  296   6.562   4.873   5.137
    0CHTO   C46  297   6.468   4.792   5.210
    0CHTO   H88  298   6.371   4.843   5.217
    0CHTO   C53  299   6.455   4.660   5.130
    0CHTO   O72  300   6.358   4.574   5.192
    0CHTO  H199  301   6.349   4.493   5.144
    0CHTO   O22  302   6.673   5.076   5.114
    0CHTO   C31  303   6.626   5.114   4.981
    0CHTO   H59  304   6.711   5.165   4.933
    0CHTO   C29  305   6.585   4.998   4.889
    0CHTO   H57  306   6.495   4.948   4.928
    0CHTO   O21  307   6.688   4.899   4.882
    0CHTO   H37  308   6.768   4.938   4.848
    0CHTO   C27  309   6.555   5.055   4.749
    0CHTO   H55  310   6.648   5.100   4.709
    0CHTO    N5  311   6.510   4.948   4.659
    0CHTO   H43  312   6.421   4.899   4.695
    0CHTO   H44  313   6.588   4.874   4.643
    0CHTO   C25  314   6.445   5.162   4.761
    0CHTO   H53  315   6.354   5.113   4.799
    0CHTO   O17  316   6.485   5.266   4.852
    0CHTO   C32  317   6.510   5.217   4.984
    0CHTO   H60  318   6.420   5.168   5.024
    0CHTO   C36  319   6.546   5.338   5.072
    0CHTO   O25  320   6.434   5.426   5.079
    0CHTO   H40  321   6.453   5.499   5.137
    0CHTO   O15  322   6.421   5.215   4.629
    0CHTO   C19  323   6.310   5.308   4.621
    0CHTO   H47  324   6.311   5.339   4.515
    0CHTO   C20  325   6.172   5.247   4.650
    0CHTO   H48  326   6.162   5.216   4.755
    0CHTO   O19  327   6.154   5.133   4.565
    0CHTO   H35  328   6.068   5.094   4.580
    0CHTO   C21  329   6.064   5.353   4.619
    0CHTO   H49  330   6.069   5.379   4.512
    0CHTO    N4  331   5.930   5.301   4.647
    0CHTO   H41  332   5.856   5.375   4.619
    0CHTO   H42  333   5.920   5.279   4.753
    0CHTO   C22  334   6.093   5.478   4.703
    0CHTO   H50  335   6.087   5.451   4.809
    0CHTO   O14  336   6.223   5.531   4.671
    0CHTO   C23  337   6.328   5.438   4.703
    0CHTO   H51  338   6.323   5.419   4.812
    0CHTO   C34  339   6.461   5.506   4.669
    0CHTO   O23  340   6.473   5.624   4.748
    0CHTO   H38  341   6.552   5.673   4.725
    0CHTO   O16  342   5.995   5.575   4.669
    0CHTO   C24  343   5.992   5.684   4.763
    0CHTO   H52  344   6.092   5.705   4.804
    0CHTO   C26  345   5.894   5.653   4.877
    0CHTO   H54  346   5.797   5.621   4.834
    0CHTO   O20  347   5.943   5.549   4.964
    0CHTO   H36  348   5.877   5.529   5.030
    0CHTO   C30  349   5.870   5.780   4.960
    0CHTO   H58  350   5.962   5.812   5.010
    0CHTO    N6  351   5.769   5.754   5.065
    0CHTO   H45  352   5.673   5.739   5.019
    0CHTO   H46  353   5.764   5.840   5.129
    0CHTO   C33  354   5.824   5.893   4.866
    0CHTO   H61  355   5.732   5.864   4.813
    0CHTO   O18  356   5.926   5.920   4.771
    0CHTO   C28  357   5.949   5.808   4.683
    0CHTO   H56  358   5.858   5.785   4.626
    0CHTO   C35  359   6.061   5.850   4.585
    0CHTO   O24  360   6.020   5.959   4.502
    0CHTO   H39  361   6.090   5.980   4.442
    0CHTO    O9  362   5.790   6.009   4.942
    0CHTO   C13  363   5.769   6.127   4.861
    0CHTO   H26  364   5.727   6.099   4.763
    0CHTO   C11  365   5.906   6.200   4.847
    0CHTO   H24  366   5.964   6.157   4.764
    0CHTO    O8  367   5.976   6.177   4.970
    0CHTO    H3  368   6.062   6.215   4.969
    0CHTO    C9  369   5.882   6.349   4.822
    0CHTO   H22  370   5.818   6.353   4.733
    0CHTO    N2  371   6.006   6.422   4.789
    0CHTO   H10  372   6.057   6.373   4.706
    0CHTO   H11  373   6.072   6.430   4.874
    0CHTO    C7  374   5.809   6.411   4.944
    0CHTO   H20  375   5.739   6.483   4.899
    0CHTO    O4  376   5.738   6.313   5.019
    0CHTO   C14  377   5.669   6.220   4.935
    0CHTO   H27  378   5.608   6.275   4.860
    0CHTO   C18  379   5.571   6.138   5.021
    0CHTO   O13  380   5.508   6.039   4.939
    0CHTO    H7  381   5.446   5.987   4.990
    0CHTO    O2  382   5.901   6.480   5.031
    0CHTO    C1  383   5.840   6.536   5.149
    0CHTO   H14  384   5.794   6.456   5.210
    0CHTO    C2  385   5.733   6.645   5.118
    0CHTO   H15  386   5.776   6.718   5.047
    0CHTO    O6  387   5.614   6.586   5.064
    0CHTO    H1  388   5.550   6.653   5.045
    0CHTO    C3  389   5.690   6.715   5.250
    0CHTO   H16  390   5.639   6.642   5.316
    0CHTO    N1  391   5.595   6.823   5.221
    0CHTO    H8  392   5.642   6.897   5.158
    0CHTO    H9  393   5.561   6.870   5.312
    0CHTO    C4  394   5.814   6.764   5.329
    0CHTO   H17  395   5.861   6.847   5.273
    0CHTO    O1  396   5.906   6.657   5.351
    0CHTO    C5  397   5.955   6.600   5.230
    0CHTO   H18  398   6.003   6.677   5.169
    0CHTO   C16  399   6.061   6.494   5.270
    0CHTO   O11  400   6.152   6.557   5.361
    0CHTO    H5  401   6.221   6.496   5.385
    0CHTO    O3  402   5.768   6.810   5.457
    0CHTO    C6  403   5.874   6.860   5.541
    0CHTO   H19  404   5.969   6.806   5.526
    0CHTO    C8  405   5.895   7.011   5.520
    0CHTO   H21  406   5.799   7.063   5.534
    0CHTO    O7  407   5.947   7.035   5.389
    0CHTO    H2  408   5.963   7.128   5.374
    0CHTO   C12  409   5.997   7.062   5.624
    0CHTO   H25  410   6.094   7.012   5.602
    0CHTO    N3  411   6.015   7.207   5.604
    0CHTO   H12  412   6.102   7.244   5.656
    0CHTO   H13  413   5.927   7.261   5.635
    0CHTO   C15  414   5.952   7.026   5.767
    0CHTO   H28  415   5.860   7.078   5.794
    0CHTO   O10  416   6.055   7.056   5.864
    0CHTO    H4  417   6.070   7.150   5.870
    0CHTO    O5  418   5.934   6.884   5.778
    0CHTO   C10  419   5.832   6.838   5.688
    0CHTO   H23  420   5.740   6.892   5.709
    0CHTO   C17  421   5.808   6.689   5.717
    0CHTO   O12  422   5.772   6.673   5.854
    0CHTO    H6  423   5.760   6.581   5.876
    1CHTO  H203  424   0.389   9.687   4.431
    1CHTO   O82  425   0.297   9.666   4.426
    1CHTO  C123  426   0.252   9.605   4.547
    1CHTO  H227  427   0.269   9.676   4.631
    1CHTO   O77  428   0.112   9.579   4.530
    1CHTO  C118  429   0.053   9.526   4.650
    1CHTO  H222  430   0.067   9.597   4.734
    1CHTO  C125  431  -0.100   9.504   4.628
    1CHTO   O84  432  -0.159   9.630   4.595
    1CHTO  H205  433  -0.251   9.620   4.575
    1CHTO  C114  434   0.116   9.391   4.686
    1CHTO  H218  435   0.093   9.319   4.606
    1CHTO  C116  436   0.270   9.406   4.699
    1CHTO  H220  437   0.296   9.468   4.787
    1CHTO   O79  438   0.332   9.277   4.715
    1CHTO  H201  439   0.426   9.285   4.721
    1CHTO  C120  440   0.325   9.471   4.570
    1CHTO  H224  441   0.304   9.400   4.486
    1CHTO   N21  442   0.469   9.487   4.583
    1CHTO  H211  443   0.492   9.569   4.649
    1CHTO  H212  444   0.515   9.501   4.486
    1CHTO   O75  445   0.053   9.353   4.808
    1CHTO  C112  446   0.084   9.218   4.850
    1CHTO  H216  447   0.189   9.210   4.880
    1CHTO   O73  448   0.049   9.127   4.744
    1CHTO  C113  449   0.069   8.991   4.783
    1CHTO  H217  450   0.173   8.978   4.816
    1CHTO  C124  451   0.047   8.903   4.659
    1CHTO   O83  452   0.124   8.953   4.548
    1CHTO  H204  453   0.106   8.900   4.471
    1CHTO  C109  454  -0.026   8.952   4.899
    1CHTO  H213  455  -0.130   8.970   4.863
    1CHTO  C110  456   0.009   9.044   5.017
    1CHTO  H214  457   0.111   9.026   5.050
    1CHTO   O78  458  -0.081   9.022   5.126
    1CHTO  H200  459  -0.062   9.080   5.198
    1CHTO  C111  460  -0.009   9.190   4.971
    1CHTO  H215  461  -0.114   9.207   4.941
    1CHTO   N19  462   0.023   9.285   5.078
    1CHTO  H207  463  -0.000   9.385   5.046
    1CHTO  H208  464   0.127   9.278   5.105
    1CHTO   O74  465  -0.013   8.811   4.933
    1CHTO  C115  466  -0.126   8.759   5.007
    1CHTO  H219  467  -0.188   8.839   5.046
    1CHTO   O76  468  -0.212   8.681   4.923
    1CHTO  C122  469  -0.139   8.583   4.847
    1CHTO  H226  470  -0.086   8.635   4.768
    1CHTO  C126  471  -0.238   8.485   4.777
    1CHTO   O85  472  -0.311   8.404   4.870
    1CHTO  H206  473  -0.358   8.456   4.932
    1CHTO  C121  474  -0.036   8.506   4.937
    1CHTO  H225  475  -0.040   8.398   4.914
    1CHTO   O81  476   0.095   8.557   4.908
    1CHTO  H202  477   0.120   8.541   4.818
    1CHTO  C119  478  -0.071   8.529   5.086
    1CHTO  H223  479  -0.176   8.498   5.093
    1CHTO  C117  480  -0.071   8.678   5.126
    1CHTO  H221  481   0.027   8.718   5.155
    1CHTO   N20  482  -0.159   8.699   5.242
    1CHTO  H209  483  -0.126   8.638   5.325
    1CHTO  H210  484  -0.262   8.679   5.219
    1CHTO   O80  485  -0.008   8.442   5.182
    1CHTO  C103  486   0.134   8.416   5.170
    1CHTO  H190  487   0.157   8.376   5.071
    1CHTO  C101  488   0.231   8.535   5.199
    1CHTO  H188  489   0.207   8.582   5.295
    1CHTO   O68  490   0.225   8.634   5.093
    1CHTO  H168  491   0.273   8.713   5.117
    1CHTO   C99  492   0.376   8.478   5.207
    1CHTO  H186  493   0.404   8.432   5.111
    1CHTO   N17  494   0.477   8.581   5.240
    1CHTO  H174  495   0.445   8.636   5.328
    1CHTO  H175  496   0.492   8.649   5.157
    1CHTO   C97  497   0.387   8.367   5.313
    1CHTO  H184  498   0.358   8.409   5.410
    1CHTO   O64  499   0.298   8.262   5.273
    1CHTO  C104  500   0.162   8.304   5.274
    1CHTO  H191  501   0.135   8.340   5.373
    1CHTO  C108  502   0.072   8.184   5.244
    1CHTO   O71  503   0.103   8.079   5.337
    1CHTO  H171  504   0.051   8.002   5.317
    1CHTO   O62  505   0.521   8.319   5.316
    1CHTO   C91  506   0.558   8.256   5.440
    1CHTO  H178  507   0.547   8.331   5.520
    1CHTO   C92  508   0.707   8.221   5.433
    1CHTO  H179  509   0.766   8.312   5.406
    1CHTO   O66  510   0.751   8.180   5.562
    1CHTO  H166  511   0.845   8.164   5.564
    1CHTO   C93  512   0.733   8.108   5.331
    1CHTO  H180  513   0.832   8.063   5.354
    1CHTO   N16  514   0.740   8.158   5.193
    1CHTO  H172  515   0.645   8.198   5.163
    1CHTO  H173  516   0.769   8.077   5.127
    1CHTO   C94  517   0.623   7.998   5.345
    1CHTO  H181  518   0.547   8.008   5.270
    1CHTO   O61  519   0.563   8.011   5.475
    1CHTO   C95  520   0.480   8.128   5.480
    1CHTO  H182  521   0.395   8.114   5.414
    1CHTO  C106  522   0.423   8.141   5.624
    1CHTO   O69  523   0.348   8.022   5.650
    1CHTO  H169  524   0.305   8.027   5.736
    1CHTO   O63  525   0.694   7.872   5.335
    1CHTO   C96  526   0.606   7.759   5.326
    1CHTO  H183  527   0.533   7.779   5.247
    1CHTO   C98  528   0.529   7.727   5.456
    1CHTO  H185  529   0.462   7.809   5.484
    1CHTO   O67  530   0.446   7.614   5.429
    1CHTO  H167  531   0.392   7.597   5.506
    1CHTO  C102  532   0.629   7.693   5.571
    1CHTO  H189  533   0.572   7.634   5.644
    1CHTO   N18  534   0.679   7.811   5.642
    1CHTO  H176  535   0.596   7.870   5.681
    1CHTO  H177  536   0.741   7.874   5.580
    1CHTO  C105  537   0.745   7.608   5.516
    1CHTO  H192  538   0.832   7.672   5.499
    1CHTO   O65  539   0.707   7.544   5.393
    1CHTO  C100  540   0.691   7.637   5.285
    1CHTO  H187  541   0.792   7.673   5.257
    1CHTO  C107  542   0.631   7.563   5.164
    1CHTO   O70  543   0.495   7.531   5.191
    1CHTO  H170  544   0.453   7.492   5.115
    1CHTO   O57  545   0.770   7.514   5.623
    1CHTO   C85  546   0.864   7.411   5.594
    1CHTO  H157  547   0.824   7.346   5.514
    1CHTO   C83  548   0.874   7.325   5.722
    1CHTO  H155  549   0.775   7.289   5.752
    1CHTO   O56  550   0.925   7.407   5.828
    1CHTO  H135  551   0.867   7.481   5.844
    1CHTO   C81  552   0.967   7.205   5.698
    1CHTO  H153  553   0.915   7.132   5.634
    1CHTO   N14  554   0.998   7.139   5.826
    1CHTO  H141  555   0.907   7.102   5.869
    1CHTO  H142  556   1.044   7.209   5.895
    1CHTO   C79  557   1.097   7.249   5.628
    1CHTO  H151  558   1.089   7.220   5.522
    1CHTO   O52  559   1.112   7.393   5.635
    1CHTO   C86  560   1.007   7.463   5.562
    1CHTO  H158  561   1.018   7.567   5.594
    1CHTO   C90  562   1.035   7.461   5.411
    1CHTO   O60  563   1.176   7.477   5.391
    1CHTO  H138  564   1.195   7.475   5.297
    1CHTO   O50  565   1.211   7.184   5.687
    1CHTO   C73  566   1.338   7.219   5.629
    1CHTO  H145  567   1.352   7.328   5.627
    1CHTO   C74  568   1.356   7.161   5.488
    1CHTO  H146  569   1.283   7.207   5.419
    1CHTO   O54  570   1.487   7.194   5.440
    1CHTO  H133  571   1.497   7.160   5.352
    1CHTO   C75  572   1.338   7.008   5.496
    1CHTO  H147  573   1.237   6.986   5.535
    1CHTO   N13  574   1.353   6.947   5.362
    1CHTO  H139  575   1.278   6.987   5.296
    1CHTO  H140  576   1.340   6.841   5.370
    1CHTO   C76  577   1.446   6.954   5.593
    1CHTO  H148  578   1.544   6.976   5.549
    1CHTO   O49  579   1.434   7.014   5.724
    1CHTO   C77  580   1.446   7.156   5.722
    1CHTO  H149  581   1.544   7.184   5.686
    1CHTO   C88  582   1.432   7.211   5.865
    1CHTO   O58  583   1.536   7.156   5.948
    1CHTO  H136  584   1.534   7.191   6.036
    1CHTO   O51  585   1.422   6.812   5.609
    1CHTO   C78  586   1.519   6.747   5.693
    1CHTO  H150  587   1.549   6.811   5.778
    1CHTO   C80  588   1.644   6.707   5.614
    1CHTO  H152  589   1.613   6.649   5.525
    1CHTO   O55  590   1.715   6.825   5.573
    1CHTO  H134  591   1.789   6.804   5.518
    1CHTO   C84  592   1.737   6.622   5.703
    1CHTO  H156  593   1.773   6.684   5.785
    1CHTO   N15  594   1.853   6.576   5.625
    1CHTO  H143  595   1.819   6.515   5.544
    1CHTO  H144  596   1.917   6.518   5.689
    1CHTO   C87  597   1.658   6.502   5.759
    1CHTO  H159  598   1.626   6.438   5.675
    1CHTO   O53  599   1.546   6.550   5.834
    1CHTO   C82  600   1.452   6.620   5.750
    1CHTO  H154  601   1.417   6.555   5.670
    1CHTO   C89  602   1.328   6.661   5.834
    1CHTO   O59  603   1.272   6.541   5.890
    1CHTO  H137  604   1.197   6.564   5.943
    1CHTO   O45  605   1.747   6.428   5.846
    1CHTO   C67  606   1.676   6.337   5.932
    1CHTO  H124  607   1.609   6.393   5.998
    1CHTO   C65  608   1.592   6.239   5.848
    1CHTO  H122  609   1.647   6.217   5.756
    1CHTO   O44  610   1.466   6.304   5.820
    1CHTO  H102  611   1.412   6.254   5.760
    1CHTO   C63  612   1.577   6.105   5.923
    1CHTO  H120  613   1.662   6.040   5.899
    1CHTO   N11  614   1.458   6.026   5.882
    1CHTO  H108  615   1.460   6.010   5.776
    1CHTO  H109  616   1.366   6.078   5.909
    1CHTO   C61  617   1.576   6.130   6.076
    1CHTO  H118  618   1.559   6.032   6.124
    1CHTO   O40  619   1.701   6.179   6.120
    1CHTO   C68  620   1.772   6.258   6.023
    1CHTO  H125  621   1.834   6.191   5.961
    1CHTO   C72  622   1.869   6.353   6.098
    1CHTO   O48  623   1.954   6.425   6.009
    1CHTO  H105  624   2.015   6.479   6.059
    1CHTO   O38  625   1.474   6.223   6.117
    1CHTO   C55  626   1.446   6.209   6.257
    1CHTO  H112  627   1.538   6.183   6.311
    1CHTO   C56  628   1.331   6.108   6.283
    1CHTO  H113  629   1.241   6.147   6.234
    1CHTO   O42  630   1.357   5.979   6.225
    1CHTO  H100  631   1.281   5.923   6.233
    1CHTO   C57  632   1.309   6.095   6.435
    1CHTO  H114  633   1.399   6.055   6.482
    1CHTO   N10  634   1.195   6.005   6.464
    1CHTO  H106  635   1.154   6.026   6.561
    1CHTO  H107  636   1.226   5.902   6.459
    1CHTO   C58  637   1.280   6.234   6.492
    1CHTO  H115  638   1.182   6.269   6.455
    1CHTO   O37  639   1.383   6.328   6.459
    1CHTO   C59  640   1.397   6.344   6.317
    1CHTO  H116  641   1.303   6.375   6.272
    1CHTO   C70  642   1.504   6.452   6.297
    1CHTO   O46  643   1.468   6.573   6.366
    1CHTO  H103  644   1.532   6.639   6.349
    1CHTO   O39  645   1.275   6.218   6.635
    1CHTO   C60  646   1.273   6.341   6.709
    1CHTO  H117  647   1.365   6.396   6.689
    1CHTO   C62  648   1.152   6.429   6.675
    1CHTO  H119  649   1.164   6.465   6.571
    1CHTO   O43  650   1.033   6.349   6.684
    1CHTO  H101  651   0.956   6.397   6.654
    1CHTO   C66  652   1.150   6.549   6.772
    1CHTO  H123  653   1.240   6.610   6.756
    1CHTO   N12  654   1.034   6.635   6.750
    1CHTO  H110  655   0.943   6.587   6.783
    1CHTO  H111  656   1.028   6.663   6.646
    1CHTO   C69  657   1.148   6.498   6.918
    1CHTO  H126  658   1.059   6.435   6.934
    1CHTO   O41  659   1.269   6.425   6.941
    1CHTO   C64  660   1.274   6.306   6.859
    1CHTO  H121  661   1.186   6.242   6.881
    1CHTO   C71  662   1.401   6.225   6.894
    1CHTO   O47  663   1.399   6.201   7.036
    1CHTO  H104  664   1.476   6.150   7.061
    1CHTO   O34  665   1.139   6.617   6.998
    1CHTO   C49  666   1.089   6.596   7.132
    1CHTO   H91  667   0.990   6.549   7.125
    1CHTO   C47  668   1.080   6.735   7.194
    1CHTO   H89  669   1.045   6.723   7.299
    1CHTO   O33  670   0.989   6.822   7.124
    1CHTO   H70  671   0.901   6.786   7.127
    1CHTO   C45  672   1.221   6.800   7.191
    1CHTO   H87  673   1.236   6.857   7.098
    1CHTO    N8  674   1.233   6.893   7.304
    1CHTO   H75  675   1.150   6.962   7.303
    1CHTO   H76  676   1.326   6.948   7.299
    1CHTO   C43  677   1.332   6.691   7.198
    1CHTO   H85  678   1.350   6.655   7.097
    1CHTO   O29  679   1.285   6.588   7.285
    1CHTO   C50  680   1.181   6.511   7.223
    1CHTO   H92  681   1.226   6.431   7.162
    1CHTO   C54  682   1.100   6.436   7.330
    1CHTO   O36  683   1.189   6.349   7.403
    1CHTO   H72  684   1.140   6.301   7.469
    1CHTO   O27  685   1.453   6.750   7.248
    1CHTO   C37  686   1.558   6.656   7.276
    1CHTO   H79  687   1.526   6.581   7.350
    1CHTO   C38  688   1.601   6.580   7.148
    1CHTO   H80  689   1.617   6.652   7.066
    1CHTO   O31  690   1.501   6.485   7.114
    1CHTO   H68  691   1.523   6.437   7.035
    1CHTO   C39  692   1.732   6.499   7.174
    1CHTO   H81  693   1.709   6.422   7.249
    1CHTO    N7  694   1.778   6.434   7.051
    1CHTO   H73  695   1.859   6.367   7.072
    1CHTO   H74  696   1.807   6.507   6.977
    1CHTO   C40  697   1.843   6.589   7.231
    1CHTO   H82  698   1.869   6.668   7.158
    1CHTO   O26  699   1.794   6.646   7.354
    1CHTO   C41  700   1.680   6.733   7.331
    1CHTO   H83  701   1.709   6.812   7.260
    1CHTO   C52  702   1.647   6.797   7.467
    1CHTO   O35  703   1.762   6.863   7.523
    1CHTO   H71  704   1.739   6.913   7.601
    1CHTO   O28  705   1.960   6.510   7.259
    1CHTO   C42  706   2.075   6.581   7.307
    1CHTO   H84  707   2.148   6.502   7.331
    1CHTO   C44  708   2.056   6.660   7.438
    1CHTO   H86  709   1.992   6.748   7.418
    1CHTO   O32  710   1.994   6.578   7.537
    1CHTO   H69  711   1.975   6.629   7.615
    1CHTO   C48  712   2.194   6.712   7.484
    1CHTO   H90  713   2.261   6.627   7.502
    1CHTO    N9  714   2.182   6.786   7.613
    1CHTO   H77  715   2.130   6.879   7.598
    1CHTO   H78  716   2.279   6.803   7.656
    1CHTO   C51  717   2.252   6.802   7.371
    1CHTO   H93  718   2.183   6.886   7.355
    1CHTO   O30  719   2.267   6.722   7.255
    1CHTO   C46  720   2.142   6.674   7.203
    1CHTO   H88  721   2.075   6.759   7.181
    1CHTO   C53  722   2.176   6.596   7.074
    1CHTO   O72  723   2.056   6.549   7.011
    1CHTO  H199  724   2.075   6.501   6.932
    1CHTO   O22  725   2.382   6.847   7.413
    1CHTO   C31  726   2.449   6.942   7.325
    1CHTO   H59  727   2.547   6.961   7.370
    1CHTO   C29  728   2.474   6.894   7.181
    1CHTO   H57  729   2.379   6.881   7.128
    1CHTO   O21  730   2.540   6.767   7.181
    1CHTO   H37  731   2.623   6.773   7.226
    1CHTO   C27  732   2.560   6.999   7.108
    1CHTO   H55  733   2.657   7.007   7.160
    1CHTO    N5  734   2.582   6.959   6.969
    1CHTO   H43  735   2.490   6.947   6.914
    1CHTO   H44  736   2.639   6.867   6.962
    1CHTO   C25  737   2.487   7.134   7.112
    1CHTO   H53  738   2.392   7.123   7.058
    1CHTO   O17  739   2.460   7.174   7.248
    1CHTO   C32  740   2.378   7.080   7.317
    1CHTO   H60  741   2.282   7.068   7.265
    1CHTO   C36  742   2.352   7.137   7.458
    1CHTO   O25  743   2.279   7.259   7.448
    1CHTO   H40  744   2.259   7.293   7.534
    1CHTO   O15  745   2.570   7.231   7.045
    1CHTO   C19  746   2.510   7.362   7.029
    1CHTO   H47  747   2.589   7.420   6.980
    1CHTO   C20  748   2.387   7.365   6.936
    1CHTO   H48  749   2.302   7.310   6.979
    1CHTO   O19  750   2.424   7.305   6.811
    1CHTO   H35  751   2.349   7.307   6.750
    1CHTO   C21  752   2.346   7.512   6.913
    1CHTO   H49  753   2.429   7.565   6.864
    1CHTO    N4  754   2.228   7.521   6.827
    1CHTO   H41  755   2.205   7.625   6.808
    1CHTO   H42  756   2.143   7.474   6.876
    1CHTO   C22  757   2.319   7.576   7.050
    1CHTO   H50  758   2.236   7.523   7.098
    1CHTO   O14  759   2.437   7.571   7.132
    1CHTO   C23  760   2.477   7.436   7.161
    1CHTO   H51  761   2.393   7.388   7.215
    1CHTO   C34  762   2.600   7.442   7.251
    1CHTO   O23  763   2.565   7.510   7.371
    1CHTO   H38  764   2.641   7.522   7.428
    1CHTO   O16  765   2.286   7.712   7.027
    1CHTO   C24  766   2.229   7.775   7.143
    1CHTO   H52  767   2.270   7.734   7.236
    1CHTO   C26  768   2.076   7.758   7.142
    1CHTO   H54  769   2.037   7.789   7.043
    1CHTO   O20  770   2.036   7.621   7.167
    1CHTO   H36  771   1.941   7.614   7.160
    1CHTO   C30  772   2.013   7.848   7.249
    1CHTO   H58  773   2.044   7.817   7.349
    1CHTO    N6  774   1.866   7.839   7.243
    1CHTO   H45  775   1.831   7.885   7.152
    1CHTO   H46  776   1.826   7.893   7.327
    1CHTO   C33  777   2.061   7.993   7.226
    1CHTO   H61  778   2.033   8.027   7.126
    1CHTO   O18  779   2.202   7.999   7.239
    1CHTO   C28  780   2.269   7.923   7.136
    1CHTO   H56  781   2.245   7.963   7.037
    1CHTO   C35  782   2.421   7.938   7.161
    1CHTO   O24  783   2.464   8.073   7.146
    1CHTO   H39  784   2.558   8.078   7.159
    1CHTO    O9  785   1.996   8.081   7.317
    1CHTO   C13  786   2.052   8.214   7.319
    1CHTO   H26  787   2.090   8.241   7.220
    1CHTO   C11  788   2.164   8.217   7.428
    1CHTO   H24  789   2.259   8.181   7.385
    1CHTO    O8  790   2.122   8.127   7.531
    1CHTO    H3  791   2.186   8.120   7.599
    1CHTO    C9  792   2.181   8.360   7.480
    1CHTO   H22  793   2.201   8.420   7.390
    1CHTO    N2  794   2.298   8.374   7.569
    1CHTO   H10  795   2.387   8.336   7.519
    1CHTO   H11  796   2.283   8.324   7.663
    1CHTO    C7  797   2.050   8.406   7.548
    1CHTO   H20  798   2.042   8.512   7.520
    1CHTO    O4  799   1.937   8.333   7.502
    1CHTO   C14  800   1.940   8.314   7.360
    1CHTO   H27  801   1.957   8.411   7.309
    1CHTO   C18  802   1.802   8.263   7.314
    1CHTO   O13  803   1.806   8.235   7.173
    1CHTO    H7  804   1.722   8.204   7.142
    1CHTO    O2  805   2.058   8.394   7.692
    1CHTO    C1  806   1.938   8.431   7.761
    1CHTO   H14  807   1.854   8.366   7.730
    1CHTO    C2  808   1.898   8.581   7.741
    1CHTO   H15  809   1.986   8.644   7.761
    1CHTO    O6  810   1.848   8.603   7.608
    1CHTO    H1  811   1.825   8.694   7.597
    1CHTO    C3  812   1.781   8.617   7.837
    1CHTO   H16  813   1.691   8.558   7.810
    1CHTO    N1  814   1.748   8.759   7.824
    1CHTO    H8  815   1.833   8.819   7.852
    1CHTO    H9  816   1.664   8.785   7.887
    1CHTO    C4  817   1.815   8.576   7.983
    1CHTO   H17  818   1.896   8.641   8.019
    1CHTO    O1  819   1.851   8.438   7.990
    1CHTO    C5  820   1.966   8.406   7.911
    1CHTO   H18  821   2.051   8.468   7.942
    1CHTO   C16  822   1.999   8.257   7.938
    1CHTO   O11  823   2.003   8.239   8.080
    1CHTO    H5  824   2.027   8.150   8.101
    1CHTO    O3  825   1.697   8.595   8.061
    1CHTO    C6  826   1.715   8.562   8.201
    1CHTO   H19  827   1.785   8.478   8.215
    1CHTO    C8  828   1.760   8.684   8.282
    1CHTO   H21  829   1.690   8.767   8.265
    1CHTO    O7  830   1.893   8.722   8.242
    1CHTO    H2  831   1.924   8.797   8.293
    1CHTO   C12  832   1.762   8.647   8.431
    1CHTO   H25  833   1.839   8.568   8.445
    1CHTO    N3  834   1.804   8.766   8.508
    1CHTO   H12  835   1.830   8.741   8.609
    1CHTO   H13  836   1.727   8.841   8.507
    1CHTO   C15  837   1.624   8.593   8.475
    1CHTO   H28  838   1.547   8.670   8.469
    1CHTO   O10  839   1.629   8.540   8.610
    1CHTO    H4  840   1.645   8.610   8.673
    1CHTO    O5  841   1.589   8.479   8.395
    1CHTO   C10  842   1.578   8.516   8.256
    1CHTO   H23  843   1.505   8.596   8.247
    1CHTO   C17  844   1.525   8.394   8.180
    1CHTO   O12  845   1.400   8.354   8.236
    1CHTO    H6  846   1.367   8.276   8.193
    2CHTO  H203  847   4.955   9.271   5.554
    2CHTO   O82  848   5.043   9.247   5.582
    2CHTO  C123  849   5.134   9.249   5.473
    2CHTO  H227  850   5.136   9.351   5.430
    2CHTO   O77  851   5.263   9.214   5.526
    2CHTO  C118  852   5.366   9.223   5.427
    2CHTO  H222  853   5.371   9.325   5.385
    2CHTO  C125  854   5.504   9.189   5.491
    2CHTO   O84  855   5.529   9.282   5.596
    2CHTO  H205  856   5.610   9.262   5.641
    2CHTO  C114  857   5.340   9.122   5.314
    2CHTO  H218  858   5.345   9.020   5.355
    2CHTO  C116  859   5.199   9.146   5.253
    2CHTO  H220  860   5.195   9.242   5.199
    2CHTO   O79  861   5.166   9.041   5.160
    2CHTO  H201  862   5.079   9.054   5.124
    2CHTO  C120  863   5.095   9.143   5.368
    2CHTO  H224  864   5.097   9.041   5.412
    2CHTO   N21  865   4.963   9.167   5.311
    2CHTO  H211  866   4.951   9.272   5.286
    2CHTO  H212  867   4.885   9.135   5.379
    2CHTO   O75  868   5.445   9.145   5.221
    2CHTO  C112  869   5.451   9.046   5.114
    2CHTO  H216  870   5.364   9.057   5.048
    2CHTO   O73  871   5.461   8.915   5.173
    2CHTO  C113  872   5.477   8.814   5.073
    2CHTO  H217  873   5.393   8.821   5.002
    2CHTO  C124  874   5.469   8.678   5.142
    2CHTO   O83  875   5.353   8.671   5.227
    2CHTO  H204  876   5.351   8.588   5.273
    2CHTO  C109  877   5.610   8.832   4.996
    2CHTO  H213  878   5.692   8.828   5.071
    2CHTO  C110  879   5.603   8.970   4.928
    2CHTO  H214  880   5.522   8.972   4.855
    2CHTO   O78  881   5.726   8.999   4.862
    2CHTO  H200  882   5.724   9.085   4.822
    2CHTO  C111  883   5.582   9.076   5.037
    2CHTO  H215  884   5.668   9.074   5.107
    2CHTO   N19  885   5.574   9.211   4.980
    2CHTO  H207  886   5.570   9.283   5.060
    2CHTO  H208  887   5.487   9.220   4.917
    2CHTO   O74  888   5.631   8.724   4.900
    2CHTO  C115  889   5.768   8.710   4.858
    2CHTO  H219  890   5.827   8.797   4.884
    2CHTO   O76  891   5.832   8.599   4.923
    2CHTO  C122  892   5.753   8.479   4.913
    2CHTO  H226  893   5.669   8.489   4.982
    2CHTO  C126  894   5.836   8.357   4.963
    2CHTO   O85  895   5.948   8.327   4.878
    2CHTO  H206  896   6.005   8.402   4.868
    2CHTO  C121  897   5.699   8.457   4.769
    2CHTO  H225  898   5.712   8.350   4.740
    2CHTO   O81  899   5.560   8.491   4.767
    2CHTO  H202  900   5.508   8.436   4.824
    2CHTO  C119  901   5.779   8.546   4.670
    2CHTO  H223  902   5.883   8.519   4.689
    2CHTO  C117  903   5.769   8.696   4.704
    2CHTO  H221  904   5.682   8.748   4.663
    2CHTO   N20  905   5.886   8.768   4.651
    2CHTO  H209  906   5.894   8.753   4.544
    2CHTO  H210  907   5.978   8.736   4.699
    2CHTO   O80  908   5.765   8.517   4.530
    2CHTO  C103  909   5.633   8.492   4.476
    2CHTO  H190  910   5.584   8.410   4.530
    2CHTO  C101  911   5.535   8.613   4.470
    2CHTO  H188  912   5.582   8.699   4.422
    2CHTO   O68  913   5.489   8.650   4.602
    2CHTO  H168  914   5.440   8.732   4.601
    2CHTO   C99  915   5.411   8.571   4.384
    2CHTO  H186  916   5.359   8.486   4.432
    2CHTO   N17  917   5.313   8.680   4.367
    2CHTO  H174  918   5.363   8.769   4.331
    2CHTO  H175  919   5.261   8.701   4.459
    2CHTO   C97  920   5.453   8.523   4.245
    2CHTO  H184  921   5.506   8.605   4.195
    2CHTO   O64  922   5.538   8.409   4.262
    2CHTO  C104  923   5.659   8.443   4.331
    2CHTO  H191  924   5.712   8.520   4.276
    2CHTO  C108  925   5.751   8.321   4.334
    2CHTO   O71  926   5.768   8.273   4.200
    2CHTO  H171  927   5.822   8.195   4.201
    2CHTO   O62  928   5.337   8.486   4.171
    2CHTO   C91  929   5.354   8.490   4.028
    2CHTO  H178  930   5.379   8.594   4.001
    2CHTO   C92  931   5.217   8.460   3.964
    2CHTO  H179  932   5.140   8.529   4.004
    2CHTO   O66  933   5.226   8.486   3.824
    2CHTO  H166  934   5.142   8.475   3.781
    2CHTO   C93  935   5.176   8.313   3.986
    2CHTO  H180  936   5.099   8.287   3.912
    2CHTO   N16  937   5.116   8.292   4.119
    2CHTO  H172  938   5.188   8.310   4.197
    2CHTO  H173  939   5.079   8.190   4.126
    2CHTO   C94  940   5.300   8.220   3.966
    2CHTO  H181  941   5.344   8.191   4.060
    2CHTO   O61  942   5.397   8.291   3.888
    2CHTO   C95  943   5.459   8.394   3.967
    2CHTO  H182  944   5.518   8.348   4.046
    2CHTO  C106  945   5.558   8.472   3.876
    2CHTO   O69  946   5.655   8.377   3.829
    2CHTO  H169  947   5.722   8.421   3.777
    2CHTO   O63  948   5.250   8.106   3.892
    2CHTO   C96  949   5.346   7.999   3.881
    2CHTO  H183  950   5.384   7.977   3.982
    2CHTO   C98  951   5.466   8.030   3.789
    2CHTO  H185  952   5.525   8.114   3.827
    2CHTO   O67  953   5.551   7.916   3.791
    2CHTO  H167  954   5.629   7.936   3.740
    2CHTO  C102  955   5.417   8.057   3.643
    2CHTO  H189  956   5.503   8.038   3.578
    2CHTO   N18  957   5.376   8.197   3.620
    2CHTO  H176  958   5.457   8.264   3.645
    2CHTO  H177  959   5.288   8.224   3.676
    2CHTO  C105  960   5.304   7.960   3.607
    2CHTO  H192  961   5.207   8.010   3.618
    2CHTO   O65  962   5.306   7.844   3.693
    2CHTO  C100  963   5.271   7.875   3.828
    2CHTO  H187  964   5.163   7.896   3.831
    2CHTO  C107  965   5.297   7.751   3.916
    2CHTO   O70  966   5.438   7.731   3.930
    2CHTO  H170  967   5.458   7.660   3.989
    2CHTO   O57  968   5.330   7.928   3.469
    2CHTO   C85  969   5.248   7.826   3.412
    2CHTO  H157  970   5.268   7.730   3.463
    2CHTO   C83  971   5.294   7.811   3.266
    2CHTO  H155  972   5.403   7.791   3.261
    2CHTO   O56  973   5.271   7.935   3.197
    2CHTO  H135  974   5.318   8.006   3.238
    2CHTO   C81  975   5.219   7.696   3.197
    2CHTO  H153  976   5.256   7.600   3.235
    2CHTO   N14  977   5.243   7.699   3.052
    2CHTO  H141  978   5.348   7.685   3.034
    2CHTO  H142  979   5.213   7.795   3.010
    2CHTO   C79  980   5.067   7.706   3.226
    2CHTO  H151  981   5.044   7.630   3.302
    2CHTO   O52  982   5.034   7.836   3.280
    2CHTO   C86  983   5.097   7.860   3.409
    2CHTO  H158  984   5.081   7.968   3.425
    2CHTO   C90  985   5.021   7.788   3.521
    2CHTO   O60  986   4.880   7.797   3.493
    2CHTO  H138  987   4.831   7.751   3.561
    2CHTO   O50  988   4.991   7.680   3.107
    2CHTO   C73  989   4.849   7.686   3.123
    2CHTO  H145  990   4.818   7.782   3.168
    2CHTO   C74  991   4.793   7.569   3.206
    2CHTO  H146  992   4.831   7.575   3.310
    2CHTO   O54  993   4.650   7.579   3.212
    2CHTO  H133  994   4.617   7.508   3.265
    2CHTO   C75  995   4.835   7.438   3.138
    2CHTO  H147  996   4.946   7.434   3.132
    2CHTO   N13  997   4.785   7.321   3.214
    2CHTO  H139  998   4.827   7.323   3.313
    2CHTO  H140  999   4.816   7.230   3.165
    2CHTO   C76 1000   4.776   7.438   2.994
    2CHTO  H148 1001   4.667   7.440   3.004
    2CHTO   O49 1002   4.822   7.553   2.919
    2CHTO   C77 1003   4.789   7.677   2.980
    2CHTO  H149 1004   4.681   7.688   2.986
    2CHTO   C88 1005   4.841   7.794   2.893
    2CHTO   O58 1006   4.780   7.787   2.762
    2CHTO  H136 1007   4.806   7.859   2.707
    2CHTO   O51 1008   4.825   7.320   2.927
    2CHTO   C78 1009   4.773   7.305   2.793
    2CHTO  H150 1010   4.764   7.403   2.742
    2CHTO   C80 1011   4.636   7.236   2.794
    2CHTO  H152 1012   4.643   7.142   2.852
    2CHTO   O55 1013   4.539   7.323   2.854
    2CHTO  H134 1014   4.454   7.280   2.862
    2CHTO   C84 1015   4.592   7.206   2.649
    2CHTO  H156 1016   4.577   7.300   2.597
    2CHTO   N15 1017   4.465   7.132   2.650
    2CHTO  H143 1018   4.479   7.039   2.701
    2CHTO  H144 1019   4.436   7.113   2.548
    2CHTO   C87 1020   4.702   7.124   2.579
    2CHTO  H159 1021   4.714   7.028   2.630
    2CHTO   O53 1022   4.825   7.199   2.581
    2CHTO   C82 1023   4.873   7.219   2.714
    2CHTO  H154 1024   4.889   7.123   2.764
    2CHTO   C89 1025   5.010   7.291   2.710
    2CHTO   O59 1026   5.100   7.211   2.632
    2CHTO  H137 1027   5.183   7.254   2.626
    2CHTO   O45 1028   4.660   7.103   2.442
    2CHTO   C67 1029   4.769   7.061   2.358
    2CHTO  H124 1030   4.845   7.140   2.353
    2CHTO   C65 1031   4.834   6.932   2.413
    2CHTO  H122 1032   4.755   6.872   2.458
    2CHTO   O44 1033   4.931   6.974   2.511
    2CHTO  H102 1034   4.970   6.900   2.557
    2CHTO   C63 1035   4.893   6.850   2.297
    2CHTO  H120 1036   4.815   6.783   2.257
    2CHTO   N11 1037   5.001   6.758   2.339
    2CHTO  H108 1038   4.967   6.694   2.417
    2CHTO  H109 1039   5.088   6.814   2.374
    2CHTO   C61 1040   4.942   6.944   2.184
    2CHTO  H118 1041   4.989   6.880   2.107
    2CHTO   O40 1042   4.832   7.011   2.124
    2CHTO   C68 1043   4.722   7.037   2.213
    2CHTO  H125 1044   4.654   6.951   2.211
    2CHTO   C72 1045   4.642   7.159   2.158
    2CHTO   O48 1046   4.523   7.183   2.232
    2CHTO  H105 1047   4.474   7.255   2.193
    2CHTO   O38 1048   5.036   7.042   2.230
    2CHTO   C55 1049   5.111   7.096   2.120
    2CHTO  H112 1050   5.047   7.100   2.030
    2CHTO   C56 1051   5.242   7.016   2.095
    2CHTO  H113 1052   5.304   7.025   2.186
    2CHTO   O42 1053   5.218   6.876   2.075
    2CHTO  H100 1054   5.299   6.828   2.071
    2CHTO   C57 1055   5.316   7.075   1.973
    2CHTO  H114 1056   5.254   7.065   1.884
    2CHTO   N10 1057   5.445   7.007   1.951
    2CHTO  H106 1058   5.512   7.070   1.896
    2CHTO  H107 1059   5.430   6.915   1.898
    2CHTO   C58 1060   5.341   7.224   2.000
    2CHTO  H115 1061   5.414   7.234   2.082
    2CHTO   O37 1062   5.220   7.294   2.031
    2CHTO   C59 1063   5.156   7.241   2.149
    2CHTO  H116 1064   5.224   7.245   2.234
    2CHTO   C70 1065   5.034   7.330   2.174
    2CHTO   O46 1066   5.072   7.468   2.185
    2CHTO  H103 1067   4.997   7.520   2.206
    2CHTO   O39 1068   5.396   7.277   1.878
    2CHTO   C60 1069   5.404   7.420   1.874
    2CHTO  H117 1070   5.303   7.462   1.881
    2CHTO   C62 1071   5.492   7.479   1.985
    2CHTO  H119 1072   5.440   7.462   2.081
    2CHTO   O43 1073   5.617   7.410   1.985
    2CHTO  H101 1074   5.671   7.435   2.060
    2CHTO   C66 1075   5.508   7.631   1.960
    2CHTO  H123 1076   5.409   7.679   1.968
    2CHTO   N12 1077   5.595   7.693   2.060
    2CHTO  H110 1078   5.698   7.663   2.045
    2CHTO  H111 1079   5.562   7.668   2.159
    2CHTO   C69 1080   5.566   7.654   1.819
    2CHTO  H126 1081   5.664   7.604   1.811
    2CHTO   O41 1082   5.472   7.604   1.723
    2CHTO   C64 1083   5.459   7.461   1.735
    2CHTO  H121 1084   5.558   7.412   1.721
    2CHTO   C71 1085   5.364   7.409   1.624
    2CHTO   O47 1086   5.417   7.455   1.498
    2CHTO  H104 1087   5.362   7.424   1.427
    2CHTO   O34 1088   5.583   7.797   1.810
    2CHTO   C49 1089   5.678   7.840   1.710
    2CHTO   H91 1090   5.775   7.793   1.732
    2CHTO   C47 1091   5.686   7.992   1.726
    2CHTO   H89 1092   5.756   8.030   1.648
    2CHTO   O33 1093   5.734   8.032   1.855
    2CHTO   H70 1094   5.822   7.999   1.869
    2CHTO   C45 1095   5.544   8.051   1.706
    2CHTO   H87 1096   5.491   8.057   1.801
    2CHTO    N8 1097   5.557   8.186   1.650
    2CHTO   H75 1098   5.624   8.245   1.713
    2CHTO   H76 1099   5.461   8.235   1.645
    2CHTO   C43 1100   5.460   7.961   1.610
    2CHTO   H85 1101   5.415   7.883   1.670
    2CHTO   O29 1102   5.548   7.911   1.510
    2CHTO   C50 1103   5.636   7.811   1.565
    2CHTO   H92 1104   5.585   7.713   1.561
    2CHTO   C54 1105   5.759   7.793   1.473
    2CHTO   O36 1106   5.714   7.753   1.342
    2CHTO   H72 1107   5.788   7.740   1.285
    2CHTO   O27 1108   5.356   8.040   1.551
    2CHTO   C37 1109   5.281   7.973   1.448
    2CHTO   H79 1110   5.347   7.942   1.365
    2CHTO   C38 1111   5.210   7.847   1.502
    2CHTO   H80 1112   5.157   7.873   1.596
    2CHTO   O31 1113   5.306   7.745   1.525
    2CHTO   H68 1114   5.266   7.666   1.559
    2CHTO   C39 1115   5.109   7.792   1.397
    2CHTO   H81 1116   5.167   7.759   1.309
    2CHTO    N7 1117   5.035   7.677   1.451
    2CHTO   H73 1118   4.976   7.631   1.374
    2CHTO   H74 1119   4.972   7.708   1.533
    2CHTO   C40 1120   5.011   7.901   1.350
    2CHTO   H82 1121   4.950   7.937   1.435
    2CHTO   O26 1122   5.090   8.007   1.293
    2CHTO   C41 1123   5.175   8.070   1.393
    2CHTO   H83 1124   5.112   8.108   1.475
    2CHTO   C52 1125   5.241   8.190   1.322
    2CHTO   O35 1126   5.143   8.278   1.265
    2CHTO   H71 1127   5.183   8.358   1.232
    2CHTO   O28 1128   4.924   7.847   1.249
    2CHTO   C42 1129   4.822   7.936   1.199
    2CHTO   H84 1130   4.774   7.880   1.118
    2CHTO   C44 1131   4.872   8.067   1.135
    2CHTO   H86 1132   4.912   8.133   1.214
    2CHTO   O32 1133   4.975   8.040   1.040
    2CHTO   H69 1134   5.011   8.121   1.006
    2CHTO   C48 1135   4.751   8.138   1.070
    2CHTO   H90 1136   4.707   8.074   0.993
    2CHTO    N9 1137   4.795   8.264   1.003
    2CHTO   H77 1138   4.823   8.337   1.075
    2CHTO   H78 1139   4.716   8.302   0.939
    2CHTO   C51 1140   4.646   8.165   1.182
    2CHTO   H93 1141   4.691   8.230   1.257
    2CHTO   O30 1142   4.604   8.041   1.234
    2CHTO   C46 1143   4.711   7.971   1.301
    2CHTO   H88 1144   4.753   8.033   1.382
    2CHTO   C53 1145   4.648   7.842   1.359
    2CHTO   O72 1146   4.746   7.768   1.433
    2CHTO  H199 1147   4.709   7.688   1.469
    2CHTO   O22 1148   4.532   8.229   1.119
    2CHTO   C31 1149   4.426   8.273   1.209
    2CHTO   H59 1150   4.347   8.314   1.145
    2CHTO   C29 1151   4.362   8.163   1.295
    2CHTO   H57 1152   4.434   8.124   1.368
    2CHTO   O21 1153   4.320   8.053   1.215
    2CHTO   H37 1154   4.256   8.082   1.150
    2CHTO   C27 1155   4.241   8.224   1.371
    2CHTO   H55 1156   4.167   8.258   1.296
    2CHTO    N5 1157   4.180   8.123   1.458
    2CHTO   H43 1158   4.250   8.085   1.531
    2CHTO   H44 1159   4.139   8.040   1.401
    2CHTO   C25 1160   4.290   8.343   1.455
    2CHTO   H53 1161   4.362   8.305   1.529
    2CHTO   O17 1162   4.354   8.441   1.372
    2CHTO   C32 1163   4.469   8.389   1.303
    2CHTO   H60 1164   4.542   8.351   1.376
    2CHTO   C36 1165   4.531   8.505   1.223
    2CHTO   O25 1166   4.577   8.605   1.313
    2CHTO   H40 1167   4.620   8.675   1.265
    2CHTO   O15 1168   4.175   8.399   1.522
    2CHTO   C19 1169   4.207   8.504   1.616
    2CHTO   H47 1170   4.107   8.535   1.653
    2CHTO   C20 1171   4.289   8.460   1.738
    2CHTO   H48 1172   4.391   8.430   1.710
    2CHTO   O19 1173   4.222   8.349   1.800
    2CHTO   H35 1174   4.271   8.320   1.878
    2CHTO   C21 1175   4.297   8.578   1.838
    2CHTO   H49 1176   4.196   8.604   1.871
    2CHTO    N4 1177   4.377   8.542   1.955
    2CHTO   H41 1178   4.376   8.624   2.026
    2CHTO   H42 1179   4.479   8.521   1.926
    2CHTO   C22 1180   4.358   8.698   1.765
    2CHTO   H50 1181   4.460   8.672   1.732
    2CHTO   O14 1182   4.277   8.736   1.652
    2CHTO   C23 1183   4.270   8.631   1.554
    2CHTO   H51 1184   4.373   8.612   1.519
    2CHTO   C34 1185   4.185   8.683   1.438
    2CHTO   O23 1186   4.248   8.798   1.383
    2CHTO   H38 1187   4.195   8.838   1.314
    2CHTO   O16 1188   4.361   8.806   1.857
    2CHTO   C24 1189   4.444   8.915   1.812
    2CHTO   H52 1190   4.442   8.923   1.702
    2CHTO   C26 1191   4.588   8.895   1.861
    2CHTO   H54 1192   4.587   8.875   1.970
    2CHTO   O20 1193   4.654   8.786   1.794
    2CHTO   H36 1194   4.741   8.773   1.831
    2CHTO   C30 1195   4.668   9.024   1.837
    2CHTO   H58 1196   4.678   9.044   1.730
    2CHTO    N6 1197   4.805   9.009   1.892
    2CHTO   H45 1198   4.800   9.006   1.999
    2CHTO   H46 1199   4.862   9.095   1.862
    2CHTO   C33 1200   4.595   9.142   1.903
    2CHTO   H61 1201   4.582   9.124   2.011
    2CHTO   O18 1202   4.467   9.157   1.843
    2CHTO   C28 1203   4.381   9.043   1.868
    2CHTO   H56 1204   4.365   9.031   1.976
    2CHTO   C35 1205   4.246   9.072   1.799
    2CHTO   O24 1206   4.181   9.185   1.856
    2CHTO   H39 1207   4.098   9.198   1.813
    2CHTO    O9 1208   4.673   9.260   1.892
    2CHTO   C13 1209   4.601   9.380   1.929
    2CHTO   H26 1210   4.528   9.358   2.009
    2CHTO   C11 1211   4.533   9.437   1.801
    2CHTO   H24 1212   4.436   9.388   1.785
    2CHTO    O8 1213   4.620   9.405   1.692
    2CHTO    H3 1214   4.585   9.433   1.610
    2CHTO    C9 1215   4.513   9.588   1.816
    2CHTO   H22 1216   4.455   9.600   1.909
    2CHTO    N2 1217   4.431   9.646   1.707
    2CHTO   H10 1218   4.337   9.591   1.698
    2CHTO   H11 1219   4.484   9.646   1.613
    2CHTO    C7 1220   4.650   9.657   1.829
    2CHTO   H20 1221   4.633   9.737   1.903
    2CHTO    O4 1222   4.751   9.568   1.876
    2CHTO   C14 1223   4.704   9.484   1.982
    2CHTO   H27 1224   4.656   9.546   2.061
    2CHTO   C18 1225   4.824   9.414   2.048
    2CHTO   O13 1226   4.777   9.323   2.148
    2CHTO    H7 1227   4.850   9.279   2.191
    2CHTO    O2 1228   4.693   9.715   1.704
    2CHTO    C1 1229   4.822   9.777   1.708
    2CHTO   H14 1230   4.900   9.703   1.735
    2CHTO    C2 1231   4.830   9.898   1.806
    2CHTO   H15 1232   4.745   9.966   1.786
    2CHTO    O6 1233   4.829   9.854   1.942
    2CHTO    H1 1234   4.833   9.928   2.001
    2CHTO    C3 1235   4.966   9.972   1.787
    2CHTO   H16 1236   5.049   9.905   1.816
    2CHTO    N1 1237   4.971  10.091   1.873
    2CHTO    H8 1238   4.892  10.159   1.846
    2CHTO    H9 1239   5.066  10.141   1.864
    2CHTO    C4 1240   4.989  10.006   1.637
    2CHTO   H17 1241   4.916  10.083   1.607
    2CHTO    O1 1242   4.978   9.889   1.556
    2CHTO    C5 1243   4.850   9.827   1.564
    2CHTO   H18 1244   4.772   9.898   1.536
    2CHTO   C16 1245   4.851   9.709   1.464
    2CHTO   O11 1246   4.898   9.760   1.338
    2CHTO    H5 1247   4.896   9.692   1.272
    2CHTO    O3 1248   5.123  10.057   1.625
    2CHTO    C6 1249   5.157  10.093   1.490
    2CHTO   H19 1250   5.109  10.029   1.415
    2CHTO    C8 1251   5.124  10.241   1.462
    2CHTO   H21 1252   5.171  10.304   1.539
    2CHTO    O7 1253   4.982  10.259   1.463
    2CHTO    H2 1254   4.958  10.350   1.443
    2CHTO   C12 1255   5.178  10.279   1.323
    2CHTO   H25 1256   5.123  10.218   1.248
    2CHTO    N3 1257   5.147  10.421   1.298
    2CHTO   H12 1258   5.160  10.447   1.195
    2CHTO   H13 1259   5.207  10.485   1.361
    2CHTO   C15 1260   5.329  10.248   1.313
    2CHTO   H28 1261   5.387  10.311   1.381
    2CHTO   O10 1262   5.378  10.265   1.178
    2CHTO    H4 1263   5.374  10.357   1.152
    2CHTO    O5 1264   5.352  10.109   1.341
    2CHTO   C10 1265   5.310  10.076   1.474
    2CHTO   H23 1266   5.362  10.140   1.544
    2CHTO   C17 1267   5.352   9.931   1.501
    2CHTO   O12 1268   5.493   9.919   1.483
    2CHTO    H6 1269   5.522   9.828   1.496
    3CHTO  H203 1270   2.152  11.311   2.828
    3CHTO   O82 1271   2.146  11.320   2.923
    3CHTO  C123 1272   2.175  11.196   2.987
    3CHTO  H227 1273   2.278  11.165   2.959
    3CHTO   O77 1274   2.166  11.219   3.129
    3CHTO  C118 1275   2.204  11.104   3.205
    3CHTO  H222 1276   2.307  11.073   3.179
    3CHTO  C125 1277   2.197  11.136   3.357
    3CHTO   O84 1278   2.286  11.244   3.384
    3CHTO  H205 1279   2.281  11.271   3.475
    3CHTO  C114 1280   2.108  10.987   3.176
    3CHTO  H218 1281   2.007  11.015   3.210
    3CHTO  C116 1282   2.104  10.957   3.023
    3CHTO  H220 1283   2.201  10.917   2.989
    3CHTO   O79 1284   2.002  10.862   2.993
    3CHTO  H201 1285   1.997  10.844   2.900
    3CHTO  C120 1286   2.071  11.089   2.948
    3CHTO  H224 1287   1.969  11.120   2.980
    3CHTO   N21 1288   2.069  11.061   2.805
    3CHTO  H211 1289   2.170  11.051   2.767
    3CHTO  H212 1290   2.017  11.139   2.752
    3CHTO   O75 1291   2.159  10.879   3.253
    3CHTO  C112 1292   2.072  10.763   3.256
    3CHTO  H216 1293   2.067  10.716   3.156
    3CHTO   O73 1294   1.943  10.804   3.304
    3CHTO  C113 1295   1.855  10.692   3.318
    3CHTO  H217 1296   1.847  10.640   3.221
    3CHTO  C124 1297   1.715  10.746   3.353
    3CHTO   O83 1298   1.678  10.850   3.260
    3CHTO  H204 1299   1.593  10.886   3.285
    3CHTO  C109 1300   1.906  10.593   3.426
    3CHTO  H213 1301   1.915  10.651   3.520
    3CHTO  C110 1302   2.043  10.544   3.377
    3CHTO  H214 1303   2.033  10.489   3.283
    3CHTO   O78 1304   2.103  10.459   3.475
    3CHTO  H200 1305   2.189  10.431   3.447
    3CHTO  C111 1306   2.134  10.666   3.358
    3CHTO  H215 1307   2.147  10.718   3.456
    3CHTO   N19 1308   2.268  10.627   3.312
    3CHTO  H207 1309   2.332  10.714   3.310
    3CHTO  H208 1310   2.263  10.584   3.213
    3CHTO   O74 1311   1.812  10.484   3.447
    3CHTO  C115 1312   1.832  10.415   3.572
    3CHTO  H219 1313   1.927  10.439   3.617
    3CHTO   O76 1314   1.733  10.454   3.670
    3CHTO  C122 1315   1.600  10.447   3.616
    3CHTO  H226 1316   1.586  10.531   3.548
    3CHTO  C126 1317   1.496  10.466   3.731
    3CHTO   O85 1318   1.497  10.359   3.826
    3CHTO  H206 1319   1.583  10.346   3.863
    3CHTO  C121 1320   1.576  10.313   3.539
    3CHTO  H225 1321   1.477  10.271   3.566
    3CHTO   O81 1322   1.579  10.342   3.398
    3CHTO  H202 1323   1.510  10.401   3.372
    3CHTO  C119 1324   1.687  10.212   3.576
    3CHTO  H223 1325   1.682  10.208   3.685
    3CHTO  C117 1326   1.829  10.263   3.544
    3CHTO  H221 1327   1.863  10.246   3.441
    3CHTO   N20 1328   1.928  10.197   3.631
    3CHTO  H209 1329   1.922  10.090   3.618
    3CHTO  H210 1330   1.913  10.223   3.735
    3CHTO   O80 1331   1.665  10.075   3.540
    3CHTO  C103 1332   1.615  10.044   3.407
    3CHTO  H190 1333   1.521  10.098   3.388
    3CHTO  C101 1334   1.712  10.071   3.287
    3CHTO  H188 1335   1.810  10.024   3.305
    3CHTO   O68 1336   1.729  10.212   3.264
    3CHTO  H168 1337   1.799  10.230   3.201
    3CHTO   C99 1338   1.650  10.006   3.159
    3CHTO  H186 1339   1.552  10.053   3.137
    3CHTO   N17 1340   1.735  10.020   3.040
    3CHTO  H174 1341   1.835   9.985   3.063
    3CHTO  H175 1342   1.738  10.122   3.005
    3CHTO   C97 1343   1.622   9.857   3.180
    3CHTO  H184 1344   1.717   9.807   3.204
    3CHTO   O64 1345   1.528   9.845   3.288
    3CHTO  C104 1346   1.583   9.892   3.411
    3CHTO  H191 1347   1.674   9.837   3.435
    3CHTO  C108 1348   1.485   9.865   3.524
    3CHTO   O71 1349   1.450   9.725   3.522
    3CHTO  H171 1350   1.386   9.707   3.589
    3CHTO   O62 1351   1.565   9.803   3.060
    3CHTO   C91 1352   1.582   9.660   3.046
    3CHTO  H178 1353   1.691   9.641   3.043
    3CHTO   C92 1354   1.528   9.621   2.908
    3CHTO  H179 1355   1.575   9.682   2.829
    3CHTO   O66 1356   1.564   9.486   2.882
    3CHTO  H166 1357   1.538   9.458   2.795
    3CHTO   C93 1358   1.374   9.634   2.903
    3CHTO  H180 1359   1.337   9.573   2.819
    3CHTO   N16 1360   1.331   9.773   2.877
    3CHTO  H172 1361   1.360   9.837   2.959
    3CHTO  H173 1362   1.224   9.775   2.864
    3CHTO   C94 1363   1.312   9.581   3.036
    3CHTO  H181 1364   1.287   9.661   3.104
    3CHTO   O61 1365   1.408   9.493   3.098
    3CHTO   C95 1366   1.516   9.570   3.153
    3CHTO  H182 1367   1.479   9.631   3.235
    3CHTO  C106 1368   1.620   9.471   3.213
    3CHTO   O69 1369   1.552   9.396   3.315
    3CHTO  H169 1370   1.613   9.338   3.360
    3CHTO   O63 1371   1.195   9.506   2.996
    3CHTO   C96 1372   1.113   9.465   3.106
    3CHTO  H183 1373   1.093   9.553   3.169
    3CHTO   C98 1374   1.175   9.355   3.195
    3CHTO  H185 1375   1.268   9.391   3.244
    3CHTO   O67 1376   1.083   9.328   3.301
    3CHTO  H167 1377   1.123   9.266   3.360
    3CHTO  C102 1378   1.201   9.226   3.112
    3CHTO  H189 1379   1.206   9.143   3.185
    3CHTO   N18 1380   1.329   9.226   3.040
    3CHTO  H176 1381   1.411   9.242   3.110
    3CHTO  H177 1382   1.333   9.300   2.962
    3CHTO  C105 1383   1.084   9.201   3.016
    3CHTO  H192 1384   1.111   9.236   2.916
    3CHTO   O65 1385   0.966   9.271   3.060
    3CHTO  C100 1386   0.979   9.413   3.049
    3CHTO  H187 1387   0.976   9.439   2.941
    3CHTO  C107 1388   0.858   9.480   3.117
    3CHTO   O70 1389   0.869   9.465   3.258
    3CHTO  H170 1390   0.800   9.511   3.304
    3CHTO   O57 1391   1.068   9.058   3.019
    3CHTO   C85 1392   0.955   9.006   2.949
    3CHTO  H157 1393   0.862   9.041   2.998
    3CHTO   C83 1394   0.960   8.853   2.966
    3CHTO  H155 1395   0.964   8.826   3.073
    3CHTO   O56 1396   1.080   8.805   2.904
    3CHTO  H135 1397   1.157   8.843   2.944
    3CHTO   C81 1398   0.836   8.788   2.902
    3CHTO  H153 1399   0.749   8.808   2.965
    3CHTO   N14 1400   0.854   8.642   2.894
    3CHTO  H141 1401   0.864   8.603   2.993
    3CHTO  H142 1402   0.944   8.618   2.837
    3CHTO   C79 1403   0.811   8.846   2.761
    3CHTO  H151 1404   0.726   8.917   2.770
    3CHTO   O52 1405   0.927   8.919   2.714
    3CHTO   C86 1406   0.955   9.036   2.796
    3CHTO  H158 1407   1.056   9.067   2.763
    3CHTO   C90 1408   0.860   9.152   2.762
    3CHTO   O60 1409   0.840   9.153   2.620
    3CHTO  H138 1410   0.780   9.223   2.597
    3CHTO   O50 1411   0.776   8.742   2.669
    3CHTO   C73 1412   0.750   8.786   2.534
    3CHTO  H145 1413   0.834   8.846   2.495
    3CHTO   C74 1414   0.619   8.864   2.522
    3CHTO  H146 1415   0.626   8.959   2.579
    3CHTO   O54 1416   0.597   8.899   2.385
    3CHTO  H133 1417   0.516   8.948   2.378
    3CHTO   C75 1418   0.505   8.775   2.575
    3CHTO  H147 1419   0.525   8.748   2.680
    3CHTO   N13 1420   0.375   8.846   2.566
    3CHTO  H139 1421   0.379   8.935   2.627
    3CHTO  H140 1422   0.297   8.782   2.604
    3CHTO   C76 1423   0.502   8.646   2.488
    3CHTO  H148 1424   0.479   8.677   2.385
    3CHTO   O49 1425   0.629   8.577   2.493
    3CHTO   C77 1426   0.738   8.657   2.449
    3CHTO  H149 1427   0.725   8.684   2.344
    3CHTO   C88 1428   0.868   8.575   2.457
    3CHTO   O58 1429   0.857   8.458   2.373
    3CHTO  H136 1430   0.937   8.407   2.372
    3CHTO   O51 1431   0.402   8.558   2.544
    3CHTO   C78 1432   0.385   8.436   2.469
    3CHTO  H150 1433   0.482   8.399   2.430
    3CHTO   C80 1434   0.288   8.456   2.352
    3CHTO  H152 1435   0.194   8.500   2.390
    3CHTO   O55 1436   0.347   8.542   2.254
    3CHTO  H134 1437   0.286   8.562   2.184
    3CHTO   C84 1438   0.259   8.319   2.286
    3CHTO  H156 1439   0.351   8.281   2.241
    3CHTO   N15 1440   0.159   8.336   2.179
    3CHTO  H143 1441   0.067   8.373   2.222
    3CHTO  H144 1442   0.140   8.240   2.134
    3CHTO   C87 1443   0.208   8.220   2.393
    3CHTO  H159 1444   0.113   8.258   2.434
    3CHTO   O53 1445   0.308   8.208   2.496
    3CHTO   C82 1446   0.329   8.331   2.566
    3CHTO  H154 1447   0.235   8.365   2.611
    3CHTO   C89 1448   0.429   8.308   2.682
    3CHTO   O59 1449   0.376   8.206   2.767
    3CHTO  H137 1450   0.436   8.189   2.837
    3CHTO   O45 1451   0.188   8.093   2.328
    3CHTO   C67 1452   0.176   7.985   2.423
    3CHTO  H124 1453   0.270   7.975   2.479
    3CHTO   C65 1454   0.061   8.012   2.523
    3CHTO  H122 1455  -0.018   8.065   2.469
    3CHTO   O44 1456   0.116   8.094   2.628
    3CHTO  H102 1457   0.050   8.123   2.689
    3CHTO   C63 1458   0.002   7.879   2.572
    3CHTO  H120 1459  -0.077   7.847   2.502
    3CHTO   N11 1460  -0.067   7.889   2.703
    3CHTO  H108 1461  -0.142   7.965   2.699
    3CHTO  H109 1462   0.004   7.913   2.781
    3CHTO   C61 1463   0.111   7.770   2.576
    3CHTO  H118 1464   0.065   7.679   2.617
    3CHTO   O40 1465   0.157   7.739   2.445
    3CHTO   C68 1466   0.152   7.850   2.353
    3CHTO  H125 1467   0.053   7.852   2.304
    3CHTO   C72 1468   0.257   7.825   2.240
    3CHTO   O48 1469   0.249   7.923   2.136
    3CHTO  H105 1470   0.311   7.902   2.068
    3CHTO   O38 1471   0.225   7.807   2.656
    3CHTO   C55 1472   0.301   7.692   2.693
    3CHTO  H112 1473   0.297   7.617   2.613
    3CHTO   C56 1474   0.254   7.633   2.829
    3CHTO  H113 1475   0.270   7.711   2.906
    3CHTO   O42 1476   0.113   7.603   2.830
    3CHTO  H100 1477   0.085   7.578   2.917
    3CHTO   C57 1478   0.336   7.507   2.863
    3CHTO  H114 1479   0.318   7.431   2.786
    3CHTO   N10 1480   0.299   7.453   2.995
    3CHTO  H106 1481   0.379   7.394   3.036
    3CHTO  H107 1482   0.210   7.394   2.989
    3CHTO   C58 1483   0.484   7.545   2.862
    3CHTO  H115 1484   0.505   7.612   2.947
    3CHTO   O37 1485   0.524   7.606   2.739
    3CHTO   C59 1486   0.450   7.727   2.713
    3CHTO  H116 1487   0.464   7.798   2.796
    3CHTO   C70 1488   0.508   7.786   2.584
    3CHTO   O46 1489   0.650   7.804   2.595
    3CHTO  H103 1490   0.683   7.844   2.516
    3CHTO   O39 1491   0.557   7.421   2.879
    3CHTO   C60 1492   0.698   7.432   2.856
    3CHTO  H117 1493   0.716   7.463   2.753
    3CHTO   C62 1494   0.766   7.530   2.952
    3CHTO  H119 1495   0.732   7.632   2.926
    3CHTO   O43 1496   0.726   7.499   3.086
    3CHTO  H101 1497   0.758   7.564   3.148
    3CHTO   C66 1498   0.919   7.519   2.932
    3CHTO  H123 1499   0.944   7.551   2.830
    3CHTO   N12 1500   0.992   7.607   3.024
    3CHTO  H110 1501   0.987   7.569   3.125
    3CHTO  H111 1502   0.954   7.707   3.018
    3CHTO   C69 1503   0.964   7.373   2.953
    3CHTO  H126 1504   0.938   7.341   3.055
    3CHTO   O41 1505   0.902   7.292   2.854
    3CHTO   C64 1506   0.758   7.290   2.872
    3CHTO  H121 1507   0.734   7.252   2.973
    3CHTO   C71 1508   0.695   7.194   2.768
    3CHTO   O47 1509   0.759   7.066   2.783
    3CHTO  H104 1510   0.723   7.004   2.722
    3CHTO   O34 1511   1.108   7.377   2.939
    3CHTO   C49 1512   1.177   7.266   3.000
    3CHTO   H91 1513   1.151   7.263   3.107
    3CHTO   C47 1514   1.326   7.296   2.981
    3CHTO   H89 1515   1.383   7.211   3.023
    3CHTO   O33 1516   1.367   7.418   3.046
    3CHTO   H70 1517   1.353   7.411   3.139
    3CHTO   C45 1518   1.354   7.310   2.828
    3CHTO   H87 1519   1.342   7.415   2.796
    3CHTO    N8 1520   1.492   7.269   2.802
    3CHTO   H75 1521   1.559   7.324   2.867
    3CHTO   H76 1522   1.519   7.287   2.699
    3CHTO   C43 1523   1.255   7.223   2.746
    3CHTO   H85 1524   1.164   7.282   2.731
    3CHTO   O29 1525   1.231   7.103   2.819
    3CHTO   C50 1526   1.149   7.129   2.935
    3CHTO   H92 1527   1.043   7.125   2.906
    3CHTO   C54 1528   1.165   7.014   3.037
    3CHTO   O36 1529   1.126   6.890   2.974
    3CHTO   H72 1530   1.133   6.819   3.036
    3CHTO   O27 1531   1.312   7.195   2.618
    3CHTO   C37 1532   1.237   7.101   2.538
    3CHTO   H79 1533   1.227   7.004   2.590
    3CHTO   C38 1534   1.096   7.153   2.507
    3CHTO   H80 1535   1.102   7.258   2.471
    3CHTO   O31 1536   1.016   7.146   2.624
    3CHTO   H68 1537   0.928   7.178   2.610
    3CHTO   C39 1538   1.027   7.064   2.400
    3CHTO   H81 1539   1.013   6.964   2.443
    3CHTO    N7 1540   0.895   7.118   2.363
    3CHTO   H73 1541   0.842   7.049   2.300
    3CHTO   H74 1542   0.905   7.213   2.314
    3CHTO   C40 1543   1.115   7.049   2.273
    3CHTO   H82 1544   1.130   7.147   2.226
    3CHTO   O26 1545   1.239   6.990   2.316
    3CHTO   C41 1546   1.312   7.078   2.405
    3CHTO   H83 1547   1.330   7.175   2.355
    3CHTO   C52 1548   1.448   7.010   2.430
    3CHTO   O35 1549   1.516   6.982   2.306
    3CHTO   H71 1550   1.605   6.951   2.322
    3CHTO   O28 1551   1.050   6.961   2.180
    3CHTO   C42 1552   1.118   6.942   2.055
    3CHTO   H84 1553   1.058   6.865   2.002
    3CHTO   C44 1554   1.260   6.884   2.062
    3CHTO   H86 1555   1.328   6.961   2.104
    3CHTO   O32 1556   1.263   6.769   2.146
    3CHTO   H69 1557   1.352   6.738   2.157
    3CHTO   C48 1558   1.307   6.852   1.918
    3CHTO   H90 1559   1.240   6.778   1.873
    3CHTO    N9 1560   1.444   6.792   1.921
    3CHTO   H77 1561   1.517   6.865   1.948
    3CHTO   H78 1562   1.468   6.749   1.825
    3CHTO   C51 1563   1.303   6.984   1.836
    3CHTO   H93 1564   1.371   7.055   1.882
    3CHTO   O30 1565   1.169   7.029   1.832
    3CHTO   C46 1566   1.120   7.066   1.963
    3CHTO   H88 1567   1.184   7.144   2.007
    3CHTO   C53 1568   0.977   7.120   1.940
    3CHTO   O72 1569   0.921   7.166   2.065
    3CHTO  H199 1570   0.833   7.199   2.052
    3CHTO   O22 1571   1.345   6.952   1.701
    3CHTO   C31 1572   1.358   7.065   1.610
    3CHTO   H59 1573   1.384   7.021   1.512
    3CHTO   C29 1574   1.231   7.149   1.588
    3CHTO   H57 1575   1.204   7.201   1.681
    3CHTO   O21 1576   1.120   7.066   1.554
    3CHTO   H37 1577   1.139   7.018   1.473
    3CHTO   C27 1578   1.258   7.252   1.477
    3CHTO   H55 1579   1.280   7.197   1.383
    3CHTO    N5 1580   1.141   7.338   1.457
    3CHTO   H43 1581   1.114   7.391   1.546
    3CHTO   H44 1582   1.055   7.281   1.422
    3CHTO   C25 1583   1.379   7.338   1.517
    3CHTO   H53 1584   1.353   7.392   1.610
    3CHTO   O17 1585   1.495   7.255   1.542
    3CHTO   C32 1586   1.474   7.161   1.647
    3CHTO   H60 1587   1.448   7.213   1.740
    3CHTO   C36 1588   1.605   7.083   1.666
    3CHTO   O25 1589   1.707   7.174   1.709
    3CHTO   H40 1590   1.788   7.127   1.726
    3CHTO   O15 1591   1.404   7.431   1.410
    3CHTO   C19 1592   1.507   7.529   1.439
    3CHTO   H47 1593   1.513   7.587   1.345
    3CHTO   C20 1594   1.474   7.627   1.552
    3CHTO   H48 1595   1.469   7.577   1.650
    3CHTO   O19 1596   1.347   7.688   1.524
    3CHTO   H35 1597   1.325   7.751   1.592
    3CHTO   C21 1598   1.584   7.736   1.557
    3CHTO   H49 1599   1.584   7.791   1.462
    3CHTO    N4 1600   1.558   7.831   1.665
    3CHTO   H41 1601   1.634   7.909   1.663
    3CHTO   H42 1602   1.562   7.781   1.761
    3CHTO   C22 1603   1.719   7.666   1.576
    3CHTO   H50 1604   1.718   7.612   1.672
    3CHTO   O14 1605   1.745   7.576   1.467
    3CHTO   C23 1606   1.649   7.470   1.461
    3CHTO   H51 1607   1.655   7.414   1.556
    3CHTO   C34 1608   1.688   7.379   1.344
    3CHTO   O23 1609   1.818   7.326   1.370
    3CHTO   H38 1610   1.850   7.274   1.297
    3CHTO   O16 1611   1.819   7.768   1.576
    3CHTO   C24 1612   1.945   7.720   1.624
    3CHTO   H52 1613   1.961   7.614   1.598
    3CHTO   C26 1614   1.955   7.738   1.776
    3CHTO   H54 1615   1.927   7.842   1.802
    3CHTO   O20 1616   1.867   7.648   1.847
    3CHTO   H36 1617   1.872   7.666   1.941
    3CHTO   C30 1618   2.099   7.713   1.822
    3CHTO   H58 1619   2.129   7.609   1.805
    3CHTO    N6 1620   2.111   7.739   1.968
    3CHTO   H45 1621   2.100   7.844   1.986
    3CHTO   H46 1622   2.209   7.709   1.999
    3CHTO   C33 1623   2.193   7.805   1.742
    3CHTO   H61 1624   2.166   7.910   1.756
    3CHTO   O18 1625   2.184   7.773   1.604
    3CHTO   C28 1626   2.053   7.801   1.550
    3CHTO   H56 1627   2.030   7.908   1.560
    3CHTO   C35 1628   2.056   7.762   1.401
    3CHTO   O24 1629   2.148   7.843   1.327
    3CHTO   H39 1630   2.145   7.818   1.236
    3CHTO    O9 1631   2.327   7.792   1.791
    3CHTO   C13 1632   2.425   7.856   1.706
    3CHTO   H26 1633   2.382   7.945   1.657
    3CHTO   C11 1634   2.474   7.750   1.602
    3CHTO   H24 1635   2.406   7.747   1.516
    3CHTO    O8 1636   2.470   7.624   1.669
    3CHTO    H3 1637   2.494   7.553   1.612
    3CHTO    C9 1638   2.615   7.786   1.555
    3CHTO   H22 1639   2.608   7.888   1.517
    3CHTO    N2 1640   2.661   7.701   1.443
    3CHTO   H10 1641   2.588   7.704   1.362
    3CHTO   H11 1642   2.679   7.599   1.474
    3CHTO    C7 1643   2.713   7.780   1.676
    3CHTO   H20 1644   2.781   7.864   1.659
    3CHTO    O4 1645   2.645   7.796   1.800
    3CHTO   C14 1646   2.545   7.899   1.794
    3CHTO   H27 1647   2.590   7.992   1.752
    3CHTO   C18 1648   2.499   7.932   1.937
    3CHTO   O13 1649   2.394   8.029   1.931
    3CHTO    H7 1650   2.364   8.052   2.019
    3CHTO    O2 1651   2.786   7.656   1.679
    3CHTO    C1 1652   2.875   7.642   1.791
    3CHTO   H14 1653   2.818   7.646   1.886
    3CHTO    C2 1654   2.988   7.749   1.795
    3CHTO   H15 1655   3.036   7.753   1.696
    3CHTO    O6 1656   2.935   7.878   1.831
    3CHTO    H1 1657   3.004   7.942   1.832
    3CHTO    C3 1658   3.091   7.713   1.905
    3CHTO   H16 1659   3.042   7.718   2.005
    3CHTO    N1 1660   3.202   7.809   1.905
    3CHTO    H8 1661   3.252   7.806   1.809
    3CHTO    H9 1662   3.272   7.788   1.983
    3CHTO    C4 1663   3.139   7.566   1.889
    3CHTO   H17 1664   3.200   7.559   1.798
    3CHTO    O1 1665   3.028   7.476   1.886
    3CHTO    C5 1666   2.939   7.502   1.778
    3CHTO   H18 1667   2.993   7.496   1.683
    3CHTO   C16 1668   2.831   7.390   1.781
    3CHTO   O11 1669   2.900   7.265   1.789
    3CHTO    H5 1670   2.837   7.193   1.787
    3CHTO    O3 1671   3.218   7.534   2.005
    3CHTO    C6 1672   3.271   7.400   2.002
    3CHTO   H19 1673   3.203   7.329   1.953
    3CHTO    C8 1674   3.409   7.396   1.934
    3CHTO   H21 1675   3.476   7.469   1.983
    3CHTO    O7 1676   3.396   7.425   1.795
    3CHTO    H2 1677   3.480   7.421   1.750
    3CHTO   C12 1678   3.468   7.254   1.950
    3CHTO   H25 1679   3.401   7.185   1.893
    3CHTO    N3 1680   3.601   7.252   1.886
    3CHTO   H12 1681   3.636   7.151   1.871
    3CHTO   H13 1682   3.672   7.308   1.944
    3CHTO   C15 1683   3.471   7.212   2.098
    3CHTO   H28 1684   3.540   7.274   2.155
    3CHTO   O10 1685   3.508   7.073   2.113
    3CHTO    H4 1686   3.598   7.058   2.085
    3CHTO    O5 1687   3.339   7.219   2.154
    3CHTO   C10 1688   3.289   7.354   2.148
    3CHTO   H23 1689   3.358   7.419   2.200
    3CHTO   C17 1690   3.155   7.356   2.224
    3CHTO   O12 1691   3.175   7.310   2.357
    3CHTO    H6 1692   3.093   7.307   2.405
    4CHTO  H203 1693   7.924   2.175   6.891
    4CHTO   O82 1694   7.855   2.153   6.830
    4CHTO  C123 1695   7.727   2.183   6.884
    4CHTO  H227 1696   7.722   2.291   6.907
    4CHTO   O77 1697   7.630   2.148   6.784
    4CHTO  C118 1698   7.497   2.183   6.823
    4CHTO  H222 1699   7.490   2.291   6.844
    4CHTO  C125 1700   7.396   2.148   6.709
    4CHTO   O84 1701   7.434   2.220   6.592
    4CHTO  H205 1702   7.379   2.197   6.519
    4CHTO  C114 1703   7.455   2.105   6.949
    4CHTO  H218 1704   7.454   1.997   6.925
    4CHTO  C116 1705   7.558   2.129   7.063
    4CHTO  H220 1706   7.553   2.234   7.098
    4CHTO   O79 1707   7.531   2.043   7.175
    4CHTO  H201 1708   7.594   2.056   7.244
    4CHTO  C120 1709   7.700   2.097   7.010
    4CHTO  H224 1710   7.702   1.989   6.985
    4CHTO   N21 1711   7.796   2.122   7.116
    4CHTO  H211 1712   7.812   2.228   7.129
    4CHTO  H212 1713   7.890   2.072   7.096
    4CHTO   O75 1714   7.325   2.152   6.980
    4CHTO  C112 1715   7.259   2.077   7.085
    4CHTO  H216 1716   7.309   2.094   7.181
    4CHTO   O73 1717   7.255   1.939   7.047
    4CHTO  C113 1718   7.183   1.860   7.142
    4CHTO  H217 1719   7.228   1.874   7.242
    4CHTO  C124 1720   7.199   1.713   7.104
    4CHTO   O83 1721   7.338   1.681   7.084
    4CHTO  H204 1722   7.347   1.590   7.055
    4CHTO  C109 1723   7.034   1.902   7.148
    4CHTO  H213 1724   6.993   1.890   7.045
    4CHTO  C110 1725   7.032   2.050   7.190
    4CHTO  H214 1726   7.073   2.060   7.291
    4CHTO   O78 1727   6.898   2.100   7.189
    4CHTO  H200 1728   6.896   2.192   7.212
    4CHTO  C111 1729   7.114   2.130   7.089
    4CHTO  H215 1730   7.068   2.121   6.989
    4CHTO   N19 1731   7.117   2.273   7.124
    4CHTO  H207 1732   7.166   2.328   7.045
    4CHTO  H208 1733   7.168   2.288   7.217
    4CHTO   O74 1734   6.958   1.817   7.237
    4CHTO  C115 1735   6.815   1.821   7.214
    4CHTO  H219 1736   6.788   1.905   7.152
    4CHTO   O76 1737   6.769   1.705   7.144
    4CHTO  C122 1738   6.817   1.583   7.205
    4CHTO  H226 1739   6.923   1.574   7.181
    4CHTO  C126 1740   6.747   1.460   7.141
    4CHTO   O85 1741   6.606   1.456   7.168
    4CHTO  H206 1742   6.562   1.535   7.141
    4CHTO  C121 1743   6.799   1.585   7.360
    4CHTO  H225 1744   6.760   1.488   7.394
    4CHTO   O81 1745   6.928   1.609   7.420
    4CHTO  H202 1746   6.989   1.540   7.401
    4CHTO  C119 1747   6.700   1.697   7.398
    4CHTO  H223 1748   6.611   1.675   7.338
    4CHTO  C117 1749   6.745   1.837   7.351
    4CHTO  H221 1750   6.813   1.890   7.419
    4CHTO   N20 1751   6.629   1.926   7.334
    4CHTO  H209 1752   6.574   1.933   7.427
    4CHTO  H210 1753   6.564   1.892   7.255
    4CHTO   O80 1754   6.646   1.695   7.531
    4CHTO  C103 1755   6.736   1.672   7.642
    4CHTO  H190 1756   6.791   1.578   7.628
    4CHTO  C101 1757   6.840   1.784   7.675
    4CHTO  H188 1758   6.790   1.882   7.684
    4CHTO   O68 1759   6.943   1.792   7.574
    4CHTO  H168 1760   6.998   1.869   7.586
    4CHTO   C99 1761   6.906   1.751   7.813
    4CHTO  H186 1762   6.960   1.654   7.806
    4CHTO   N17 1763   7.002   1.854   7.857
    4CHTO  H174 1764   6.955   1.951   7.853
    4CHTO  H175 1765   7.092   1.853   7.797
    4CHTO   C97 1766   6.801   1.734   7.923
    4CHTO  H184 1767   6.744   1.828   7.931
    4CHTO   O64 1768   6.716   1.625   7.885
    4CHTO  C104 1769   6.643   1.654   7.765
    4CHTO  H191 1770   6.584   1.744   7.779
    4CHTO  C108 1771   6.544   1.541   7.738
    4CHTO   O71 1772   6.463   1.521   7.855
    4CHTO  H171 1773   6.405   1.448   7.841
    4CHTO   O62 1774   6.867   1.704   8.046
    4CHTO   C91 1775   6.790   1.737   8.164
    4CHTO  H178 1776   6.772   1.845   8.161
    4CHTO   C92 1777   6.879   1.710   8.286
    4CHTO  H179 1778   6.975   1.764   8.276
    4CHTO   O66 1779   6.814   1.763   8.401
    4CHTO  H166 1780   6.869   1.754   8.479
    4CHTO   C93 1781   6.903   1.558   8.306
    4CHTO  H180 1782   6.935   1.542   8.410
    4CHTO   N16 1783   7.011   1.508   8.219
    4CHTO  H172 1784   6.983   1.516   8.115
    4CHTO  H173 1785   7.031   1.404   8.244
    4CHTO   C94 1786   6.770   1.481   8.280
    4CHTO  H181 1787   6.767   1.437   8.181
    4CHTO   O61 1788   6.660   1.572   8.295
    4CHTO   C95 1789   6.656   1.662   8.183
    4CHTO  H182 1790   6.631   1.606   8.093
    4CHTO  C106 1791   6.540   1.763   8.207
    4CHTO   O69 1792   6.419   1.686   8.218
    4CHTO  H169 1793   6.344   1.745   8.226
    4CHTO   O63 1794   6.765   1.380   8.384
    4CHTO   C96 1795   6.659   1.284   8.365
    4CHTO  H183 1796   6.665   1.246   8.263
    4CHTO   C98 1797   6.518   1.341   8.388
    4CHTO  H185 1798   6.494   1.421   8.315
    4CHTO   O67 1799   6.425   1.235   8.364
    4CHTO  H167 1800   6.337   1.270   8.370
    4CHTO  C102 1801   6.502   1.392   8.534
    4CHTO  H189 1802   6.394   1.393   8.555
    4CHTO   N18 1803   6.549   1.531   8.554
    4CHTO  H176 1804   6.498   1.598   8.486
    4CHTO  H177 1805   6.656   1.540   8.541
    4CHTO  C105 1806   6.572   1.296   8.631
    4CHTO  H192 1807   6.671   1.336   8.658
    4CHTO   O65 1808   6.589   1.167   8.571
    4CHTO  C100 1809   6.684   1.168   8.463
    4CHTO  H187 1810   6.784   1.180   8.508
    4CHTO  C107 1811   6.680   1.031   8.392
    4CHTO   O70 1812   6.558   1.020   8.319
    4CHTO  H170 1813   6.555   0.940   8.267
    4CHTO   O57 1814   6.484   1.294   8.745
    4CHTO   C85 1815   6.516   1.199   8.847
    4CHTO  H157 1816   6.506   1.096   8.807
    4CHTO   C83 1817   6.409   1.216   8.957
    4CHTO  H155 1818   6.308   1.205   8.915
    4CHTO   O56 1819   6.420   1.349   9.010
    4CHTO  H135 1820   6.406   1.414   8.943
    4CHTO   C81 1821   6.429   1.111   9.068
    4CHTO  H153 1822   6.398   1.013   9.031
    4CHTO   N14 1823   6.346   1.144   9.185
    4CHTO  H141 1824   6.242   1.141   9.155
    4CHTO  H142 1825   6.369   1.244   9.221
    4CHTO   C79 1826   6.578   1.105   9.110
    4CHTO  H151 1827   6.621   1.014   9.064
    4CHTO   O52 1828   6.651   1.219   9.059
    4CHTO   C86 1829   6.655   1.222   8.914
    4CHTO  H158 1830   6.692   1.324   8.891
    4CHTO   C90 1831   6.760   1.124   8.860
    4CHTO   O60 1832   6.874   1.128   8.947
    4CHTO  H138 1833   6.940   1.067   8.915
    4CHTO   O50 1834   6.590   1.096   9.253
    4CHTO   C73 1835   6.725   1.089   9.302
    4CHTO  H145 1836   6.786   1.172   9.263
    4CHTO   C74 1837   6.793   0.955   9.271
    4CHTO  H146 1838   6.805   0.943   9.162
    4CHTO   O54 1839   6.923   0.953   9.329
    4CHTO  H133 1840   6.965   0.871   9.307
    4CHTO   C75 1841   6.705   0.842   9.330
    4CHTO  H147 1842   6.604   0.847   9.285
    4CHTO   N13 1843   6.765   0.710   9.302
    4CHTO  H139 1844   6.771   0.695   9.196
    4CHTO  H140 1845   6.702   0.633   9.344
    4CHTO   C76 1846   6.696   0.867   9.483
    4CHTO  H148 1847   6.797   0.858   9.524
    4CHTO   O49 1848   6.639   0.997   9.513
    4CHTO   C77 1849   6.715   1.104   9.456
    4CHTO  H149 1850   6.815   1.106   9.499
    4CHTO   C88 1851   6.648   1.238   9.493
    4CHTO   O58 1852   6.644   1.252   9.637
    4CHTO  H136 1853   6.608   1.336   9.663
    4CHTO   O51 1854   6.605   0.768   9.537
    4CHTO   C78 1855   6.591   0.775   9.680
    4CHTO  H150 1856   6.592   0.880   9.716
    4CHTO   C80 1857   6.703   0.697   9.752
    4CHTO  H152 1858   6.707   0.595   9.710
    4CHTO   O55 1859   6.829   0.764   9.730
    4CHTO  H134 1860   6.901   0.714   9.768
    4CHTO   C84 1861   6.674   0.693   9.903
    4CHTO  H156 1862   6.679   0.794   9.943
    4CHTO   N15 1863   6.776   0.611   9.971
    4CHTO  H143 1864   6.772   0.511   9.933
    4CHTO  H144 1865   6.755   0.610  10.077
    4CHTO   C87 1866   6.534   0.635   9.927
    4CHTO  H159 1867   6.531   0.531   9.890
    4CHTO   O53 1868   6.437   0.716   9.858
    4CHTO   C82 1869   6.455   0.713   9.716
    4CHTO  H154 1870   6.448   0.610   9.679
    4CHTO   C89 1871   6.342   0.794   9.648
    4CHTO   O59 1872   6.217   0.737   9.688
    4CHTO  H137 1873   6.147   0.787   9.649
    4CHTO   O45 1874   6.509   0.638  10.069
    4CHTO   C67 1875   6.369   0.621  10.100
    4CHTO  H124 1876   6.311   0.704  10.058
    4CHTO   C65 1877   6.316   0.488  10.040
    4CHTO  H122 1878   6.396   0.414  10.045
    4CHTO   O44 1879   6.278   0.517   9.904
    4CHTO  H102 1880   6.253   0.438   9.856
    4CHTO   C63 1881   6.200   0.434  10.127
    4CHTO  H120 1882   6.242   0.372  10.207
    4CHTO   N11 1883   6.108   0.344  10.054
    4CHTO  H108 1884   6.163   0.264  10.009
    4CHTO  H109 1885   6.055   0.398   9.976
    4CHTO   C61 1886   6.122   0.552  10.191
    4CHTO  H118 1887   6.038   0.508  10.246
    4CHTO   O40 1888   6.204   0.621  10.284
    4CHTO   C68 1889   6.344   0.622  10.252
    4CHTO  H125 1890   6.391   0.532  10.297
    4CHTO   C72 1891   6.410   0.746  10.319
    4CHTO   O48 1892   6.552   0.746  10.305
    4CHTO  H105 1893   6.589   0.821  10.351
    4CHTO   O38 1894   6.073   0.646  10.094
    4CHTO   C55 1895   5.968   0.725  10.149
    4CHTO  H112 1896   5.986   0.742  10.256
    4CHTO   C56 1897   5.828   0.662  10.123
    4CHTO  H113 1898   5.814   0.657  10.014
    4CHTO   O42 1899   5.820   0.527  10.171
    4CHTO  H100 1900   5.738   0.486  10.145
    4CHTO   C57 1901   5.719   0.748  10.188
    4CHTO  H114 1902   5.734   0.751  10.297
    4CHTO   N10 1903   5.584   0.695  10.159
    4CHTO  H106 1904   5.510   0.772  10.168
    4CHTO  H107 1905   5.560   0.614  10.225
    4CHTO   C58 1906   5.731   0.891  10.133
    4CHTO  H115 1907   5.703   0.890  10.026
    4CHTO   O37 1908   5.862   0.944  10.150
    4CHTO   C59 1909   5.962   0.865  10.083
    4CHTO  H116 1910   5.939   0.857   9.976
    4CHTO   C70 1911   6.095   0.938  10.103
    4CHTO   O46 1912   6.086   1.074  10.057
    4CHTO  H103 1913   6.171   1.116  10.066
    4CHTO   O39 1914   5.637   0.971  10.207
    4CHTO   C60 1915   5.650   1.112  10.187
    4CHTO  H117 1916   5.749   1.144  10.221
    4CHTO   C62 1917   5.629   1.154  10.041
    4CHTO  H119 1918   5.714   1.115   9.982
    4CHTO   O43 1919   5.507   1.095   9.994
    4CHTO  H101 1920   5.495   1.109   9.900
    4CHTO   C66 1921   5.627   1.308  10.034
    4CHTO  H123 1922   5.725   1.347  10.065
    4CHTO   N12 1923   5.602   1.356   9.898
    4CHTO  H110 1924   5.499   1.337   9.869
    4CHTO  H111 1925   5.671   1.310   9.830
    4CHTO   C69 1926   5.517   1.362  10.129
    4CHTO  H126 1927   5.419   1.322  10.099
    4CHTO   O41 1928   5.551   1.325  10.263
    4CHTO   C64 1929   5.547   1.182  10.279
    4CHTO  H121 1930   5.446   1.144  10.253
    4CHTO   C71 1931   5.575   1.146  10.427
    4CHTO   O47 1932   5.481   1.219  10.507
    4CHTO  H104 1933   5.494   1.199  10.599
    4CHTO   O34 1934   5.520   1.505  10.109
    4CHTO   C49 1935   5.399   1.574  10.148
    4CHTO   H91 1936   5.315   1.531  10.092
    4CHTO   C47 1937   5.421   1.720  10.109
    4CHTO   H89 1938   5.331   1.777  10.141
    4CHTO   O33 1939   5.441   1.738   9.968
    4CHTO   H70 1940   5.364   1.709   9.921
    4CHTO   C45 1941   5.548   1.772  10.183
    4CHTO   H87 1942   5.638   1.755  10.122
    4CHTO    N8 1943   5.533   1.916  10.207
    4CHTO   H75 1944   5.510   1.965  10.113
    4CHTO   H76 1945   5.624   1.957  10.248
    4CHTO   C43 1946   5.567   1.696  10.318
    4CHTO   H85 1947   5.622   1.604  10.297
    4CHTO   O29 1948   5.438   1.673  10.373
    4CHTO   C50 1949   5.369   1.570  10.299
    4CHTO   H92 1950   5.398   1.471  10.339
    4CHTO   C54 1951   5.217   1.579  10.327
    4CHTO   O36 1952   5.194   1.563  10.468
    4CHTO   H72 1953   5.101   1.566  10.486
    4CHTO   O27 1954   5.647   1.777  10.406
    4CHTO   C37 1955   5.658   1.726  10.540
    4CHTO   H79 1956   5.559   1.716  10.587
    4CHTO   C38 1957   5.726   1.587  10.543
    4CHTO   H80 1958   5.817   1.590  10.480
    4CHTO   O31 1959   5.635   1.490  10.493
    4CHTO   H68 1960   5.673   1.403  10.492
    4CHTO   C39 1961   5.761   1.546  10.688
    4CHTO   H81 1962   5.667   1.535  10.744
    4CHTO    N7 1963   5.833   1.418  10.690
    4CHTO   H73 1964   5.845   1.384  10.792
    4CHTO   H74 1965   5.929   1.428  10.643
    4CHTO   C40 1966   5.845   1.656  10.759
    4CHTO   H82 1967   5.941   1.669  10.706
    4CHTO   O26 1968   5.766   1.776  10.758
    4CHTO   C41 1969   5.743   1.824  10.623
    4CHTO   H83 1970   5.841   1.841  10.574
    4CHTO   C52 1971   5.672   1.960  10.638
    4CHTO   O35 1972   5.748   2.050  10.721
    4CHTO   H71 1973   5.710   2.138  10.720
    4CHTO   O28 1974   5.870   1.616  10.895
    4CHTO   C42 1975   5.952   1.705  10.972
    4CHTO   H84 1976   5.951   1.662  11.074
    4CHTO   C44 1977   5.900   1.849  10.987
    4CHTO   H86 1978   5.909   1.901  10.891
    4CHTO   O32 1979   5.763   1.848  11.028
    4CHTO   H69 1980   5.729   1.937  11.031
    4CHTO   C48 1981   5.991   1.923  11.090
    4CHTO   H90 1982   5.986   1.871  11.186
    4CHTO    N9 1983   5.941   2.062  11.111
    4CHTO   H77 1984   5.959   2.122  11.024
    4CHTO   H78 1985   5.989   2.105  11.198
    4CHTO   C51 1986   6.136   1.920  11.035
    4CHTO   H93 1987   6.138   1.972  10.939
    4CHTO   O30 1988   6.177   1.785  11.025
    4CHTO   C46 1989   6.100   1.711  10.928
    4CHTO   H88 1990   6.108   1.759  10.829
    4CHTO   C53 1991   6.162   1.569  10.924
    4CHTO   O72 1992   6.096   1.489  10.825
    4CHTO  H199 1993   6.132   1.402  10.821
    4CHTO   O22 1994   6.220   1.986  11.133
    4CHTO   C31 1995   6.360   2.004  11.095
    4CHTO   H59 1996   6.408   2.051  11.183
    4CHTO   C29 1997   6.438   1.875  11.064
    4CHTO   H57 1998   6.399   1.828  10.973
    4CHTO   O21 1999   6.423   1.780  11.170
    4CHTO   H37 2000   6.456   1.816  11.251
    4CHTO   C27 2001   6.586   1.911  11.044
    4CHTO   H55 2002   6.625   1.953  11.139
    4CHTO    N5 2003   6.663   1.791  11.009
    4CHTO   H43 2004   6.627   1.745  10.919
    4CHTO   H44 2005   6.663   1.718  11.090
    4CHTO   C25 2006   6.597   2.015  10.931
    4CHTO   H53 2007   6.560   1.968  10.838
    4CHTO   O17 2008   6.519   2.132  10.961
    4CHTO   C32 2009   6.380   2.102  10.977
    4CHTO   H60 2010   6.340   2.056  10.885
    4CHTO   C36 2011   6.307   2.235  11.003
    4CHTO   O25 2012   6.321   2.320  10.889
    4CHTO   H40 2013   6.273   2.401  10.901
    4CHTO   O15 2014   6.737   2.048  10.916
    4CHTO   C19 2015   6.766   2.135  10.804
    4CHTO   H47 2016   6.875   2.151  10.812
    4CHTO   C20 2017   6.739   2.074  10.666
    4CHTO   H48 2018   6.632   2.058  10.648
    4CHTO   O19 2019   6.808   1.949  10.657
    4CHTO   H35 2020   6.794   1.909  10.571
    4CHTO   C21 2021   6.793   2.171  10.558
    4CHTO   H49 2022   6.902   2.182  10.571
    4CHTO    N4 2023   6.768   2.119  10.423
    4CHTO   H41 2024   6.811   2.186  10.350
    4CHTO   H42 2025   6.661   2.111  10.406
    4CHTO   C22 2026   6.725   2.307  10.577
    4CHTO   H50 2027   6.617   2.295  10.563
    4CHTO   O14 2028   6.754   2.360  10.708
    4CHTO   C23 2029   6.702   2.276  10.812
    4CHTO   H51 2030   6.592   2.272  10.799
    4CHTO   C34 2031   6.735   2.343  10.946
    4CHTO   O23 2032   6.673   2.471  10.949
    4CHTO   H38 2033   6.697   2.519  11.028
    4CHTO   O16 2034   6.779   2.395  10.480
    4CHTO   C24 2035   6.702   2.516  10.467
    4CHTO   H52 2036   6.657   2.546  10.563
    4CHTO   C26 2037   6.593   2.498  10.361
    4CHTO   H54 2038   6.638   2.457  10.268
    4CHTO   O20 2039   6.488   2.408  10.405
    4CHTO   H36 2040   6.425   2.395  10.335
    4CHTO   C30 2041   6.530   2.634  10.327
    4CHTO   H58 2042   6.478   2.676  10.414
    4CHTO    N6 2043   6.430   2.619  10.219
    4CHTO   H45 2044   6.481   2.595  10.128
    4CHTO   H46 2045   6.380   2.713  10.207
    4CHTO   C33 2046   6.642   2.731  10.286
    4CHTO   H61 2047   6.697   2.692  10.199
    4CHTO   O18 2048   6.732   2.748  10.395
    4CHTO   C28 2049   6.802   2.626  10.427
    4CHTO   H56 2050   6.862   2.592  10.342
    4CHTO   C35 2051   6.896   2.658  10.546
    4CHTO   O24 2052   6.996   2.753  10.509
    4CHTO   H39 2053   7.053   2.768  10.583
    4CHTO    O9 2054   6.586   2.855  10.244
    4CHTO   C13 2055   6.684   2.960  10.226
    4CHTO   H26 2056   6.780   2.918  10.193
    4CHTO   C11 2057   6.698   3.035  10.362
    4CHTO   H24 2058   6.770   2.983  10.427
    4CHTO    O8 2059   6.568   3.032  10.423
    4CHTO    H3 2060   6.568   3.073  10.508
    4CHTO    C9 2061   6.745   3.179  10.337
    4CHTO   H22 2062   6.839   3.168  10.280
    4CHTO    N2 2063   6.779   3.251  10.461
    4CHTO   H10 2064   6.850   3.192  10.520
    4CHTO   H11 2065   6.691   3.273  10.520
    4CHTO    C7 2066   6.639   3.254  10.253
    4CHTO   H20 2067   6.699   3.317  10.185
    4CHTO    O4 2068   6.556   3.165  10.179
    4CHTO   C14 2069   6.631   3.059  10.119
    4CHTO   H27 2070   6.718   3.101  10.062
    4CHTO   C18 2071   6.542   2.986  10.016
    4CHTO   O13 2072   6.614   2.875   9.962
    4CHTO    H7 2073   6.561   2.828   9.898
    4CHTO    O2 2074   6.556   3.338  10.336
    4CHTO    C1 2075   6.452   3.407  10.265
    4CHTO   H14 2076   6.384   3.335  10.216
    4CHTO    C2 2077   6.506   3.507  10.158
    4CHTO   H15 2078   6.583   3.571  10.204
    4CHTO    O6 2079   6.560   3.437  10.045
    4CHTO    H1 2080   6.592   3.499   9.981
    4CHTO    C3 2081   6.388   3.593  10.103
    4CHTO   H16 2082   6.317   3.528  10.049
    4CHTO    N1 2083   6.439   3.693  10.008
    4CHTO    H8 2084   6.508   3.759  10.058
    4CHTO    H9 2085   6.358   3.751   9.966
    4CHTO    C4 2086   6.308   3.657  10.219
    4CHTO   H17 2087   6.371   3.733  10.268
    4CHTO    O1 2088   6.264   3.557  10.312
    4CHTO    C5 2089   6.372   3.486  10.371
    4CHTO   H18 2090   6.440   3.555  10.422
    4CHTO   C16 2091   6.310   3.390  10.476
    4CHTO   O11 2092   6.222   3.468  10.558
    4CHTO    H5 2093   6.185   3.414  10.627
    4CHTO    O3 2094   6.192   3.719  10.162
    4CHTO    C6 2095   6.108   3.783  10.260
    4CHTO   H19 2096   6.108   3.731  10.357
    4CHTO    C8 2097   6.148   3.931  10.279
    4CHTO   H21 2098   6.149   3.981  10.181
    4CHTO    O7 2099   6.277   3.938  10.341
    4CHTO    H2 2100   6.304   4.029  10.355
    4CHTO   C12 2101   6.045   3.999  10.371
    4CHTO   H25 2102   6.052   3.950  10.471
    4CHTO    N3 2103   6.084   4.140  10.387
    4CHTO   H12 2104   6.031   4.187  10.469
    4CHTO   H13 2105   6.067   4.195  10.296
    4CHTO   C15 2106   5.902   3.982  10.316
    4CHTO   H28 2107   5.890   4.034  10.221
    4CHTO   O10 2108   5.803   4.028  10.410
    4CHTO    H4 2109   5.809   4.123  10.423
    4CHTO    O5 2110   5.873   3.842  10.301
    4CHTO   C10 2111   5.963   3.780  10.207
    4CHTO   H23 2112   5.956   3.834  10.113
    4CHTO   C17 2113   5.915   3.636  10.185
    4CHTO   O12 2114   5.780   3.638  10.138
    4CHTO    H6 2115   5.746   3.549  10.127
    5CHTO  H203 2116   3.546   2.297  -0.087
    5CHTO   O82 2117   3.504   2.218  -0.053
    5CHTO  C123 2118   3.439   2.245   0.070
    5CHTO  H227 2119   3.362   2.323   0.054
    5CHTO   O77 2120   3.378   2.121   0.112
    5CHTO  C118 2121   3.300   2.137   0.231
    5CHTO  H222 2122   3.221   2.213   0.215
    5CHTO  C125 2123   3.232   2.002   0.269
    5CHTO   O84 2124   3.149   1.961   0.160
    5CHTO  H205 2125   3.111   1.876   0.177
    5CHTO  C114 2126   3.389   2.180   0.348
    5CHTO  H218 2127   3.461   2.100   0.369
    5CHTO  C116 2128   3.466   2.310   0.311
    5CHTO  H220 2129   3.397   2.396   0.303
    5CHTO   O79 2130   3.563   2.342   0.413
    5CHTO  H201 2131   3.612   2.420   0.390
    5CHTO  C120 2132   3.541   2.287   0.178
    5CHTO  H224 2133   3.616   2.207   0.195
    5CHTO   N21 2134   3.611   2.410   0.143
    5CHTO  H211 2135   3.542   2.484   0.105
    5CHTO  H212 2136   3.689   2.390   0.070
    5CHTO   O75 2137   3.299   2.197   0.457
    5CHTO  C112 2138   3.365   2.220   0.585
    5CHTO  H216 2139   3.416   2.318   0.585
    5CHTO   O73 2140   3.456   2.111   0.609
    5CHTO  C113 2141   3.518   2.122   0.737
    5CHTO  H217 2142   3.568   2.220   0.745
    5CHTO  C124 2143   3.625   2.013   0.748
    5CHTO   O83 2144   3.710   2.015   0.633
    5CHTO  H204 2145   3.774   1.944   0.638
    5CHTO  C109 2146   3.413   2.111   0.852
    5CHTO  H213 2147   3.362   2.013   0.838
    5CHTO  C110 2148   3.315   2.228   0.831
    5CHTO  H214 2149   3.367   2.323   0.843
    5CHTO   O78 2150   3.209   2.220   0.926
    5CHTO  H200 2151   3.146   2.290   0.913
    5CHTO  C111 2152   3.254   2.216   0.691
    5CHTO  H215 2153   3.198   2.120   0.683
    5CHTO   N19 2154   3.158   2.324   0.664
    5CHTO  H207 2155   3.110   2.307   0.570
    5CHTO  H208 2156   3.209   2.419   0.662
    5CHTO   O74 2157   3.476   2.113   0.982
    5CHTO  C115 2158   3.393   2.061   1.087
    5CHTO  H219 2159   3.289   2.053   1.056
    5CHTO   O76 2160   3.432   1.928   1.125
    5CHTO  C122 2161   3.574   1.919   1.150
    5CHTO  H226 2162   3.625   1.923   1.053
    5CHTO  C126 2163   3.608   1.781   1.213
    5CHTO   O85 2164   3.552   1.764   1.344
    5CHTO  H206 2165   3.459   1.776   1.344
    5CHTO  C121 2166   3.624   2.037   1.239
    5CHTO  H225 2167   3.693   1.999   1.317
    5CHTO   O81 2168   3.693   2.131   1.155
    5CHTO  H202 2169   3.770   2.093   1.115
    5CHTO  C119 2170   3.502   2.104   1.307
    5CHTO  H223 2171   3.452   2.022   1.358
    5CHTO  C117 2172   3.399   2.159   1.207
    5CHTO  H221 2173   3.419   2.260   1.169
    5CHTO   N20 2174   3.266   2.166   1.269
    5CHTO  H209 2175   3.269   2.228   1.357
    5CHTO  H210 2176   3.228   2.068   1.295
    5CHTO   O80 2177   3.530   2.193   1.417
    5CHTO  C103 2178   3.636   2.290   1.403
    5CHTO  H190 2179   3.731   2.241   1.378
    5CHTO  C101 2180   3.614   2.407   1.301
    5CHTO  H188 2181   3.518   2.456   1.318
    5CHTO   O68 2182   3.620   2.359   1.165
    5CHTO  H168 2183   3.593   2.426   1.102
    5CHTO   C99 2184   3.727   2.513   1.322
    5CHTO  H186 2185   3.826   2.467   1.302
    5CHTO   N17 2186   3.713   2.631   1.235
    5CHTO  H174 2187   3.613   2.671   1.243
    5CHTO  H175 2188   3.735   2.606   1.132
    5CHTO   C97 2189   3.731   2.562   1.467
    5CHTO  H184 2190   3.633   2.607   1.491
    5CHTO   O64 2191   3.758   2.449   1.551
    5CHTO  C104 2192   3.652   2.352   1.544
    5CHTO  H191 2193   3.558   2.399   1.574
    5CHTO  C108 2194   3.679   2.241   1.645
    5CHTO   O71 2195   3.700   2.300   1.775
    5CHTO  H171 2196   3.722   2.233   1.837
    5CHTO   O62 2197   3.836   2.658   1.481
    5CHTO   C91 2198   3.818   2.749   1.592
    5CHTO  H178 2199   3.724   2.804   1.574
    5CHTO   C92 2200   3.931   2.852   1.585
    5CHTO  H179 2201   3.934   2.900   1.485
    5CHTO   O66 2202   3.903   2.956   1.679
    5CHTO  H166 2203   3.968   3.026   1.674
    5CHTO   C93 2204   4.068   2.789   1.619
    5CHTO  H180 2205   4.137   2.869   1.647
    5CHTO   N16 2206   4.127   2.720   1.502
    5CHTO  H172 2207   4.066   2.637   1.473
    5CHTO  H173 2208   4.227   2.687   1.527
    5CHTO   C94 2209   4.052   2.690   1.738
    5CHTO  H181 2210   4.045   2.587   1.706
    5CHTO   O61 2211   3.932   2.725   1.810
    5CHTO   C95 2212   3.816   2.687   1.734
    5CHTO  H182 2213   3.812   2.578   1.727
    5CHTO  C106 2214   3.690   2.733   1.812
    5CHTO   O69 2215   3.693   2.667   1.939
    5CHTO  H169 2216   3.614   2.687   1.989
    5CHTO   O63 2217   4.168   2.713   1.822
    5CHTO   C96 2218   4.181   2.617   1.928
    5CHTO  H183 2219   4.173   2.517   1.884
    5CHTO   C98 2220   4.075   2.630   2.039
    5CHTO  H185 2221   3.974   2.612   2.001
    5CHTO   O67 2222   4.101   2.527   2.135
    5CHTO  H167 2223   4.033   2.529   2.200
    5CHTO  C102 2224   4.086   2.769   2.108
    5CHTO  H189 2225   4.040   2.758   2.208
    5CHTO   N18 2226   4.010   2.875   2.039
    5CHTO  H176 2227   3.906   2.847   2.029
    5CHTO  H177 2228   4.051   2.898   1.942
    5CHTO  C105 2229   4.233   2.809   2.125
    5CHTO  H192 2230   4.262   2.878   2.045
    5CHTO   O65 2231   4.318   2.693   2.119
    5CHTO  C100 2232   4.322   2.634   1.989
    5CHTO  H187 2233   4.380   2.702   1.923
    5CHTO  C107 2234   4.397   2.499   1.997
    5CHTO   O70 2235   4.317   2.404   2.065
    5CHTO  H170 2236   4.357   2.318   2.066
    5CHTO   O57 2237   4.235   2.874   2.254
    5CHTO   C85 2238   4.365   2.908   2.304
    5CHTO  H157 2239   4.423   2.816   2.322
    5CHTO   C83 2240   4.342   2.976   2.440
    5CHTO  H155 2241   4.283   2.910   2.507
    5CHTO   O56 2242   4.265   3.096   2.419
    5CHTO  H135 2243   4.181   3.076   2.379
    5CHTO   C81 2244   4.476   3.009   2.507
    5CHTO  H153 2245   4.522   2.916   2.543
    5CHTO   N14 2246   4.455   3.097   2.623
    5CHTO  H141 2247   4.394   3.045   2.695
    5CHTO  H142 2248   4.403   3.188   2.593
    5CHTO   C79 2249   4.572   3.076   2.407
    5CHTO  H151 2250   4.646   3.000   2.376
    5CHTO   O52 2251   4.500   3.121   2.289
    5CHTO   C86 2252   4.442   3.010   2.215
    5CHTO  H158 2253   4.374   3.059   2.144
    5CHTO   C90 2254   4.549   2.939   2.130
    5CHTO   O60 2255   4.637   3.039   2.076
    5CHTO  H138 2256   4.705   2.997   2.025
    5CHTO   O50 2257   4.640   3.186   2.468
    5CHTO   C73 2258   4.732   3.256   2.383
    5CHTO  H145 2259   4.684   3.288   2.289
    5CHTO   C74 2260   4.858   3.173   2.350
    5CHTO  H146 2261   4.830   3.084   2.291
    5CHTO   O54 2262   4.947   3.251   2.271
    5CHTO  H133 2263   5.024   3.199   2.250
    5CHTO   C75 2264   4.925   3.133   2.484
    5CHTO  H147 2265   4.852   3.075   2.544
    5CHTO   N13 2266   5.046   3.052   2.459
    5CHTO  H139 2267   5.018   2.962   2.407
    5CHTO  H140 2268   5.090   3.025   2.554
    5CHTO   C76 2269   4.961   3.264   2.559
    5CHTO  H148 2270   5.034   3.318   2.497
    5CHTO   O49 2271   4.844   3.346   2.582
    5CHTO   C77 2272   4.777   3.382   2.462
    5CHTO  H149 2273   4.842   3.443   2.399
    5CHTO   C88 2274   4.654   3.470   2.495
    5CHTO   O58 2275   4.698   3.589   2.564
    5CHTO  H136 2276   4.625   3.648   2.583
    5CHTO   O51 2277   5.014   3.227   2.688
    5CHTO   C78 2278   5.057   3.339   2.767
    5CHTO  H150 2279   4.990   3.427   2.753
    5CHTO   C80 2280   5.201   3.380   2.731
    5CHTO  H152 2281   5.266   3.291   2.737
    5CHTO   O55 2282   5.204   3.434   2.598
    5CHTO  H134 2283   5.293   3.454   2.571
    5CHTO   C84 2284   5.249   3.489   2.830
    5CHTO  H156 2285   5.189   3.579   2.816
    5CHTO   N15 2286   5.390   3.522   2.802
    5CHTO  H143 2287   5.450   3.435   2.816
    5CHTO  H144 2288   5.422   3.599   2.870
    5CHTO   C87 2289   5.233   3.438   2.974
    5CHTO  H159 2290   5.298   3.350   2.988
    5CHTO   O53 2291   5.095   3.406   2.997
    5CHTO   C82 2292   5.051   3.297   2.915
    5CHTO  H154 2293   5.112   3.208   2.932
    5CHTO   C89 2294   4.905   3.260   2.951
    5CHTO   O59 2295   4.902   3.227   3.091
    5CHTO  H137 2296   4.813   3.206   3.116
    5CHTO   O45 2297   5.275   3.544   3.063
    5CHTO   C67 2298   5.230   3.522   3.198
    5CHTO  H124 2299   5.121   3.522   3.202
    5CHTO   C65 2300   5.282   3.387   3.251
    5CHTO  H122 2301   5.381   3.370   3.208
    5CHTO   O44 2302   5.188   3.287   3.208
    5CHTO  H102 2303   5.217   3.199   3.229
    5CHTO   C63 2304   5.300   3.394   3.404
    5CHTO  H120 2305   5.401   3.432   3.427
    5CHTO   N11 2306   5.295   3.262   3.471
    5CHTO  H108 2307   5.367   3.196   3.427
    5CHTO  H109 2308   5.196   3.218   3.461
    5CHTO   C61 2309   5.196   3.491   3.466
    5CHTO  H118 2310   5.210   3.487   3.575
    5CHTO   O40 2311   5.219   3.624   3.423
    5CHTO   C68 2312   5.276   3.636   3.292
    5CHTO  H125 2313   5.386   3.632   3.301
    5CHTO   C72 2314   5.240   3.775   3.234
    5CHTO   O48 2315   5.305   3.802   3.110
    5CHTO  H105 2316   5.284   3.889   3.080
    5CHTO   O38 2317   5.060   3.455   3.432
    5CHTO   C55 2318   4.968   3.516   3.523
    5CHTO  H112 2319   5.006   3.614   3.555
    5CHTO   C56 2320   4.937   3.423   3.644
    5CHTO  H113 2321   4.891   3.331   3.605
    5CHTO   O42 2322   5.056   3.382   3.714
    5CHTO  H100 2323   5.036   3.317   3.780
    5CHTO   C57 2324   4.841   3.495   3.741
    5CHTO  H114 2325   4.889   3.585   3.780
    5CHTO   N10 2326   4.804   3.407   3.854
    5CHTO  H106 2327   4.710   3.438   3.897
    5CHTO  H107 2328   4.880   3.407   3.929
    5CHTO   C58 2329   4.716   3.535   3.663
    5CHTO  H115 2330   4.660   3.444   3.635
    5CHTO   O37 2331   4.747   3.613   3.547
    5CHTO   C59 2332   4.831   3.542   3.456
    5CHTO  H116 2333   4.784   3.448   3.425
    5CHTO   C70 2334   4.849   3.634   3.334
    5CHTO   O46 2335   4.722   3.672   3.280
    5CHTO  H103 2336   4.735   3.724   3.202
    5CHTO   O39 2337   4.636   3.614   3.754
    5CHTO   C60 2338   4.526   3.682   3.693
    5CHTO  H117 2339   4.564   3.752   3.618
    5CHTO   C62 2340   4.426   3.586   3.627
    5CHTO  H119 2341   4.475   3.540   3.540
    5CHTO   O43 2342   4.392   3.484   3.722
    5CHTO  H101 2343   4.338   3.416   3.682
    5CHTO   C66 2344   4.303   3.668   3.581
    5CHTO  H123 2345   4.334   3.739   3.504
    5CHTO   N12 2346   4.200   3.582   3.522
    5CHTO  H110 2347   4.151   3.522   3.598
    5CHTO  H111 2348   4.243   3.520   3.446
    5CHTO   C69 2349   4.243   3.744   3.702
    5CHTO  H126 2350   4.213   3.672   3.780
    5CHTO   O41 2351   4.341   3.836   3.749
    5CHTO   C64 2352   4.456   3.766   3.802
    5CHTO  H121 2353   4.425   3.699   3.884
    5CHTO   C71 2354   4.556   3.869   3.860
    5CHTO   O47 2355   4.484   3.949   3.956
    5CHTO  H104 2356   4.542   4.013   3.996
    5CHTO   O34 2357   4.126   3.809   3.649
    5CHTO   C49 2358   4.028   3.847   3.748
    5CHTO   H91 2359   3.998   3.757   3.802
    5CHTO   C47 2360   3.911   3.906   3.668
    5CHTO   H89 2361   3.835   3.939   3.741
    5CHTO   O33 2362   3.852   3.810   3.578
    5CHTO   H70 2363   3.817   3.737   3.628
    5CHTO   C45 2364   3.964   4.026   3.584
    5CHTO   H87 2365   3.997   3.992   3.485
    5CHTO    N8 2366   3.854   4.122   3.567
    5CHTO   H75 2367   3.768   4.071   3.526
    5CHTO   H76 2368   3.884   4.202   3.500
    5CHTO   C43 2369   4.084   4.093   3.655
    5CHTO   H85 2370   4.175   4.039   3.627
    5CHTO   O29 2371   4.060   4.090   3.796
    5CHTO   C50 2372   4.075   3.956   3.847
    5CHTO   H92 2373   4.182   3.938   3.871
    5CHTO   C54 2374   4.003   3.943   3.983
    5CHTO   O36 2375   4.060   4.038   4.075
    5CHTO   H72 2376   4.018   4.030   4.159
    5CHTO   O27 2377   4.096   4.229   3.609
    5CHTO   C37 2378   4.194   4.308   3.679
    5CHTO   H79 2379   4.171   4.313   3.787
    5CHTO   C38 2380   4.336   4.249   3.665
    5CHTO   H80 2381   4.355   4.225   3.558
    5CHTO   O31 2382   4.347   4.132   3.744
    5CHTO   H68 2383   4.432   4.091   3.737
    5CHTO   C39 2384   4.443   4.349   3.718
    5CHTO   H81 2385   4.426   4.361   3.826
    5CHTO    N7 2386   4.578   4.296   3.696
    5CHTO   H73 2387   4.651   4.359   3.745
    5CHTO   H74 2388   4.601   4.290   3.591
    5CHTO   C40 2389   4.428   4.488   3.651
    5CHTO   H82 2390   4.445   4.479   3.542
    5CHTO   O26 2391   4.296   4.535   3.681
    5CHTO   C41 2392   4.194   4.451   3.621
    5CHTO   H83 2393   4.210   4.446   3.512
    5CHTO   C52 2394   4.059   4.521   3.648
    5CHTO   O35 2395   4.060   4.656   3.599
    5CHTO   H71 2396   3.973   4.695   3.605
    5CHTO   O28 2397   4.524   4.578   3.707
    5CHTO   C42 2398   4.527   4.710   3.651
    5CHTO   H84 2399   4.600   4.765   3.713
    5CHTO   C44 2400   4.396   4.790   3.660
    5CHTO   H86 2401   4.322   4.746   3.591
    5CHTO   O32 2402   4.344   4.786   3.793
    5CHTO   H69 2403   4.259   4.829   3.797
    5CHTO   C48 2404   4.424   4.936   3.613
    5CHTO   H90 2405   4.500   4.981   3.679
    5CHTO    N9 2406   4.301   5.018   3.624
    5CHTO   H77 2407   4.229   4.989   3.551
    5CHTO   H78 2408   4.325   5.123   3.614
    5CHTO   C51 2409   4.478   4.929   3.468
    5CHTO   H93 2410   4.401   4.884   3.405
    5CHTO   O30 2411   4.599   4.855   3.468
    5CHTO   C46 2412   4.579   4.718   3.505
    5CHTO   H88 2413   4.507   4.670   3.438
    5CHTO   C53 2414   4.718   4.650   3.494
    5CHTO   O72 2415   4.707   4.510   3.523
    5CHTO  H199 2416   4.792   4.468   3.517
    5CHTO   O22 2417   4.507   5.065   3.426
    5CHTO   C31 2418   4.548   5.082   3.287
    5CHTO   H59 2419   4.570   5.189   3.276
    5CHTO   C29 2420   4.674   5.005   3.246
    5CHTO   H57 2421   4.656   4.896   3.247
    5CHTO   O21 2422   4.782   5.030   3.336
    5CHTO   H37 2423   4.802   5.123   3.338
    5CHTO   C27 2424   4.713   5.048   3.103
    5CHTO   H55 2425   4.737   5.156   3.104
    5CHTO    N5 2426   4.830   4.973   3.056
    5CHTO   H43 2427   4.813   4.866   3.056
    5CHTO   H44 2428   4.918   4.995   3.117
    5CHTO   C25 2429   4.594   5.021   3.009
    5CHTO   H53 2430   4.575   4.913   3.008
    5CHTO   O17 2431   4.476   5.091   3.054
    5CHTO   C32 2432   4.436   5.050   3.185
    5CHTO   H60 2433   4.416   4.942   3.187
    5CHTO   C36 2434   4.307   5.127   3.219
    5CHTO   O25 2435   4.204   5.089   3.129
    5CHTO   H40 2436   4.122   5.132   3.151
    5CHTO   O15 2437   4.632   5.065   2.877
    5CHTO   C19 2438   4.535   5.034   2.773
    5CHTO   H47 2439   4.581   5.078   2.683
    5CHTO   C20 2440   4.515   4.884   2.746
    5CHTO   H48 2441   4.467   4.833   2.831
    5CHTO   O19 2442   4.643   4.825   2.721
    5CHTO   H35 2443   4.632   4.731   2.702
    5CHTO   C21 2444   4.424   4.869   2.622
    5CHTO   H49 2445   4.475   4.913   2.535
    5CHTO    N4 2446   4.399   4.727   2.593
    5CHTO   H41 2447   4.341   4.719   2.502
    5CHTO   H42 2448   4.345   4.681   2.675
    5CHTO   C22 2449   4.293   4.943   2.648
    5CHTO   H50 2450   4.243   4.898   2.734
    5CHTO   O14 2451   4.318   5.083   2.671
    5CHTO   C23 2452   4.398   5.103   2.789
    5CHTO   H51 2453   4.341   5.062   2.875
    5CHTO   C34 2454   4.415   5.255   2.807
    5CHTO   O23 2455   4.286   5.313   2.823
    5CHTO   H38 2456   4.292   5.409   2.828
    5CHTO   O16 2457   4.214   4.931   2.530
    5CHTO   C24 2458   4.077   4.969   2.553
    5CHTO   H52 2459   4.069   5.049   2.628
    5CHTO   C26 2460   3.995   4.847   2.598
    5CHTO   H54 2461   4.013   4.764   2.527
    5CHTO   O20 2462   4.029   4.805   2.731
    5CHTO   H36 2463   3.980   4.726   2.753
    5CHTO   C30 2464   3.845   4.882   2.594
    5CHTO   H58 2465   3.821   4.960   2.666
    5CHTO    N6 2466   3.764   4.763   2.628
    5CHTO   H45 2467   3.772   4.691   2.549
    5CHTO   H46 2468   3.662   4.794   2.637
    5CHTO   C33 2469   3.810   4.934   2.453
    5CHTO   H61 2470   3.834   4.858   2.377
    5CHTO   O18 2471   3.884   5.052   2.426
    5CHTO   C28 2472   4.026   5.026   2.420
    5CHTO   H56 2473   4.048   4.956   2.339
    5CHTO   C35 2474   4.095   5.162   2.390
    5CHTO   O24 2475   4.057   5.213   2.262
    5CHTO   H39 2476   4.103   5.294   2.246
    5CHTO    O9 2477   3.669   4.956   2.443
    5CHTO   C13 2478   3.630   5.028   2.323
    5CHTO   H26 2479   3.698   5.002   2.240
    5CHTO   C11 2480   3.633   5.180   2.356
    5CHTO   H24 2481   3.734   5.220   2.343
    5CHTO    O8 2482   3.594   5.192   2.494
    5CHTO    H3 2483   3.596   5.281   2.523
    5CHTO    C9 2484   3.536   5.254   2.263
    5CHTO   H22 2485   3.568   5.227   2.162
    5CHTO    N2 2486   3.546   5.400   2.275
    5CHTO   H10 2487   3.649   5.432   2.261
    5CHTO   H11 2488   3.508   5.436   2.369
    5CHTO    C7 2489   3.391   5.203   2.289
    5CHTO   H20 2490   3.346   5.201   2.188
    5CHTO    O4 2491   3.390   5.073   2.347
    5CHTO   C14 2492   3.485   4.986   2.286
    5CHTO   H27 2493   3.474   4.988   2.176
    5CHTO   C18 2494   3.457   4.841   2.331
    5CHTO   O13 2495   3.558   4.755   2.278
    5CHTO    H7 2496   3.542   4.664   2.304
    5CHTO    O2 2497   3.318   5.294   2.373
    5CHTO    C1 2498   3.184   5.250   2.405
    5CHTO   H14 2499   3.187   5.154   2.458
    5CHTO    C2 2500   3.092   5.237   2.280
    5CHTO   H15 2501   3.099   5.330   2.220
    5CHTO    O6 2502   3.129   5.123   2.201
    5CHTO    H1 2503   3.072   5.117   2.125
    5CHTO    C3 2504   2.945   5.213   2.326
    5CHTO   H16 2505   2.938   5.115   2.377
    5CHTO    N1 2506   2.857   5.208   2.209
    5CHTO    H8 2507   2.860   5.302   2.157
    5CHTO    H9 2508   2.755   5.187   2.238
    5CHTO    C4 2509   2.902   5.319   2.430
    5CHTO   H17 2510   2.894   5.417   2.379
    5CHTO    O1 2511   2.993   5.323   2.539
    5CHTO    C5 2512   3.126   5.358   2.500
    5CHTO   H18 2513   3.126   5.454   2.448
    5CHTO   C16 2514   3.210   5.370   2.629
    5CHTO   O11 2515   3.138   5.455   2.719
    5CHTO    H5 2516   3.188   5.468   2.799
    5CHTO    O3 2517   2.774   5.279   2.481
    5CHTO    C6 2518   2.720   5.370   2.579
    5CHTO   H19 2519   2.799   5.417   2.640
    5CHTO    C8 2520   2.634   5.479   2.512
    5CHTO   H21 2521   2.557   5.431   2.450
    5CHTO    O7 2522   2.717   5.565   2.433
    5CHTO    H2 2523   2.666   5.635   2.392
    5CHTO   C12 2524   2.566   5.563   2.622
    5CHTO   H25 2525   2.647   5.615   2.678
    5CHTO    N3 2526   2.482   5.666   2.557
    5CHTO   H12 2527   2.452   5.742   2.626
    5CHTO   H13 2528   2.396   5.621   2.511
    5CHTO   C15 2529   2.486   5.473   2.718
    5CHTO   H28 2530   2.403   5.425   2.668
    5CHTO   O10 2531   2.438   5.547   2.833
    5CHTO    H4 2532   2.373   5.612   2.806
    5CHTO    O5 2533   2.573   5.374   2.776
    5CHTO   C10 2534   2.629   5.289   2.674
    5CHTO   H23 2535   2.548   5.244   2.618
    5CHTO   C17 2536   2.708   5.178   2.744
    5CHTO   O12 2537   2.621   5.107   2.832
    5CHTO    H6 2538   2.668   5.040   2.880
    6CHTO  H203 2539  -2.682   0.892   6.021
    6CHTO   O82 2540  -2.662   0.800   6.033
    6CHTO  C123 2541  -2.541   0.783   6.104
    6CHTO  H227 2542  -2.551   0.830   6.203
    6CHTO   O77 2543  -2.520   0.641   6.118
    6CHTO  C118 2544  -2.406   0.610   6.197
    6CHTO  H222 2545  -2.415   0.655   6.298
    6CHTO  C125 2546  -2.391   0.456   6.213
    6CHTO   O84 2547  -2.509   0.406   6.276
    6CHTO  H205 2548  -2.507   0.312   6.282
    6CHTO  C114 2549  -2.278   0.664   6.130
    6CHTO  H218 2550  -2.264   0.611   6.034
    6CHTO  C116 2551  -2.291   0.816   6.103
    6CHTO  H220 2552  -2.292   0.872   6.199
    6CHTO   O79 2553  -2.181   0.863   6.025
    6CHTO  H201 2554  -2.189   0.956   6.006
    6CHTO  C120 2555  -2.422   0.841   6.024
    6CHTO  H224 2556  -2.412   0.790   5.926
    6CHTO   N21 2557  -2.435   0.984   6.001
    6CHTO  H211 2558  -2.467   1.035   6.092
    6CHTO  H212 2559  -2.505   1.004   5.921
    6CHTO   O75 2560  -2.173   0.631   6.221
    6CHTO  C112 2561  -2.040   0.656   6.168
    6CHTO  H216 2562  -2.023   0.764   6.156
    6CHTO   O73 2563  -2.026   0.583   6.045
    6CHTO  C113 2564  -1.894   0.595   5.993
    6CHTO  H217 2565  -1.870   0.702   5.980
    6CHTO  C124 2566  -1.891   0.529   5.854
    6CHTO   O83 2567  -2.000   0.579   5.774
    6CHTO  H204 2568  -2.001   0.534   5.689
    6CHTO  C109 2569  -1.789   0.531   6.088
    6CHTO  H213 2570  -1.819   0.425   6.101
    6CHTO  C110 2571  -1.799   0.608   6.220
    6CHTO  H214 2572  -1.770   0.713   6.206
    6CHTO   O78 2573  -1.712   0.549   6.318
    6CHTO  H200 2574  -1.719   0.594   6.401
    6CHTO  C111 2575  -1.943   0.597   6.272
    6CHTO  H215 2576  -1.967   0.490   6.290
    6CHTO   N19 2577  -1.960   0.668   6.399
    6CHTO  H207 2578  -2.059   0.650   6.438
    6CHTO  H208 2579  -1.945   0.774   6.386
    6CHTO   O74 2580  -1.656   0.535   6.030
    6CHTO  C115 2581  -1.564   0.441   6.091
    6CHTO  H219 2582  -1.603   0.403   6.185
    6CHTO   O76 2583  -1.543   0.326   6.008
    6CHTO  C122 2584  -1.511   0.363   5.872
    6CHTO  H226 2585  -1.603   0.399   5.825
    6CHTO  C126 2586  -1.466   0.238   5.792
    6CHTO   O85 2587  -1.343   0.182   5.839
    6CHTO  H206 2588  -1.347   0.161   5.931
    6CHTO  C121 2589  -1.403   0.476   5.868
    6CHTO  H225 2590  -1.328   0.453   5.790
    6CHTO   O81 2591  -1.469   0.600   5.835
    6CHTO  H202 2592  -1.509   0.597   5.750
    6CHTO  C119 2593  -1.334   0.486   6.006
    6CHTO  H223 2594  -1.299   0.384   6.024
    6CHTO  C117 2595  -1.432   0.516   6.121
    6CHTO  H221 2596  -1.454   0.622   6.137
    6CHTO   N20 2597  -1.378   0.466   6.248
    6CHTO  H209 2598  -1.282   0.512   6.268
    6CHTO  H210 2599  -1.369   0.359   6.249
    6CHTO   O80 2600  -1.211   0.561   6.012
    6CHTO  C103 2601  -1.205   0.690   5.947
    6CHTO  H190 2602  -1.231   0.681   5.840
    6CHTO  C101 2603  -1.291   0.806   6.008
    6CHTO  H188 2604  -1.273   0.815   6.115
    6CHTO   O68 2605  -1.432   0.784   5.984
    6CHTO  H168 2606  -1.486   0.846   6.032
    6CHTO   C99 2607  -1.248   0.940   5.939
    6CHTO  H186 2608  -1.268   0.934   5.830
    6CHTO   N17 2609  -1.319   1.057   5.993
    6CHTO  H174 2610  -1.311   1.058   6.101
    6CHTO  H175 2611  -1.423   1.058   5.963
    6CHTO   C97 2612  -1.098   0.964   5.955
    6CHTO  H184 2613  -1.074   0.969   6.062
    6CHTO   O64 2614  -1.029   0.856   5.890
    6CHTO  C104 2615  -1.056   0.731   5.955
    6CHTO  H191 2616  -1.026   0.737   6.060
    6CHTO  C108 2617  -0.970   0.622   5.891
    6CHTO   O71 2618  -0.832   0.665   5.893
    6CHTO  H171 2619  -0.778   0.600   5.850
    6CHTO   O62 2620  -1.064   1.088   5.890
    6CHTO   C91 2621  -0.943   1.149   5.940
    6CHTO  H178 2622  -0.958   1.170   6.047
    6CHTO   C92 2623  -0.928   1.285   5.870
    6CHTO  H179 2624  -1.020   1.345   5.884
    6CHTO   O66 2625  -0.823   1.357   5.934
    6CHTO  H166 2626  -0.814   1.444   5.898
    6CHTO   C93 2627  -0.896   1.268   5.720
    6CHTO  H180 2628  -0.852   1.362   5.684
    6CHTO   N16 2629  -1.017   1.243   5.640
    6CHTO  H172 2630  -1.061   1.149   5.667
    6CHTO  H173 2631  -0.990   1.243   5.535
    6CHTO   C94 2632  -0.792   1.153   5.702
    6CHTO  H181 2633  -0.839   1.060   5.672
    6CHTO   O61 2634  -0.724   1.133   5.827
    6CHTO   C95 2635  -0.811   1.069   5.921
    6CHTO  H182 2636  -0.834   0.968   5.887
    6CHTO  C106 2637  -0.736   1.056   6.056
    6CHTO   O69 2638  -0.619   0.976   6.031
    6CHTO  H169 2639  -0.572   0.959   6.113
    6CHTO   O63 2640  -0.699   1.201   5.602
    6CHTO   C96 2641  -0.607   1.101   5.556
    6CHTO  H183 2642  -0.665   1.012   5.528
    6CHTO   C98 2643  -0.501   1.059   5.661
    6CHTO  H185 2644  -0.548   1.013   5.749
    6CHTO   O67 2645  -0.420   0.958   5.601
    6CHTO  H167 2646  -0.359   0.926   5.666
    6CHTO  C102 2647  -0.413   1.181   5.701
    6CHTO  H189 2648  -0.320   1.140   5.741
    6CHTO   N18 2649  -0.471   1.264   5.808
    6CHTO  H176 2650  -0.492   1.203   5.896
    6CHTO  H177 2651  -0.562   1.314   5.778
    6CHTO  C105 2652  -0.382   1.266   5.577
    6CHTO  H192 2653  -0.449   1.353   5.574
    6CHTO   O65 2654  -0.399   1.189   5.457
    6CHTO  C100 2655  -0.536   1.156   5.431
    6CHTO  H187 2656  -0.587   1.249   5.400
    6CHTO  C107 2657  -0.542   1.057   5.314
    6CHTO   O70 2658  -0.492   0.930   5.356
    6CHTO  H170 2659  -0.502   0.864   5.288
    6CHTO   O57 2660  -0.246   1.308   5.599
    6CHTO   C85 2661  -0.183   1.377   5.490
    6CHTO  H157 2662  -0.174   1.309   5.403
    6CHTO   C83 2663  -0.040   1.411   5.537
    6CHTO  H155 2664   0.013   1.319   5.570
    6CHTO   O56 2665  -0.049   1.498   5.651
    6CHTO  H135 2666  -0.097   1.457   5.722
    6CHTO   C81 2667   0.038   1.477   5.424
    6CHTO  H153 2668   0.064   1.402   5.348
    6CHTO   N14 2669   0.164   1.534   5.476
    6CHTO  H141 2670   0.225   1.454   5.515
    6CHTO  H142 2671   0.144   1.605   5.555
    6CHTO   C79 2672  -0.045   1.589   5.357
    6CHTO  H151 2673  -0.082   1.548   5.261
    6CHTO   O52 2674  -0.160   1.623   5.439
    6CHTO   C86 2675  -0.252   1.511   5.453
    6CHTO  H158 2676  -0.320   1.544   5.534
    6CHTO   C90 2677  -0.339   1.496   5.327
    6CHTO   O60 2678  -0.373   1.627   5.280
    6CHTO  H138 2679  -0.426   1.620   5.201
    6CHTO   O50 2680   0.035   1.705   5.332
    6CHTO   C73 2681  -0.034   1.815   5.270
    6CHTO  H145 2682  -0.125   1.841   5.326
    6CHTO   C74 2683  -0.070   1.786   5.123
    6CHTO  H146 2684  -0.143   1.703   5.117
    6CHTO   O54 2685  -0.132   1.902   5.066
    6CHTO  H133 2686  -0.155   1.883   4.976
    6CHTO   C75 2687   0.061   1.752   5.048
    6CHTO  H147 2688   0.108   1.664   5.095
    6CHTO   N13 2689   0.032   1.723   4.905
    6CHTO  H139 2690  -0.034   1.638   4.899
    6CHTO  H140 2691   0.125   1.699   4.855
    6CHTO   C76 2692   0.155   1.874   5.060
    6CHTO  H148 2693   0.106   1.959   5.010
    6CHTO   O49 2694   0.183   1.906   5.199
    6CHTO   C77 2695   0.065   1.935   5.273
    6CHTO  H149 2696   0.015   2.023   5.233
    6CHTO   C88 2697   0.102   1.968   5.419
    6CHTO   O58 2698   0.190   2.083   5.421
    6CHTO  H136 2699   0.212   2.109   5.510
    6CHTO   O51 2700   0.281   1.838   4.999
    6CHTO   C78 2701   0.377   1.945   4.999
    6CHTO  H150 2702   0.372   2.005   5.092
    6CHTO   C80 2703   0.357   2.039   4.878
    6CHTO  H152 2704   0.354   1.978   4.786
    6CHTO   O55 2705   0.233   2.110   4.893
    6CHTO  H134 2706   0.214   2.163   4.817
    6CHTO   C84 2707   0.472   2.141   4.872
    6CHTO  H156 2708   0.467   2.205   4.960
    6CHTO   N15 2709   0.458   2.225   4.752
    6CHTO  H143 2710   0.463   2.163   4.665
    6CHTO  H144 2711   0.539   2.296   4.749
    6CHTO   C87 2712   0.607   2.066   4.870
    6CHTO  H159 2713   0.612   2.005   4.779
    6CHTO   O53 2714   0.617   1.985   4.988
    6CHTO   C82 2715   0.517   1.882   4.991
    6CHTO  H154 2716   0.526   1.818   4.902
    6CHTO   C89 2717   0.539   1.791   5.115
    6CHTO   O59 2718   0.672   1.738   5.107
    6CHTO  H137 2719   0.688   1.684   5.182
    6CHTO   O45 2720   0.712   2.166   4.870
    6CHTO   C67 2721   0.839   2.109   4.905
    6CHTO  H124 2722   0.837   2.070   5.007
    6CHTO   C65 2723   0.876   1.994   4.809
    6CHTO  H122 2724   0.838   2.019   4.710
    6CHTO   O44 2725   0.814   1.875   4.861
    6CHTO  H102 2726   0.824   1.800   4.803
    6CHTO   C63 2727   1.030   1.983   4.796
    6CHTO  H120 2728   1.064   2.050   4.715
    6CHTO   N11 2729   1.077   1.849   4.755
    6CHTO  H108 2730   1.029   1.820   4.663
    6CHTO  H109 2731   1.055   1.775   4.832
    6CHTO   C61 2732   1.098   2.027   4.928
    6CHTO  H118 2733   1.206   2.012   4.915
    6CHTO   O40 2734   1.076   2.165   4.953
    6CHTO   C68 2735   0.951   2.216   4.902
    6CHTO  H125 2736   0.966   2.249   4.798
    6CHTO   C72 2737   0.911   2.341   4.985
    6CHTO   O48 2738   0.797   2.407   4.933
    6CHTO  H105 2739   0.778   2.485   4.983
    6CHTO   O38 2740   1.051   1.952   5.042
    6CHTO   C55 2741   1.144   1.963   5.151
    6CHTO  H112 2742   1.192   2.062   5.150
    6CHTO   C56 2743   1.249   1.847   5.148
    6CHTO  H113 2744   1.194   1.752   5.158
    6CHTO   O42 2745   1.319   1.840   5.023
    6CHTO  H100 2746   1.374   1.763   5.019
    6CHTO   C57 2747   1.349   1.865   5.264
    6CHTO  H114 2748   1.403   1.960   5.251
    6CHTO   N10 2749   1.445   1.754   5.269
    6CHTO  H106 2750   1.487   1.744   5.367
    6CHTO  H107 2751   1.524   1.769   5.198
    6CHTO   C58 2752   1.270   1.871   5.395
    6CHTO  H115 2753   1.225   1.771   5.414
    6CHTO   O37 2754   1.168   1.972   5.392
    6CHTO   C59 2755   1.072   1.949   5.287
    6CHTO  H116 2756   1.026   1.850   5.298
    6CHTO   C70 2757   0.966   2.059   5.302
    6CHTO   O46 2758   0.910   2.058   5.434
    6CHTO  H103 2759   0.842   2.123   5.439
    6CHTO   O39 2760   1.365   1.903   5.498
    6CHTO   C60 2761   1.308   1.937   5.624
    6CHTO  H117 2762   1.246   2.026   5.613
    6CHTO   C62 2763   1.223   1.823   5.684
    6CHTO  H119 2764   1.133   1.811   5.620
    6CHTO   O43 2765   1.301   1.702   5.680
    6CHTO  H101 2766   1.248   1.627   5.707
    6CHTO   C66 2767   1.181   1.863   5.827
    6CHTO  H123 2768   1.117   1.952   5.822
    6CHTO   N12 2769   1.105   1.757   5.893
    6CHTO  H110 2770   1.169   1.673   5.917
    6CHTO  H111 2771   1.023   1.726   5.830
    6CHTO   C69 2772   1.307   1.894   5.911
    6CHTO  H126 2773   1.373   1.805   5.914
    6CHTO   O41 2774   1.373   2.007   5.852
    6CHTO   C64 2775   1.423   1.974   5.720
    6CHTO  H121 2776   1.493   1.888   5.727
    6CHTO   C71 2777   1.501   2.095   5.664
    6CHTO   O47 2778   1.603   2.129   5.760
    6CHTO  H104 2779   1.654   2.202   5.728
    6CHTO   O34 2780   1.257   1.923   6.043
    6CHTO   C49 2781   1.354   1.908   6.149
    6CHTO   H91 2782   1.394   1.806   6.146
    6CHTO   C47 2783   1.277   1.934   6.278
    6CHTO   H89 2784   1.349   1.927   6.362
    6CHTO   O33 2785   1.171   1.839   6.300
    6CHTO   H70 2786   1.207   1.751   6.307
    6CHTO   C45 2787   1.214   2.076   6.270
    6CHTO   H87 2788   1.113   2.072   6.227
    6CHTO    N8 2789   1.203   2.130   6.407
    6CHTO   H75 2790   1.151   2.059   6.469
    6CHTO   H76 2791   1.150   2.224   6.407
    6CHTO   C43 2792   1.301   2.170   6.182
    6CHTO   H85 2793   1.270   2.155   6.078
    6CHTO   O29 2794   1.437   2.136   6.205
    6CHTO   C50 2795   1.470   2.010   6.144
    6CHTO   H92 2796   1.498   2.027   6.038
    6CHTO   C54 2797   1.598   1.953   6.208
    6CHTO   O36 2798   1.706   2.047   6.189
    6CHTO   H72 2799   1.786   2.011   6.226
    6CHTO   O27 2800   1.275   2.306   6.218
    6CHTO   C37 2801   1.361   2.403   6.155
    6CHTO   H79 2802   1.467   2.383   6.180
    6CHTO   C38 2803   1.347   2.400   6.002
    6CHTO   H80 2804   1.240   2.401   5.975
    6CHTO   O31 2805   1.410   2.283   5.951
    6CHTO   H68 2806   1.403   2.276   5.857
    6CHTO   C39 2807   1.420   2.521   5.938
    6CHTO   H81 2808   1.528   2.510   5.958
    6CHTO    N7 2809   1.400   2.523   5.792
    6CHTO   H73 2810   1.462   2.598   5.747
    6CHTO   H74 2811   1.296   2.540   5.768
    6CHTO   C40 2812   1.373   2.654   6.000
    6CHTO   H82 2813   1.266   2.669   5.980
    6CHTO   O26 2814   1.401   2.647   6.140
    6CHTO   C41 2815   1.323   2.543   6.206
    6CHTO   H83 2816   1.216   2.562   6.188
    6CHTO   C52 2817   1.352   2.557   6.356
    6CHTO   O35 2818   1.322   2.691   6.403
    6CHTO   H71 2819   1.328   2.695   6.498
    6CHTO   O28 2820   1.447   2.763   5.942
    6CHTO   C42 2821   1.410   2.895   5.985
    6CHTO   H84 2822   1.484   2.961   5.937
    6CHTO   C44 2823   1.422   2.922   6.137
    6CHTO   H86 2824   1.343   2.866   6.189
    6CHTO   O32 2825   1.550   2.880   6.185
    6CHTO   H69 2826   1.555   2.890   6.279
    6CHTO   C48 2827   1.398   3.073   6.161
    6CHTO   H90 2828   1.474   3.131   6.107
    6CHTO    N9 2829   1.413   3.105   6.305
    6CHTO   H77 2830   1.332   3.064   6.362
    6CHTO   H78 2831   1.419   3.212   6.320
    6CHTO   C51 2832   1.257   3.109   6.107
    6CHTO   H93 2833   1.183   3.050   6.163
    6CHTO   O30 2834   1.254   3.082   5.968
    6CHTO   C46 2835   1.270   2.942   5.938
    6CHTO   H88 2836   1.193   2.883   5.988
    6CHTO   C53 2837   1.258   2.930   5.784
    6CHTO   O72 2838   1.267   2.792   5.745
    6CHTO  H199 2839   1.260   2.783   5.651
    6CHTO   O22 2840   1.237   3.250   6.128
    6CHTO   C31 2841   1.104   3.302   6.093
    6CHTO   H59 2842   1.110   3.410   6.110
    6CHTO   C29 2843   1.060   3.281   5.948
    6CHTO   H57 2844   1.045   3.173   5.927
    6CHTO   O21 2845   1.160   3.327   5.856
    6CHTO   H37 2846   1.175   3.420   5.870
    6CHTO   C27 2847   0.927   3.356   5.926
    6CHTO   H55 2848   0.945   3.464   5.942
    6CHTO    N5 2849   0.878   3.334   5.789
    6CHTO   H43 2850   0.862   3.229   5.768
    6CHTO   H44 2851   0.946   3.375   5.715
    6CHTO   C25 2852   0.823   3.304   6.027
    6CHTO   H53 2853   0.807   3.197   6.007
    6CHTO   O17 2854   0.871   3.320   6.162
    6CHTO   C32 2855   0.992   3.249   6.187
    6CHTO   H60 2856   0.977   3.142   6.167
    6CHTO   C36 2857   1.029   3.270   6.334
    6CHTO   O25 2858   0.927   3.213   6.417
    6CHTO   H40 2859   0.950   3.221   6.509
    6CHTO   O15 2860   0.701   3.378   6.006
    6CHTO   C19 2861   0.588   3.331   6.084
    6CHTO   H47 2862   0.508   3.402   6.057
    6CHTO   C20 2863   0.540   3.190   6.051
    6CHTO   H48 2864   0.613   3.113   6.078
    6CHTO   O19 2865   0.514   3.183   5.910
    6CHTO   H35 2866   0.482   3.096   5.886
    6CHTO   C21 2867   0.409   3.163   6.129
    6CHTO   H49 2868   0.332   3.235   6.096
    6CHTO    N4 2869   0.359   3.028   6.102
    6CHTO   H41 2870   0.264   3.014   6.153
    6CHTO   H42 2871   0.430   2.954   6.138
    6CHTO   C22 2872   0.437   3.182   6.278
    6CHTO   H50 2873   0.513   3.110   6.309
    6CHTO   O14 2874   0.481   3.317   6.304
    6CHTO   C23 2875   0.606   3.345   6.237
    6CHTO   H51 2876   0.681   3.275   6.277
    6CHTO   C34 2877   0.646   3.489   6.275
    6CHTO   O23 2878   0.662   3.496   6.416
    6CHTO   H38 2879   0.680   3.585   6.444
    6CHTO   O16 2880   0.314   3.162   6.347
    6CHTO   C24 2881   0.334   3.146   6.488
    6CHTO   H52 2882   0.418   3.206   6.525
    6CHTO   C26 2883   0.356   2.998   6.523
    6CHTO   H54 2884   0.276   2.937   6.476
    6CHTO   O20 2885   0.484   2.950   6.477
    6CHTO   H36 2886   0.491   2.857   6.495
    6CHTO   C30 2887   0.347   2.979   6.675
    6CHTO   H58 2888   0.429   3.032   6.726
    6CHTO    N6 2889   0.360   2.835   6.709
    6CHTO   H45 2890   0.272   2.783   6.675
    6CHTO   H46 2891   0.367   2.827   6.816
    6CHTO   C33 2892   0.213   3.036   6.725
    6CHTO   H61 2893   0.129   2.986   6.676
    6CHTO   O18 2894   0.208   3.175   6.697
    6CHTO   C28 2895   0.207   3.202   6.555
    6CHTO   H56 2896   0.118   3.156   6.509
    6CHTO   C35 2897   0.200   3.355   6.538
    6CHTO   O24 2898   0.078   3.409   6.590
    6CHTO   H39 2899   0.077   3.502   6.576
    6CHTO    O9 2900   0.198   3.009   6.865
    6CHTO   C13 2901   0.087   3.080   6.925
    6CHTO   H26 2902   0.006   3.093   6.852
    6CHTO   C11 2903   0.141   3.217   6.977
    6CHTO   H24 2904   0.140   3.291   6.896
    6CHTO    O8 2905   0.276   3.194   7.018
    6CHTO    H3 2906   0.318   3.272   7.048
    6CHTO    C9 2907   0.054   3.265   7.093
    6CHTO   H22 2908  -0.048   3.268   7.052
    6CHTO    N2 2909   0.086   3.403   7.135
    6CHTO   H10 2910   0.083   3.470   7.049
    6CHTO   H11 2911   0.182   3.409   7.184
    6CHTO    C7 2912   0.063   3.165   7.210
    6CHTO   H20 2913  -0.039   3.162   7.251
    6CHTO    O4 2914   0.102   3.035   7.166
    6CHTO   C14 2915   0.036   2.997   7.045
    6CHTO   H27 2916  -0.074   3.012   7.056
    6CHTO   C18 2917   0.058   2.846   7.022
    6CHTO   O13 2918  -0.000   2.809   6.896
    6CHTO    H7 2919   0.012   2.716   6.880
    6CHTO    O2 2920   0.155   3.210   7.312
    6CHTO    C1 2921   0.171   3.119   7.422
    6CHTO   H14 2922   0.211   3.022   7.385
    6CHTO    C2 2923   0.040   3.094   7.502
    6CHTO   H15 2924  -0.005   3.191   7.528
    6CHTO    O6 2925  -0.051   3.013   7.427
    6CHTO    H1 2926  -0.131   2.999   7.477
    6CHTO    C3 2927   0.073   3.013   7.631
    6CHTO   H16 2928   0.110   2.912   7.604
    6CHTO    N1 2929  -0.048   2.996   7.712
    6CHTO    H8 2930  -0.086   3.092   7.742
    6CHTO    H9 2931  -0.028   2.936   7.800
    6CHTO    C4 2932   0.188   3.080   7.710
    6CHTO   H17 2933   0.151   3.176   7.752
    6CHTO    O1 2934   0.303   3.100   7.627
    6CHTO    C5 2935   0.276   3.183   7.515
    6CHTO   H18 2936   0.239   3.281   7.549
    6CHTO   C16 2937   0.412   3.204   7.442
    6CHTO   O11 2938   0.508   3.244   7.540
    6CHTO    H5 2939   0.591   3.261   7.498
    6CHTO    O3 2940   0.225   2.991   7.817
    6CHTO    C6 2941   0.331   3.042   7.900
    6CHTO   H19 2942   0.404   3.103   7.843
    6CHTO    C8 2943   0.275   3.123   8.018
    6CHTO   H21 2944   0.202   3.061   8.072
    6CHTO    O7 2945   0.214   3.243   7.970
    6CHTO    H2 2946   0.180   3.296   8.042
    6CHTO   C12 2947   0.392   3.160   8.112
    6CHTO   H25 2948   0.459   3.228   8.055
    6CHTO    N3 2949   0.336   3.236   8.226
    6CHTO   H12 2950   0.414   3.286   8.282
    6CHTO   H13 2951   0.279   3.172   8.291
    6CHTO   C15 2952   0.469   3.035   8.156
    6CHTO   H28 2953   0.407   2.969   8.217
    6CHTO   O10 2954   0.589   3.069   8.228
    6CHTO    H4 2955   0.568   3.110   8.312
    6CHTO    O5 2956   0.517   2.965   8.040
    6CHTO   C10 2957   0.408   2.921   7.957
    6CHTO   H23 2958   0.342   2.859   8.017
    6CHTO   C17 2959   0.467   2.834   7.845
    6CHTO   O12 2960   0.539   2.726   7.902
    6CHTO    H6 2961   0.580   2.672   7.835
    7CHTO  H203 2962  10.317   1.272   4.748
    7CHTO   O82 2963  10.262   1.220   4.805
    7CHTO  C123 2964  10.210   1.107   4.735
    7CHTO  H227 2965  10.295   1.045   4.699
    7CHTO   O77 2966  10.130   1.034   4.829
    7CHTO  C118 2967  10.080   0.912   4.774
    7CHTO  H222 2968  10.163   0.848   4.740
    7CHTO  C125 2969   9.998   0.834   4.881
    7CHTO   O84 2970  10.084   0.806   4.992
    7CHTO  H205 2971  10.036   0.764   5.062
    7CHTO  C114 2972   9.987   0.941   4.655
    7CHTO  H218 2973   9.899   0.997   4.691
    7CHTO  C116 2974  10.061   1.027   4.549
    7CHTO  H220 2975  10.142   0.968   4.501
    7CHTO   O79 2976   9.971   1.070   4.446
    7CHTO  H201 2977  10.015   1.124   4.382
    7CHTO  C120 2978  10.119   1.152   4.619
    7CHTO  H224 2979  10.033   1.212   4.657
    7CHTO   N21 2980  10.191   1.232   4.519
    7CHTO  H211 2981  10.286   1.186   4.496
    7CHTO  H212 2982  10.205   1.333   4.554
    7CHTO   O75 2983   9.949   0.813   4.606
    7CHTO  C112 2984   9.845   0.817   4.505
    7CHTO  H216 2985   9.883   0.862   4.412
    7CHTO   O73 2986   9.732   0.887   4.558
    7CHTO  C113 2987   9.622   0.887   4.467
    7CHTO  H217 2988   9.655   0.930   4.371
    7CHTO  C124 2989   9.512   0.978   4.524
    7CHTO   O83 2990   9.568   1.106   4.561
    7CHTO  H204 2991   9.500   1.160   4.600
    7CHTO  C109 2992   9.569   0.743   4.443
    7CHTO  H213 2993   9.540   0.702   4.542
    7CHTO  C110 2994   9.687   0.664   4.383
    7CHTO  H214 2995   9.715   0.706   4.285
    7CHTO   O78 2996   9.650   0.527   4.366
    7CHTO  H200 2997   9.723   0.476   4.331
    7CHTO  C111 2998   9.804   0.670   4.481
    7CHTO  H215 2999   9.775   0.623   4.577
    7CHTO   N19 3000   9.921   0.596   4.430
    7CHTO  H207 3001   9.997   0.594   4.506
    7CHTO  H208 3002   9.959   0.643   4.341
    7CHTO   O74 3003   9.452   0.743   4.357
    7CHTO  C115 3004   9.374   0.622   4.366
    7CHTO  H219 3005   9.430   0.542   4.414
    7CHTO   O76 3006   9.256   0.640   4.445
    7CHTO  C122 3007   9.182   0.757   4.403
    7CHTO  H226 3008   9.237   0.845   4.438
    7CHTO  C126 3009   9.044   0.760   4.475
    7CHTO   O85 3010   8.958   0.653   4.435
    7CHTO  H206 3011   8.998   0.568   4.448
    7CHTO  C121 3012   9.167   0.764   4.248
    7CHTO  H225 3013   9.063   0.792   4.222
    7CHTO   O81 3014   9.258   0.863   4.198
    7CHTO  H202 3015   9.238   0.949   4.231
    7CHTO  C119 3016   9.199   0.625   4.188
    7CHTO  H223 3017   9.132   0.557   4.242
    7CHTO  C117 3018   9.341   0.575   4.222
    7CHTO  H221 3019   9.421   0.610   4.154
    7CHTO   N20 3020   9.347   0.429   4.217
    7CHTO  H209 3021   9.317   0.394   4.119
    7CHTO  H210 3022   9.285   0.384   4.293
    7CHTO   O80 3023   9.161   0.602   4.051
    7CHTO  C103 3024   9.189   0.704   3.953
    7CHTO  H190 3025   9.145   0.800   3.983
    7CHTO  C101 3026   9.339   0.729   3.917
    7CHTO  H188 3027   9.389   0.635   3.892
    7CHTO   O68 3028   9.409   0.794   4.026
    7CHTO  H168 3029   9.503   0.797   4.010
    7CHTO   C99 3030   9.344   0.822   3.791
    7CHTO  H186 3031   9.297   0.920   3.814
    7CHTO   N17 3032   9.482   0.848   3.744
    7CHTO  H174 3033   9.534   0.754   3.732
    7CHTO  H175 3034   9.535   0.913   3.812
    7CHTO   C97 3035   9.265   0.762   3.674
    7CHTO  H184 3036   9.309   0.664   3.649
    7CHTO   O64 3037   9.129   0.750   3.716
    7CHTO  C104 3038   9.115   0.657   3.825
    7CHTO  H191 3039   9.154   0.560   3.795
    7CHTO  C108 3040   8.967   0.637   3.856
    7CHTO   O71 3041   8.899   0.600   3.735
    7CHTO  H171 3042   8.806   0.592   3.752
    7CHTO   O62 3043   9.273   0.851   3.562
    7CHTO   C91 3044   9.251   0.787   3.435
    7CHTO  H178 3045   9.329   0.711   3.422
    7CHTO   C92 3046   9.275   0.892   3.326
    7CHTO  H179 3047   9.375   0.938   3.338
    7CHTO   O66 3048   9.276   0.827   3.199
    7CHTO  H166 3049   9.297   0.887   3.129
    7CHTO   C93 3050   9.165   1.000   3.326
    7CHTO  H180 3051   9.165   1.051   3.228
    7CHTO   N16 3052   9.189   1.104   3.428
    7CHTO  H172 3053   9.184   1.062   3.527
    7CHTO  H173 3054   9.116   1.183   3.417
    7CHTO   C94 3055   9.026   0.933   3.348
    7CHTO  H181 3056   8.993   0.941   3.451
    7CHTO   O61 3057   9.036   0.795   3.312
    7CHTO   C95 3058   9.111   0.723   3.412
    7CHTO  H182 3059   9.055   0.722   3.505
    7CHTO  C106 3060   9.126   0.576   3.365
    7CHTO   O69 3061   8.993   0.523   3.352
    7CHTO  H169 3062   8.997   0.430   3.330
    7CHTO   O63 3063   8.936   1.002   3.257
    7CHTO   C96 3064   8.798   0.967   3.277
    7CHTO  H183 3065   8.775   0.978   3.383
    7CHTO   C98 3066   8.761   0.823   3.234
    7CHTO  H185 3067   8.815   0.748   3.295
    7CHTO   O67 3068   8.623   0.804   3.262
    7CHTO  H167 3069   8.600   0.714   3.243
    7CHTO  C102 3070   8.788   0.803   3.082
    7CHTO  H189 3071   8.725   0.718   3.051
    7CHTO   N18 3072   8.927   0.765   3.050
    7CHTO  H176 3073   8.955   0.676   3.105
    7CHTO  H177 3074   8.997   0.844   3.073
    7CHTO  C105 3075   8.746   0.928   3.004
    7CHTO  H192 3076   8.834   0.989   2.982
    7CHTO   O65 3077   8.653   1.007   3.081
    7CHTO  C100 3078   8.713   1.067   3.196
    7CHTO  H187 3079   8.779   1.148   3.160
    7CHTO  C107 3080   8.602   1.131   3.283
    7CHTO   O70 3081   8.526   1.028   3.345
    7CHTO  H170 3082   8.461   1.064   3.405
    7CHTO   O57 3083   8.688   0.874   2.884
    7CHTO   C85 3084   8.625   0.969   2.797
    7CHTO  H157 3085   8.537   1.013   2.848
    7CHTO   C83 3086   8.572   0.889   2.676
    7CHTO  H155 3087   8.507   0.807   2.710
    7CHTO   O56 3088   8.685   0.830   2.609
    7CHTO  H135 3089   8.733   0.772   2.667
    7CHTO   C81 3090   8.494   0.981   2.581
    7CHTO  H153 3091   8.398   1.006   2.627
    7CHTO   N14 3092   8.468   0.912   2.454
    7CHTO  H141 3093   8.407   0.825   2.474
    7CHTO  H142 3094   8.561   0.879   2.408
    7CHTO   C79 3095   8.573   1.112   2.554
    7CHTO  H151 3096   8.525   1.191   2.614
    7CHTO   O52 3097   8.711   1.098   2.598
    7CHTO   C86 3098   8.721   1.078   2.741
    7CHTO  H158 3099   8.827   1.048   2.755
    7CHTO   C90 3100   8.705   1.211   2.816
    7CHTO   O60 3101   8.770   1.314   2.741
    7CHTO  H138 3102   8.759   1.398   2.785
    7CHTO   O50 3103   8.567   1.147   2.415
    7CHTO   C73 3104   8.637   1.267   2.380
    7CHTO  H145 3105   8.741   1.264   2.415
    7CHTO   C74 3106   8.568   1.394   2.434
    7CHTO  H146 3107   8.570   1.394   2.544
    7CHTO   O54 3108   8.640   1.509   2.389
    7CHTO  H133 3109   8.598   1.587   2.423
    7CHTO   C75 3110   8.423   1.395   2.380
    7CHTO  H147 3111   8.371   1.304   2.414
    7CHTO   N13 3112   8.351   1.515   2.429
    7CHTO  H139 3113   8.348   1.513   2.536
    7CHTO  H140 3114   8.250   1.514   2.390
    7CHTO   C76 3115   8.431   1.396   2.225
    7CHTO  H148 3116   8.481   1.489   2.195
    7CHTO   O49 3117   8.503   1.281   2.175
    7CHTO   C77 3118   8.636   1.273   2.225
    7CHTO  H149 3119   8.694   1.359   2.192
    7CHTO   C88 3120   8.706   1.148   2.167
    7CHTO   O58 3121   8.709   1.158   2.023
    7CHTO  H136 3122   8.755   1.085   1.983
    7CHTO   O51 3123   8.296   1.387   2.175
    7CHTO   C78 3124   8.288   1.392   2.031
    7CHTO  H150 3125   8.372   1.338   1.983
    7CHTO   C80 3126   8.286   1.537   1.980
    7CHTO  H152 3127   8.207   1.593   2.034
    7CHTO   O55 3128   8.414   1.598   2.005
    7CHTO  H134 3129   8.413   1.690   1.981
    7CHTO   C84 3130   8.259   1.538   1.828
    7CHTO  H156 3131   8.343   1.491   1.777
    7CHTO   N15 3132   8.249   1.677   1.781
    7CHTO  H143 3133   8.167   1.725   1.830
    7CHTO  H144 3134   8.231   1.676   1.674
    7CHTO   C87 3135   8.130   1.461   1.798
    7CHTO  H159 3136   8.045   1.512   1.847
    7CHTO   O53 3137   8.143   1.326   1.847
    7CHTO   C82 3138   8.157   1.322   1.990
    7CHTO  H154 3139   8.071   1.369   2.038
    7CHTO   C89 3140   8.161   1.174   2.037
    7CHTO   O59 3141   8.040   1.111   1.992
    7CHTO  H137 3142   8.042   1.020   2.019
    7CHTO   O45 3143   8.112   1.460   1.655
    7CHTO   C67 3144   8.016   1.361   1.614
    7CHTO  H124 3145   8.052   1.260   1.639
    7CHTO   C65 3146   7.880   1.384   1.683
    7CHTO  H122 3147   7.866   1.492   1.695
    7CHTO   O44 3148   7.887   1.317   1.811
    7CHTO  H102 3149   7.810   1.334   1.865
    7CHTO   C63 3150   7.765   1.333   1.593
    7CHTO  H120 3151   7.735   1.414   1.525
    7CHTO   N11 3152   7.642   1.299   1.667
    7CHTO  H108 3153   7.610   1.383   1.726
    7CHTO  H109 3154   7.659   1.214   1.733
    7CHTO   C61 3155   7.813   1.213   1.508
    7CHTO  H118 3156   7.726   1.178   1.451
    7CHTO   O40 3157   7.913   1.253   1.416
    7CHTO   C68 3158   7.996   1.362   1.460
    7CHTO  H125 3159   7.948   1.457   1.431
    7CHTO   C72 3160   8.132   1.355   1.386
    7CHTO   O48 3161   8.215   1.467   1.413
    7CHTO  H105 3162   8.295   1.462   1.362
    7CHTO   O38 3163   7.866   1.105   1.589
    7CHTO   C55 3164   7.867   0.983   1.514
    7CHTO  H112 3165   7.887   1.004   1.408
    7CHTO   C56 3166   7.736   0.902   1.534
    7CHTO  H113 3167   7.728   0.877   1.642
    7CHTO   O42 3168   7.619   0.979   1.502
    7CHTO  H100 3169   7.539   0.932   1.526
    7CHTO   C57 3170   7.740   0.774   1.450
    7CHTO  H114 3171   7.746   0.800   1.344
    7CHTO   N10 3172   7.620   0.690   1.472
    7CHTO  H106 3173   7.640   0.588   1.447
    7CHTO  H107 3174   7.538   0.727   1.414
    7CHTO   C58 3175   7.866   0.695   1.488
    7CHTO  H115 3176   7.853   0.657   1.592
    7CHTO   O37 3177   7.985   0.774   1.478
    7CHTO   C59 3178   7.980   0.890   1.563
    7CHTO  H116 3179   7.966   0.860   1.667
    7CHTO   C70 3180   8.116   0.959   1.547
    7CHTO   O46 3181   8.224   0.868   1.576
    7CHTO  H103 3182   8.306   0.914   1.570
    7CHTO   O39 3183   7.873   0.584   1.396
    7CHTO   C60 3184   7.997   0.512   1.401
    7CHTO  H117 3185   8.079   0.579   1.373
    7CHTO   C62 3186   8.025   0.450   1.539
    7CHTO  H119 3187   8.045   0.532   1.609
    7CHTO   O43 3188   7.909   0.377   1.581
    7CHTO  H101 3189   7.918   0.346   1.670
    7CHTO   C66 3190   8.150   0.359   1.527
    7CHTO  H123 3191   8.237   0.422   1.501
    7CHTO   N12 3192   8.180   0.292   1.653
    7CHTO  H110 3193   8.107   0.215   1.674
    7CHTO  H111 3194   8.186   0.364   1.733
    7CHTO   C69 3195   8.127   0.254   1.417
    7CHTO  H126 3196   8.038   0.192   1.442
    7CHTO   O41 3197   8.111   0.322   1.291
    7CHTO   C64 3198   7.991   0.402   1.292
    7CHTO  H121 3199   7.902   0.337   1.312
    7CHTO   C71 3200   7.971   0.466   1.153
    7CHTO   O47 3201   7.973   0.360   1.056
    7CHTO  H104 3202   7.960   0.395   0.969
    7CHTO   O34 3203   8.245   0.172   1.419
    7CHTO   C49 3204   8.230   0.040   1.362
    7CHTO   H91 3205   8.149  -0.011   1.414
    7CHTO   C47 3206   8.364  -0.030   1.384
    7CHTO   H89 3207   8.357  -0.131   1.338
    7CHTO   O33 3208   8.396  -0.045   1.524
    7CHTO   H70 3209   8.330  -0.098   1.567
    7CHTO   C45 3210   8.476   0.054   1.317
    7CHTO   H87 3211   8.517   0.127   1.388
    7CHTO    N8 3212   8.584  -0.036   1.275
    7CHTO   H75 3213   8.614  -0.097   1.360
    7CHTO   H76 3214   8.668   0.020   1.238
    7CHTO   C43 3215   8.420   0.132   1.195
    7CHTO   H85 3216   8.377   0.226   1.232
    7CHTO   O29 3217   8.323   0.049   1.131
    7CHTO   C50 3218   8.203   0.040   1.210
    7CHTO   H92 3219   8.138   0.125   1.185
    7CHTO   C54 3220   8.122  -0.084   1.167
    7CHTO   O36 3221   8.089  -0.073   1.027
    7CHTO   H72 3222   8.038  -0.147   1.000
    7CHTO   O27 3223   8.528   0.163   1.106
    7CHTO   C37 3224   8.487   0.221   0.980
    7CHTO   H79 3225   8.420   0.153   0.926
    7CHTO   C38 3226   8.413   0.355   1.000
    7CHTO   H80 3227   8.471   0.419   1.070
    7CHTO   O31 3228   8.283   0.330   1.052
    7CHTO   H68 3229   8.234   0.409   1.067
    7CHTO   C39 3230   8.394   0.428   0.865
    7CHTO   H81 3231   8.328   0.367   0.802
    7CHTO    N7 3232   8.331   0.560   0.885
    7CHTO   H73 3233   8.305   0.603   0.790
    7CHTO   H74 3234   8.396   0.625   0.940
    7CHTO   C40 3235   8.528   0.444   0.790
    7CHTO   H82 3236   8.597   0.507   0.849
    7CHTO   O26 3237   8.581   0.313   0.769
    7CHTO   C41 3238   8.613   0.247   0.894
    7CHTO   H83 3239   8.685   0.309   0.951
    7CHTO   C52 3240   8.682   0.114   0.857
    7CHTO   O35 3241   8.796   0.136   0.771
    7CHTO   H71 3242   8.845   0.056   0.758
    7CHTO   O28 3243   8.505   0.507   0.663
    7CHTO   C42 3244   8.622   0.534   0.584
    7CHTO   H84 3245   8.582   0.573   0.488
    7CHTO   C44 3246   8.709   0.413   0.547
    7CHTO   H86 3247   8.760   0.376   0.637
    7CHTO   O32 3248   8.627   0.308   0.493
    7CHTO   H69 3249   8.679   0.230   0.477
    7CHTO   C48 3250   8.816   0.459   0.445
    7CHTO   H90 3251   8.767   0.499   0.355
    7CHTO    N9 3252   8.900   0.344   0.403
    7CHTO   H77 3253   8.963   0.311   0.483
    7CHTO   H78 3254   8.960   0.370   0.317
    7CHTO   C51 3255   8.901   0.571   0.513
    7CHTO   H93 3256   8.948   0.529   0.602
    7CHTO   O30 3257   8.814   0.679   0.543
    7CHTO   C46 3258   8.714   0.645   0.641
    7CHTO   H88 3259   8.762   0.609   0.733
    7CHTO   C53 3260   8.634   0.774   0.667
    7CHTO   O72 3261   8.535   0.752   0.768
    7CHTO  H199 3262   8.485   0.830   0.785
    7CHTO   O22 3263   8.999   0.615   0.417
    7CHTO   C31 3264   9.096   0.713   0.465
    7CHTO   H59 3265   9.158   0.739   0.378
    7CHTO   C29 3266   9.037   0.845   0.518
    7CHTO   H57 3267   8.980   0.827   0.610
    7CHTO   O21 3268   8.946   0.902   0.423
    7CHTO   H37 3269   8.992   0.920   0.342
    7CHTO   C27 3270   9.153   0.942   0.548
    7CHTO   H55 3271   9.206   0.963   0.453
    7CHTO    N5 3272   9.101   1.067   0.604
    7CHTO   H43 3273   9.046   1.052   0.696
    7CHTO   H44 3274   9.038   1.120   0.533
    7CHTO   C25 3275   9.249   0.876   0.648
    7CHTO   H53 3276   9.193   0.858   0.742
    7CHTO   O17 3277   9.297   0.750   0.597
    7CHTO   C32 3278   9.192   0.657   0.572
    7CHTO   H60 3279   9.136   0.637   0.664
    7CHTO   C36 3280   9.258   0.526   0.524
    7CHTO   O25 3281   9.339   0.473   0.628
    7CHTO   H40 3282   9.377   0.389   0.601
    7CHTO   O15 3283   9.357   0.968   0.672
    7CHTO   C19 3284   9.450   0.926   0.776
    7CHTO   H47 3285   9.526   1.006   0.776
    7CHTO   C20 3286   9.390   0.918   0.917
    7CHTO   H48 3287   9.316   0.838   0.926
    7CHTO   O19 3288   9.329   1.044   0.947
    7CHTO   H35 3289   9.292   1.043   1.035
    7CHTO   C21 3290   9.505   0.891   1.017
    7CHTO   H49 3291   9.576   0.975   1.014
    7CHTO    N4 3292   9.453   0.881   1.154
    7CHTO   H41 3293   9.536   0.868   1.223
    7CHTO   H42 3294   9.386   0.796   1.162
    7CHTO   C22 3295   9.576   0.762   0.976
    7CHTO   H50 3296   9.504   0.679   0.980
    7CHTO   O14 3297   9.630   0.775   0.843
    7CHTO   C23 3298   9.527   0.795   0.745
    7CHTO   H51 3299   9.461   0.706   0.748
    7CHTO   C34 3300   9.595   0.803   0.608
    7CHTO   O23 3301   9.664   0.681   0.584
    7CHTO   H38 3302   9.713   0.684   0.502
    7CHTO   O16 3303   9.683   0.742   1.066
    7CHTO   C24 3304   9.738   0.609   1.058
    7CHTO   H52 3305   9.732   0.569   0.955
    7CHTO   C26 3306   9.664   0.515   1.154
    7CHTO   H54 3307   9.660   0.561   1.255
    7CHTO   O20 3308   9.529   0.488   1.111
    7CHTO   H36 3309   9.485   0.434   1.176
    7CHTO   C30 3310   9.740   0.382   1.165
    7CHTO   H58 3311   9.741   0.329   1.069
    7CHTO    N6 3312   9.675   0.294   1.265
    7CHTO   H45 3313   9.688   0.335   1.363
    7CHTO   H46 3314   9.723   0.198   1.261
    7CHTO   C33 3315   9.886   0.412   1.205
    7CHTO   H61 3316   9.890   0.466   1.301
    7CHTO   O18 3317   9.947   0.491   1.104
    7CHTO   C28 3318   9.887   0.621   1.093
    7CHTO   H56 3319   9.897   0.676   1.188
    7CHTO   C35 3320   9.962   0.697   0.981
    7CHTO   O24 3321  10.099   0.719   1.016
    7CHTO   H39 3322  10.141   0.767   0.947
    7CHTO    O9 3323   9.956   0.290   1.227
    7CHTO   C13 3324  10.099   0.307   1.241
    7CHTO   H26 3325  10.121   0.404   1.288
    7CHTO   C11 3326  10.163   0.296   1.099
    7CHTO   H24 3327  10.159   0.393   1.048
    7CHTO    O8 3328  10.082   0.201   1.027
    7CHTO    H3 3329  10.112   0.190   0.939
    7CHTO    C9 3330  10.308   0.249   1.112
    7CHTO   H22 3331  10.356   0.322   1.178
    7CHTO    N2 3332  10.381   0.254   0.984
    7CHTO   H10 3333  10.372   0.353   0.939
    7CHTO   H11 3334  10.346   0.179   0.915
    7CHTO    C7 3335  10.312   0.108   1.176
    7CHTO   H20 3336  10.400   0.111   1.241
    7CHTO    O4 3337  10.195   0.081   1.252
    7CHTO   C14 3338  10.154   0.193   1.331
    7CHTO   H27 3339  10.241   0.231   1.390
    7CHTO   C18 3340  10.048   0.147   1.432
    7CHTO   O13 3341  10.001   0.260   1.506
    7CHTO    H7 3342   9.935   0.234   1.570
    7CHTO    O2 3343  10.328   0.005   1.076
    7CHTO    C1 3344  10.328  -0.129   1.128
    7CHTO   H14 3345  10.232  -0.150   1.179
    7CHTO    C2 3346  10.445  -0.158   1.227
    7CHTO   H15 3347  10.540  -0.125   1.181
    7CHTO    O6 3348  10.424  -0.091   1.352
    7CHTO    H1 3349  10.496  -0.108   1.411
    7CHTO    C3 3350  10.450  -0.310   1.260
    7CHTO   H16 3351  10.358  -0.339   1.315
    7CHTO    N1 3352  10.564  -0.339   1.347
    7CHTO    H8 3353  10.656  -0.313   1.296
    7CHTO    H9 3354  10.566  -0.443   1.374
    7CHTO    C4 3355  10.450  -0.394   1.130
    7CHTO   H17 3356  10.547  -0.378   1.078
    7CHTO    O1 3357  10.340  -0.359   1.046
    7CHTO    C5 3358  10.341  -0.223   1.006
    7CHTO   H18 3359  10.435  -0.200   0.954
    7CHTO   C16 3360  10.223  -0.203   0.908
    7CHTO   O11 3361  10.232  -0.307   0.809
    7CHTO    H5 3362  10.163  -0.296   0.744
    7CHTO    O3 3363  10.435  -0.532   1.168
    7CHTO    C6 3364  10.436  -0.622   1.056
    7CHTO   H19 3365  10.389  -0.578   0.966
    7CHTO    C8 3366  10.578  -0.670   1.023
    7CHTO   H21 3367  10.623  -0.712   1.114
    7CHTO    O7 3368  10.656  -0.561   0.974
    7CHTO    H2 3369  10.745  -0.589   0.951
    7CHTO   C12 3370  10.570  -0.779   0.914
    7CHTO   H25 3371  10.530  -0.731   0.822
    7CHTO    N3 3372  10.707  -0.825   0.885
    7CHTO   H12 3373  10.712  -0.883   0.794
    7CHTO   H13 3374  10.746  -0.883   0.968
    7CHTO   C15 3375  10.476  -0.893   0.958
    7CHTO   H28 3376  10.515  -0.946   1.044
    7CHTO   O10 3377  10.453  -0.986   0.849
    7CHTO    H4 3378  10.533  -1.033   0.827
    7CHTO    O5 3379  10.346  -0.840   0.986
    7CHTO   C10 3380  10.352  -0.746   1.095
    7CHTO   H23 3381  10.395  -0.795   1.181
    7CHTO   C17 3382  10.207  -0.706   1.130
    7CHTO   O12 3383  10.133  -0.823   1.162
    7CHTO    H6 3384  10.042  -0.802   1.181
    8CHTO  H203 3385   5.728   1.219   5.776
    8CHTO   O82 3386   5.822   1.231   5.773
    8CHTO  C123 3387   5.866   1.312   5.882
    8CHTO  H227 3388   5.838   1.262   5.977
    8CHTO   O77 3389   6.009   1.322   5.870
    8CHTO  C118 3390   6.067   1.393   5.979
    8CHTO  H222 3391   6.042   1.343   6.075
    8CHTO  C125 3392   6.222   1.397   5.965
    8CHTO   O84 3393   6.271   1.263   5.962
    8CHTO  H205 3394   6.364   1.261   5.947
    8CHTO  C114 3395   6.016   1.538   5.983
    8CHTO  H218 3396   6.049   1.589   5.891
    8CHTO  C116 3397   5.860   1.539   5.988
    8CHTO  H220 3398   5.825   1.500   6.085
    8CHTO   O79 3399   5.810   1.673   5.973
    8CHTO  H201 3400   5.716   1.675   5.975
    8CHTO  C120 3401   5.806   1.454   5.871
    8CHTO  H224 3402   5.838   1.503   5.777
    8CHTO   N21 3403   5.661   1.453   5.878
    8CHTO  H211 3404   5.626   1.388   5.957
    8CHTO  H212 3405   5.618   1.423   5.783
    8CHTO   O75 3406   6.076   1.595   6.098
    8CHTO  C112 3407   6.056   1.738   6.110
    8CHTO  H216 3408   5.951   1.761   6.130
    8CHTO   O73 3409   6.104   1.802   5.990
    8CHTO  C113 3410   6.096   1.944   5.999
    8CHTO  H217 3411   5.992   1.973   6.021
    8CHTO  C124 3412   6.133   2.002   5.862
    8CHTO   O83 3413   6.057   1.937   5.758
    8CHTO  H204 3414   6.084   1.970   5.673
    8CHTO  C109 3415   6.189   1.999   6.111
    8CHTO  H213 3416   6.292   1.964   6.087
    8CHTO  C110 3417   6.140   1.936   6.242
    8CHTO  H214 3418   6.038   1.970   6.264
    8CHTO   O78 3419   6.225   1.974   6.350
    8CHTO  H200 3420   6.197   1.933   6.431
    8CHTO  C111 3421   6.145   1.784   6.228
    8CHTO  H215 3422   6.250   1.752   6.210
    8CHTO   N19 3423   6.099   1.716   6.350
    8CHTO  H207 3424   6.114   1.610   6.341
    8CHTO  H208 3425   5.995   1.737   6.368
    8CHTO   O74 3426   6.188   2.144   6.114
    8CHTO  C115 3427   6.301   2.201   6.183
    8CHTO  H219 3428   6.353   2.126   6.242
    8CHTO   O76 3429   6.399   2.252   6.092
    8CHTO  C122 3430   6.339   2.338   5.993
    8CHTO  H226 3431   6.285   2.275   5.922
    8CHTO  C126 3432   6.450   2.410   5.911
    8CHTO   O85 3433   6.527   2.502   5.990
    8CHTO  H206 3434   6.565   2.460   6.065
    8CHTO  C121 3435   6.240   2.440   6.057
    8CHTO  H225 3436   6.255   2.541   6.013
    8CHTO   O81 3437   6.106   2.396   6.030
    8CHTO  H202 3438   6.087   2.394   5.938
    8CHTO  C119 3439   6.265   2.446   6.210
    8CHTO  H223 3440   6.372   2.469   6.217
    8CHTO  C117 3441   6.249   2.310   6.280
    8CHTO  H221 3442   6.146   2.284   6.309
    8CHTO   N20 3443   6.328   2.305   6.403
    8CHTO  H209 3444   6.298   2.386   6.469
    8CHTO  H210 3445   6.434   2.312   6.383
    8CHTO   O80 3446   6.206   2.556   6.282
    8CHTO  C103 3447   6.068   2.591   6.255
    8CHTO  H190 3448   6.054   2.611   6.148
    8CHTO  C101 3449   5.959   2.489   6.301
    8CHTO  H188 3450   5.974   2.461   6.406
    8CHTO   O68 3451   5.960   2.371   6.218
    8CHTO  H168 3452   5.903   2.302   6.254
    8CHTO   C99 3453   5.819   2.558   6.288
    8CHTO  H186 3454   5.801   2.585   6.182
    8CHTO   N17 3455   5.708   2.474   6.334
    8CHTO  H174 3456   5.730   2.437   6.433
    8CHTO  H175 3457   5.690   2.392   6.266
    8CHTO   C97 3458   5.815   2.690   6.367
    8CHTO  H184 3459   5.834   2.667   6.473
    8CHTO   O64 3460   5.915   2.777   6.313
    8CHTO  C104 3461   6.046   2.724   6.331
    8CHTO  H191 3462   6.065   2.708   6.438
    8CHTO  C108 3463   6.149   2.827   6.285
    8CHTO   O71 3464   6.123   2.952   6.351
    8CHTO  H171 3465   6.183   3.018   6.320
    8CHTO   O62 3466   5.685   2.749   6.351
    8CHTO   C91 3467   5.649   2.840   6.457
    8CHTO  H178 3468   5.648   2.782   6.551
    8CHTO   C92 3469   5.504   2.884   6.432
    8CHTO  H179 3470   5.438   2.796   6.421
    8CHTO   O66 3471   5.458   2.955   6.547
    8CHTO  H166 3472   5.366   2.979   6.539
    8CHTO   C93 3473   5.494   2.976   6.308
    8CHTO  H180 3474   5.399   3.032   6.315
    8CHTO   N16 3475   5.489   2.898   6.183
    8CHTO  H172 3476   5.582   2.845   6.168
    8CHTO  H173 3477   5.471   2.966   6.100
    8CHTO   C94 3478   5.613   3.076   6.307
    8CHTO  H181 3479   5.692   3.044   6.241
    8CHTO   O61 3480   5.665   3.086   6.441
    8CHTO   C95 3481   5.737   2.966   6.475
    8CHTO  H182 3482   5.826   2.958   6.413
    8CHTO  C106 3483   5.785   2.979   6.622
    8CHTO   O69 3484   5.870   3.094   6.629
    8CHTO  H169 3485   5.908   3.103   6.716
    8CHTO   O63 3486   5.556   3.202   6.267
    8CHTO   C96 3487   5.655   3.304   6.240
    8CHTO  H183 3488   5.730   3.261   6.172
    8CHTO   C98 3489   5.728   3.356   6.366
    8CHTO  H185 3490   5.785   3.276   6.415
    8CHTO   O67 3491   5.823   3.453   6.323
    8CHTO  H167 3492   5.874   3.481   6.398
    8CHTO  C102 3493   5.626   3.421   6.465
    8CHTO  H189 3494   5.685   3.489   6.528
    8CHTO   N18 3495   5.561   3.325   6.555
    8CHTO  H176 3496   5.636   3.269   6.611
    8CHTO  H177 3497   5.496   3.256   6.503
    8CHTO  C105 3498   5.522   3.502   6.386
    8CHTO  H192 3499   5.430   3.443   6.376
    8CHTO   O65 3500   5.571   3.535   6.255
    8CHTO  C100 3501   5.583   3.421   6.170
    8CHTO  H187 3502   5.481   3.388   6.143
    8CHTO  C107 3503   5.656   3.462   6.041
    8CHTO   O70 3504   5.793   3.488   6.069
    8CHTO  H170 3505   5.843   3.507   5.991
    8CHTO   O57 3506   5.501   3.618   6.470
    8CHTO   C85 3507   5.418   3.721   6.414
    8CHTO  H157 3508   5.468   3.764   6.325
    8CHTO   C83 3509   5.410   3.832   6.520
    8CHTO  H155 3510   5.511   3.865   6.549
    8CHTO   O56 3511   5.347   3.778   6.637
    8CHTO  H135 3512   5.396   3.705   6.672
    8CHTO   C81 3513   5.331   3.952   6.466
    8CHTO  H153 3514   5.392   4.005   6.392
    8CHTO   N14 3515   5.300   4.046   6.575
    8CHTO  H141 3516   5.392   4.083   6.616
    8CHTO  H142 3517   5.245   3.995   6.654
    8CHTO   C79 3518   5.200   3.905   6.398
    8CHTO  H151 3519   5.216   3.911   6.289
    8CHTO   O52 3520   5.171   3.767   6.433
    8CHTO   C86 3521   5.273   3.675   6.383
    8CHTO  H158 3522   5.250   3.581   6.435
    8CHTO   C90 3523   5.253   3.648   6.234
    8CHTO   O60 3524   5.112   3.639   6.207
    8CHTO  H138 3525   5.098   3.624   6.114
    8CHTO   O50 3526   5.091   3.990   6.435
    8CHTO   C73 3527   4.964   3.955   6.377
    8CHTO  H145 3528   4.940   3.849   6.396
    8CHTO   C74 3529   4.959   3.983   6.225
    8CHTO  H146 3530   5.030   3.917   6.172
    8CHTO   O54 3531   4.828   3.951   6.176
    8CHTO  H133 3532   4.826   3.967   6.083
    8CHTO   C75 3533   4.991   4.132   6.203
    8CHTO  H147 3534   5.091   4.154   6.244
    8CHTO   N13 3535   4.988   4.165   6.059
    8CHTO  H139 3536   5.062   4.106   6.007
    8CHTO  H140 3537   5.011   4.269   6.045
    8CHTO   C76 3538   4.884   4.215   6.280
    8CHTO  H148 3539   4.787   4.192   6.235
    8CHTO   O49 3540   4.884   4.183   6.421
    8CHTO   C77 3541   4.859   4.045   6.446
    8CHTO  H149 3542   4.759   4.018   6.411
    8CHTO   C88 3543   4.859   4.019   6.598
    8CHTO   O58 3544   4.757   4.100   6.661
    8CHTO  H136 3545   4.751   4.084   6.755
    8CHTO   O51 3546   4.921   4.354   6.267
    8CHTO   C78 3547   4.827   4.443   6.330
    8CHTO  H150 3548   4.787   4.401   6.424
    8CHTO   C80 3549   4.710   4.476   6.236
    8CHTO  H152 3550   4.750   4.511   6.139
    8CHTO   O55 3551   4.630   4.358   6.216
    8CHTO  H134 3552   4.561   4.374   6.152
    8CHTO   C84 3553   4.621   4.585   6.299
    8CHTO  H156 3554   4.575   4.545   6.390
    8CHTO   N15 3555   4.514   4.623   6.206
    8CHTO  H143 3556   4.558   4.663   6.116
    8CHTO  H144 3557   4.453   4.699   6.252
    8CHTO   C87 3558   4.708   4.707   6.335
    8CHTO  H159 3559   4.750   4.749   6.242
    8CHTO   O53 3560   4.812   4.666   6.425
    8CHTO   C82 3561   4.902   4.573   6.364
    8CHTO  H154 3562   4.948   4.617   6.275
    8CHTO   C89 3563   5.017   4.540   6.463
    8CHTO   O59 3564   5.082   4.664   6.497
    8CHTO  H137 3565   5.152   4.646   6.558
    8CHTO   O45 3566   4.623   4.805   6.399
    8CHTO   C67 3567   4.699   4.905   6.468
    8CHTO  H124 3568   4.757   4.860   6.549
    8CHTO   C65 3569   4.796   4.977   6.372
    8CHTO  H122 3570   4.747   4.983   6.274
    8CHTO   O44 3571   4.915   4.897   6.367
    8CHTO  H102 3572   4.977   4.929   6.302
    8CHTO   C63 3573   4.820   5.122   6.419
    8CHTO  H120 3574   4.742   5.187   6.376
    8CHTO   N11 3575   4.947   5.180   6.371
    8CHTO  H108 3576   4.952   5.173   6.264
    8CHTO  H109 3577   5.032   5.127   6.414
    8CHTO   C61 3578   4.811   5.130   6.574
    8CHTO  H118 3579   4.835   5.234   6.602
    8CHTO   O40 3580   4.679   5.102   6.618
    8CHTO   C68 3581   4.606   5.010   6.535
    8CHTO  H125 3582   4.554   5.067   6.456
    8CHTO   C72 3583   4.496   4.941   6.621
    8CHTO   O48 3584   4.409   4.860   6.543
    8CHTO  H105 3585   4.341   4.823   6.598
    8CHTO   O38 3586   4.901   5.039   6.639
    8CHTO   C55 3587   4.923   5.079   6.775
    8CHTO  H112 3588   4.831   5.124   6.816
    8CHTO   C56 3589   5.046   5.173   6.788
    8CHTO  H113 3590   5.135   5.118   6.755
    8CHTO   O42 3591   5.035   5.289   6.704
    8CHTO  H100 3592   5.116   5.339   6.705
    8CHTO   C57 3593   5.062   5.217   6.936
    8CHTO  H114 3594   4.974   5.273   6.967
    8CHTO   N10 3595   5.182   5.301   6.953
    8CHTO  H106 3596   5.216   5.297   7.055
    8CHTO  H107 3597   5.162   5.402   6.925
    8CHTO   C58 3598   5.074   5.091   7.022
    8CHTO  H115 3599   5.170   5.040   6.999
    8CHTO   O37 3600   4.965   5.001   7.001
    8CHTO   C59 3601   4.956   4.957   6.865
    8CHTO  H116 3602   5.049   4.908   6.834
    8CHTO   C70 3603   4.840   4.856   6.860
    8CHTO   O46 3604   4.861   4.750   6.955
    8CHTO  H103 3605   4.791   4.687   6.947
    8CHTO   O39 3606   5.074   5.136   7.159
    8CHTO   C60 3607   5.060   5.031   7.255
    8CHTO  H117 3608   4.964   4.981   7.241
    8CHTO   C62 3609   5.174   4.928   7.249
    8CHTO  H119 3610   5.163   4.872   7.154
    8CHTO   O43 3611   5.299   4.998   7.249
    8CHTO  H101 3612   5.372   4.938   7.235
    8CHTO   C66 3613   5.159   4.831   7.369
    8CHTO  H123 3614   5.065   4.776   7.359
    8CHTO   N12 3615   5.267   4.733   7.372
    8CHTO  H110 3616   5.361   4.779   7.401
    8CHTO  H111 3617   5.276   4.684   7.277
    8CHTO   C69 3618   5.159   4.912   7.500
    8CHTO  H126 3619   5.253   4.969   7.509
    8CHTO   O41 3620   5.044   4.998   7.500
    8CHTO   C64 3621   5.055   5.097   7.395
    8CHTO  H121 3622   5.148   5.157   7.409
    8CHTO   C71 3623   4.935   5.193   7.404
    8CHTO   O47 3624   4.932   5.247   7.537
    8CHTO  H104 3625   4.860   5.308   7.547
    8CHTO   O34 3626   5.152   4.812   7.604
    8CHTO   C49 3627   5.198   4.856   7.734
    8CHTO   H91 3628   5.301   4.892   7.724
    8CHTO   C47 3629   5.190   4.733   7.823
    8CHTO   H89 3630   5.221   4.763   7.925
    8CHTO   O33 3631   5.276   4.626   7.778
    8CHTO   H70 3632   5.366   4.654   7.780
    8CHTO   C45 3633   5.043   4.681   7.823
    8CHTO   H87 3634   5.028   4.607   7.743
    8CHTO    N8 3635   5.017   4.615   7.952
    8CHTO   H75 3636   5.093   4.541   7.971
    8CHTO   H76 3637   4.920   4.568   7.952
    8CHTO   C43 3638   4.944   4.798   7.801
    8CHTO   H85 3639   4.934   4.813   7.693
    8CHTO   O29 3640   4.996   4.912   7.868
    8CHTO   C50 3641   5.110   4.965   7.799
    8CHTO   H92 3642   5.075   5.035   7.720
    8CHTO   C54 3643   5.193   5.055   7.894
    8CHTO   O36 3644   5.109   5.162   7.941
    8CHTO   H72 3645   5.159   5.219   7.998
    8CHTO   O27 3646   4.815   4.761   7.854
    8CHTO   C37 3647   4.718   4.867   7.854
    8CHTO   H79 3648   4.754   4.953   7.914
    8CHTO   C38 3649   4.689   4.919   7.711
    8CHTO   H80 3650   4.671   4.832   7.644
    8CHTO   O31 3651   4.800   4.994   7.665
    8CHTO   H68 3652   4.787   5.027   7.577
    8CHTO   C39 3653   4.566   5.013   7.711
    8CHTO   H81 3654   4.592   5.102   7.770
    8CHTO    N7 3655   4.533   5.055   7.574
    8CHTO   H73 3656   4.457   5.131   7.576
    8CHTO   H74 3657   4.500   4.971   7.515
    8CHTO   C40 3658   4.443   4.947   7.778
    8CHTO   H82 3659   4.413   4.857   7.720
    8CHTO   O26 3660   4.481   4.914   7.912
    8CHTO   C41 3661   4.587   4.814   7.915
    8CHTO   H83 3662   4.554   4.724   7.861
    8CHTO   C52 3663   4.607   4.778   8.064
    8CHTO   O35 3664   4.483   4.734   8.124
    8CHTO   H71 3665   4.498   4.700   8.212
    8CHTO   O28 3666   4.334   5.040   7.780
    8CHTO   C42 3667   4.210   4.990   7.834
    8CHTO   H84 3668   4.144   5.078   7.836
    8CHTO   C44 3669   4.215   4.939   7.979
    8CHTO   H86 3670   4.271   4.844   7.982
    8CHTO   O32 3671   4.280   5.035   8.064
    8CHTO   H69 3672   4.289   5.000   8.152
    8CHTO   C48 3673   4.070   4.910   8.025
    8CHTO   H90 3674   4.011   5.002   8.021
    8CHTO    N9 3675   4.069   4.864   8.167
    8CHTO   H77 3676   4.112   4.766   8.175
    8CHTO   H78 3677   3.969   4.865   8.206
    8CHTO   C51 3678   4.010   4.803   7.929
    8CHTO   H93 3679   4.071   4.713   7.936
    8CHTO   O30 3680   4.008   4.858   7.798
    8CHTO   C46 3681   4.140   4.883   7.747
    8CHTO   H88 3682   4.199   4.791   7.747
    8CHTO   C53 3683   4.120   4.936   7.603
    8CHTO   O72 3684   4.247   4.958   7.540
    8CHTO  H199 3685   4.236   4.990   7.452
    8CHTO   O22 3686   3.874   4.779   7.971
    8CHTO   C31 3687   3.803   4.673   7.900
    8CHTO   H59 3688   3.701   4.673   7.941
    8CHTO   C29 3689   3.789   4.693   7.748
    8CHTO   H57 3690   3.888   4.686   7.699
    8CHTO   O21 3691   3.736   4.822   7.717
    8CHTO   H37 3692   3.650   4.832   7.757
    8CHTO   C27 3693   3.698   4.582   7.692
    8CHTO   H55 3694   3.597   4.594   7.738
    8CHTO    N5 3695   3.686   4.594   7.546
    8CHTO   H43 3696   3.782   4.586   7.497
    8CHTO   H44 3697   3.639   4.687   7.517
    8CHTO   C25 3698   3.757   4.445   7.729
    8CHTO   H53 3699   3.855   4.437   7.680
    8CHTO   O17 3700   3.773   4.433   7.871
    8CHTO   C32 3701   3.861   4.532   7.926
    8CHTO   H60 3702   3.960   4.525   7.878
    8CHTO   C36 3703   3.873   4.504   8.076
    8CHTO   O25 3704   3.935   4.377   8.096
    8CHTO   H40 3705   3.948   4.360   8.189
    8CHTO   O15 3706   3.668   4.344   7.678
    8CHTO   C19 3707   3.717   4.208   7.692
    8CHTO   H47 3708   3.634   4.147   7.651
    8CHTO   C20 3709   3.843   4.175   7.610
    8CHTO   H48 3710   3.931   4.230   7.647
    8CHTO   O19 3711   3.818   4.210   7.474
    8CHTO   H35 3712   3.895   4.190   7.420
    8CHTO   C21 3713   3.870   4.024   7.621
    8CHTO   H49 3714   3.785   3.969   7.578
    8CHTO    N4 3715   3.991   3.987   7.547
    8CHTO   H41 3716   4.005   3.880   7.552
    8CHTO   H42 3717   4.078   4.036   7.591
    8CHTO   C22 3718   3.884   3.988   7.770
    8CHTO   H50 3719   3.969   4.042   7.811
    8CHTO   O14 3720   3.763   4.020   7.841
    8CHTO   C23 3721   3.735   4.161   7.838
    8CHTO   H51 3722   3.820   4.212   7.887
    8CHTO   C34 3723   3.608   4.184   7.920
    8CHTO   O23 3724   3.631   4.140   8.053
    8CHTO   H38 3725   3.551   4.147   8.106
    8CHTO   O16 3726   3.905   3.847   7.777
    8CHTO   C24 3727   3.950   3.806   7.907
    8CHTO   H52 3728   3.908   3.869   7.987
    8CHTO   C26 3729   4.104   3.809   7.913
    8CHTO   H54 3730   4.145   3.755   7.826
    8CHTO   O20 3731   4.155   3.944   7.912
    8CHTO   H36 3732   4.250   3.942   7.911
    8CHTO   C30 3733   4.152   3.739   8.041
    8CHTO   H58 3734   4.119   3.793   8.130
    8CHTO    N6 3735   4.300   3.734   8.043
    8CHTO   H45 3736   4.334   3.667   7.966
    8CHTO   H46 3737   4.330   3.695   8.139
    8CHTO   C33 3738   4.092   3.597   8.045
    8CHTO   H61 3739   4.122   3.540   7.955
    8CHTO   O18 3740   3.950   3.606   8.049
    8CHTO   C28 3741   3.896   3.664   7.928
    8CHTO   H56 3742   3.921   3.602   7.841
    8CHTO   C35 3743   3.742   3.667   7.945
    8CHTO   O24 3744   3.687   3.536   7.955
    8CHTO   H39 3745   3.593   3.542   7.963
    8CHTO    O9 3746   4.144   3.525   8.156
    8CHTO   C13 3747   4.075   3.400   8.182
    8CHTO   H26 3748   4.039   3.356   8.087
    8CHTO   C11 3749   3.958   3.430   8.280
    8CHTO   H24 3750   3.869   3.464   8.225
    8CHTO    O8 3751   4.004   3.535   8.365
    8CHTO    H3 3752   3.937   3.562   8.426
    8CHTO    C9 3753   3.924   3.303   8.359
    8CHTO   H22 3754   3.903   3.227   8.283
    8CHTO    N2 3755   3.802   3.317   8.441
    8CHTO   H10 3756   3.720   3.351   8.378
    8CHTO   H11 3757   3.817   3.385   8.524
    8CHTO    C7 3758   4.047   3.261   8.444
    8CHTO   H20 3759   4.046   3.151   8.439
    8CHTO    O4 3760   4.169   3.313   8.392
    8CHTO   C14 3761   4.175   3.302   8.249
    8CHTO   H27 3762   4.151   3.198   8.218
    8CHTO   C18 3763   4.319   3.330   8.203
    8CHTO   O13 3764   4.324   3.328   8.060
    8CHTO    H7 3765   4.413   3.345   8.029
    8CHTO    O2 3766   4.033   3.304   8.581
    8CHTO    C1 3767   4.146   3.272   8.665
    8CHTO   H14 3768   4.237   3.321   8.627
    8CHTO    C2 3769   4.172   3.119   8.679
    8CHTO   H15 3770   4.077   3.068   8.705
    8CHTO    O6 3771   4.226   3.065   8.557
    8CHTO    H1 3772   4.241   2.972   8.566
    8CHTO    C3 3773   4.280   3.094   8.788
    8CHTO   H16 3774   4.376   3.137   8.755
    8CHTO    N1 3775   4.300   2.950   8.807
    8CHTO    H8 3776   4.208   2.904   8.840
    8CHTO    H9 3777   4.377   2.931   8.879
    8CHTO    C4 3778   4.243   3.167   8.919
    8CHTO   H17 3779   4.154   3.118   8.963
    8CHTO    O1 3780   4.219   3.306   8.896
    8CHTO    C5 3781   4.113   3.330   8.805
    8CHTO   H18 3782   4.021   3.284   8.842
    8CHTO   C16 3783   4.093   3.483   8.798
    8CHTO   O11 3784   4.083   3.531   8.933
    8CHTO    H5 3785   4.067   3.625   8.933
    8CHTO    O3 3786   4.355   3.155   9.008
    8CHTO    C6 3787   4.333   3.218   9.136
    8CHTO   H19 3788   4.270   3.309   9.129
    8CHTO    C8 3789   4.272   3.119   9.237
    8CHTO   H21 3790   4.335   3.029   9.242
    8CHTO    O7 3791   4.139   3.086   9.197
    8CHTO    H2 3792   4.097   3.026   9.260
    8CHTO   C12 3793   4.267   3.187   9.376
    8CHTO   H25 3794   4.197   3.273   9.368
    8CHTO    N3 3795   4.210   3.091   9.472
    8CHTO   H12 3796   4.180   3.139   9.564
    8CHTO   H13 3797   4.279   3.011   9.492
    8CHTO   C15 3798   4.406   3.238   9.417
    8CHTO   H28 3799   4.476   3.155   9.432
    8CHTO   O10 3800   4.400   3.318   9.537
    8CHTO    H4 3801   4.374   3.265   9.612
    8CHTO    O5 3802   4.456   3.328   9.318
    8CHTO   C10 3803   4.470   3.263   9.191
    8CHTO   H23 3804   4.535   3.176   9.203
    8CHTO   C17 3805   4.539   3.361   9.095
    8CHTO   O12 3806   4.664   3.402   9.150
    8CHTO    H6 3807   4.707   3.466   9.094
    9CHTO  H203 3808   5.713   9.116   6.333
    9CHTO   O82 3809   5.658   9.060   6.279
    9CHTO  C123 3810   5.540   9.022   6.348
    9CHTO  H227 3811   5.483   9.114   6.375
    9CHTO   O77 3812   5.464   8.940   6.258
    9CHTO  C118 3813   5.337   8.903   6.312
    9CHTO  H222 3814   5.278   8.994   6.337
    9CHTO  C125 3815   5.256   8.819   6.209
    9CHTO   O84 3816   5.239   8.898   6.091
    9CHTO  H205 3817   5.196   8.848   6.023
    9CHTO  C114 3818   5.355   8.819   6.439
    9CHTO  H218 3819   5.405   8.725   6.412
    9CHTO  C116 3820   5.443   8.895   6.542
    9CHTO  H220 3821   5.389   8.984   6.581
    9CHTO   O79 3822   5.475   8.810   6.653
    9CHTO  H201 3823   5.530   8.855   6.716
    9CHTO  C120 3824   5.574   8.938   6.473
    9CHTO  H224 3825   5.628   8.845   6.444
    9CHTO   N21 3826   5.655   9.011   6.569
    9CHTO  H211 3827   5.616   9.111   6.583
    9CHTO  H212 3828   5.759   9.015   6.537
    9CHTO   O75 3829   5.222   8.794   6.485
    9CHTO  C112 3830   5.215   8.699   6.594
    9CHTO  H216 3831   5.260   8.741   6.685
    9CHTO   O73 3832   5.279   8.577   6.553
    9CHTO  C113 3833   5.267   8.475   6.652
    9CHTO  H217 3834   5.309   8.513   6.748
    9CHTO  C124 3835   5.352   8.355   6.608
    9CHTO   O83 3836   5.484   8.398   6.572
    9CHTO  H204 3837   5.535   8.324   6.540
    9CHTO  C109 3838   5.119   8.435   6.675
    9CHTO  H213 3839   5.080   8.401   6.577
    9CHTO  C110 3840   5.047   8.562   6.723
    9CHTO  H214 3841   5.088   8.595   6.819
    9CHTO   O78 3842   4.907   8.538   6.737
    9CHTO  H200 3843   4.861   8.616   6.764
    9CHTO  C111 3844   5.065   8.671   6.616
    9CHTO  H215 3845   5.019   8.637   6.521
    9CHTO   N19 3846   4.999   8.796   6.654
    9CHTO  H207 3847   5.005   8.867   6.573
    9CHTO  H208 3848   5.045   8.838   6.742
    9CHTO   O74 3849   5.107   8.326   6.770
    9CHTO  C115 3850   4.981   8.257   6.763
    9CHTO  H219 3851   4.907   8.313   6.707
    9CHTO   O76 3852   4.993   8.131   6.694
    9CHTO  C122 3853   5.102   8.053   6.745
    9CHTO  H226 3854   5.195   8.097   6.710
    9CHTO  C126 3855   5.097   7.909   6.685
    9CHTO   O85 3856   4.982   7.834   6.728
    9CHTO  H206 3857   4.902   7.880   6.708
    9CHTO  C121 3858   5.102   8.050   6.901
    9CHTO  H225 3859   5.122   7.946   6.937
    9CHTO   O81 3860   5.207   8.137   6.948
    9CHTO  H202 3861   5.292   8.108   6.920
    9CHTO  C119 3862   4.964   8.096   6.953
    9CHTO  H223 3863   4.894   8.031   6.903
    9CHTO  C117 3864   4.927   8.239   6.907
    9CHTO  H221 3865   4.966   8.320   6.969
    9CHTO   N20 3866   4.781   8.256   6.905
    9CHTO  H209 3867   4.741   8.236   7.004
    9CHTO  H210 3868   4.734   8.191   6.833
    9CHTO   O80 3869   4.935   8.071   7.092
    9CHTO  C103 3870   5.036   8.100   7.191
    9CHTO  H190 3871   5.129   8.046   7.169
    9CHTO  C101 3872   5.070   8.250   7.217
    9CHTO  H188 3873   4.979   8.309   7.234
    9CHTO   O68 3874   5.144   8.306   7.105
    9CHTO  H168 3875   5.153   8.401   7.113
    9CHTO   C99 3876   5.159   8.259   7.345
    9CHTO  H186 3877   5.253   8.203   7.330
    9CHTO   N17 3878   5.194   8.397   7.382
    9CHTO  H174 3879   5.104   8.457   7.387
    9CHTO  H175 3880   5.264   8.440   7.313
    9CHTO   C97 3881   5.090   8.194   7.465
    9CHTO  H184 3882   4.994   8.246   7.483
    9CHTO   O64 3883   5.068   8.056   7.434
    9CHTO  C104 3884   4.978   8.040   7.323
    9CHTO  H191 3885   4.883   8.088   7.346
    9CHTO  C108 3886   4.948   7.892   7.303
    9CHTO   O71 3887   4.902   7.837   7.427
    9CHTO  H171 3888   4.887   7.744   7.418
    9CHTO   O62 3889   5.175   8.204   7.580
    9CHTO   C91 3890   5.105   8.197   7.706
    9CHTO  H178 3891   5.035   8.281   7.709
    9CHTO   C92 3892   5.208   8.223   7.817
    9CHTO  H179 3893   5.262   8.318   7.798
    9CHTO   O66 3894   5.139   8.239   7.940
    9CHTO  H166 3895   5.198   8.261   8.011
    9CHTO   C93 3896   5.308   8.105   7.829
    9CHTO  H180 3897   5.355   8.110   7.929
    9CHTO   N16 3898   5.416   8.114   7.730
    9CHTO  H172 3899   5.377   8.104   7.630
    9CHTO  H173 3900   5.489   8.036   7.750
    9CHTO   C94 3901   5.231   7.970   7.816
    9CHTO  H181 3902   5.240   7.928   7.716
    9CHTO   O61 3903   5.092   7.993   7.845
    9CHTO   C95 3904   5.030   8.065   7.738
    9CHTO  H182 3905   5.028   8.002   7.649
    9CHTO  C106 3906   4.883   8.094   7.777
    9CHTO   O69 3907   4.820   7.967   7.798
    9CHTO  H169 3908   4.727   7.979   7.817
    9CHTO   O63 3909   5.289   7.883   7.916
    9CHTO   C96 3910   5.245   7.747   7.906
    9CHTO  H183 3911   5.258   7.714   7.802
    9CHTO   C98 3912   5.098   7.724   7.946
    9CHTO  H185 3913   5.029   7.779   7.878
    9CHTO   O67 3914   5.069   7.586   7.928
    9CHTO  H167 3915   4.977   7.571   7.945
    9CHTO  C102 3916   5.074   7.765   8.094
    9CHTO  H189 3917   4.984   7.711   8.127
    9CHTO   N18 3918   5.047   7.908   8.113
    9CHTO  H176 3919   4.961   7.938   8.053
    9CHTO  H177 3920   5.131   7.970   8.089
    9CHTO  C105 3921   5.194   7.720   8.180
    9CHTO  H192 3922   5.261   7.805   8.198
    9CHTO   O65 3923   5.267   7.616   8.114
    9CHTO  C100 3924   5.336   7.662   7.997
    9CHTO  H187 3925   5.421   7.724   8.031
    9CHTO  C107 3926   5.394   7.540   7.922
    9CHTO   O70 3927   5.288   7.466   7.862
    9CHTO  H170 3928   5.320   7.395   7.809
    9CHTO   O57 3929   5.132   7.676   8.303
    9CHTO   C85 3930   5.219   7.614   8.398
    9CHTO  H157 3931   5.258   7.519   8.355
    9CHTO   C83 3932   5.131   7.577   8.519
    9CHTO  H155 3933   5.045   7.515   8.487
    9CHTO   O56 3934   5.078   7.698   8.575
    9CHTO  H135 3935   5.026   7.745   8.511
    9CHTO   C81 3936   5.213   7.501   8.623
    9CHTO  H153 3937   5.233   7.399   8.587
    9CHTO   N14 3938   5.138   7.490   8.749
    9CHTO  H141 3939   5.048   7.434   8.731
    9CHTO  H142 3940   5.111   7.588   8.786
    9CHTO   C79 3941   5.348   7.571   8.649
    9CHTO  H151 3942   5.426   7.513   8.596
    9CHTO   O52 3943   5.347   7.706   8.594
    9CHTO   C86 3944   5.333   7.706   8.450
    9CHTO  H158 3945   5.310   7.812   8.426
    9CHTO   C90 3946   5.466   7.674   8.382
    9CHTO   O60 3947   5.571   7.738   8.456
    9CHTO  H138 3948   5.655   7.717   8.416
    9CHTO   O50 3949   5.378   7.574   8.789
    9CHTO   C73 3950   5.502   7.638   8.824
    9CHTO  H145 3951   5.508   7.739   8.780
    9CHTO   C74 3952   5.625   7.556   8.781
    9CHTO  H146 3953   5.629   7.549   8.671
    9CHTO   O54 3954   5.744   7.622   8.824
    9CHTO  H133 3955   5.819   7.572   8.796
    9CHTO   C75 3956   5.614   7.416   8.846
    9CHTO  H147 3957   5.520   7.368   8.812
    9CHTO   N13 3958   5.729   7.332   8.807
    9CHTO  H139 3959   5.731   7.320   8.700
    9CHTO  H140 3960   5.719   7.235   8.853
    9CHTO   C76 3961   5.610   7.436   9.000
    9CHTO  H148 3962   5.706   7.482   9.029
    9CHTO   O49 3963   5.499   7.521   9.039
    9CHTO   C77 3964   5.503   7.650   8.978
    9CHTO  H149 3965   5.592   7.703   9.010
    9CHTO   C88 3966   5.382   7.733   9.026
    9CHTO   O58 3967   5.387   7.747   9.170
    9CHTO  H136 3968   5.317   7.801   9.203
    9CHTO   O51 3969   5.589   7.307   9.060
    9CHTO   C78 3970   5.589   7.310   9.204
    9CHTO  H150 3971   5.540   7.402   9.242
    9CHTO   C80 3972   5.732   7.302   9.260
    9CHTO  H152 3973   5.783   7.215   9.215
    9CHTO   O55 3974   5.803   7.422   9.228
    9CHTO  H134 3975   5.894   7.417   9.255
    9CHTO   C84 3976   5.726   7.288   9.414
    9CHTO  H156 3977   5.683   7.379   9.456
    9CHTO   N15 3978   5.862   7.271   9.467
    9CHTO  H143 3979   5.905   7.182   9.427
    9CHTO  H144 3980   5.856   7.262   9.575
    9CHTO   C87 3981   5.638   7.167   9.450
    9CHTO  H159 3982   5.684   7.075   9.411
    9CHTO   O53 3983   5.506   7.186   9.396
    9CHTO   C82 3984   5.508   7.189   9.252
    9CHTO  H154 3985   5.550   7.095   9.213
    9CHTO   C89 3986   5.363   7.199   9.199
    9CHTO   O59 3987   5.289   7.088   9.250
    9CHTO  H137 3988   5.200   7.093   9.221
    9CHTO   O45 3989   5.631   7.160   9.595
    9CHTO   C67 3990   5.523   7.076   9.639
    9CHTO  H124 3991   5.427   7.117   9.607
    9CHTO   C65 3992   5.538   6.933   9.582
    9CHTO  H122 3993   5.645   6.911   9.575
    9CHTO   O44 3994   5.477   6.935   9.451
    9CHTO  H102 3995   5.490   6.853   9.405
    9CHTO   C63 3996   5.476   6.830   9.679
    9CHTO  H120 3997   5.553   6.800   9.752
    9CHTO   N11 3998   5.436   6.704   9.613
    9CHTO  H108 3999   5.519   6.662   9.561
    9CHTO  H109 4000   5.354   6.722   9.543
    9CHTO   C61 4001   5.357   6.894   9.755
    9CHTO  H118 4002   5.314   6.814   9.817
    9CHTO   O40 4003   5.402   6.997   9.840
    9CHTO   C68 4004   5.518   7.068   9.794
    9CHTO  H125 4005   5.608   7.016   9.830
    9CHTO   C72 4006   5.518   7.210   9.857
    9CHTO   O48 4007   5.638   7.282   9.828
    9CHTO  H105 4008   5.637   7.367   9.872
    9CHTO   O38 4009   5.257   6.948   9.666
    9CHTO   C55 4010   5.132   6.963   9.735
    9CHTO  H112 4011   5.151   6.990   9.841
    9CHTO   C56 4012   5.043   6.837   9.722
    9CHTO  H113 4013   5.021   6.823   9.615
    9CHTO   O42 4014   5.109   6.718   9.767
    9CHTO  H100 4015   5.057   6.641   9.748
    9CHTO   C57 4016   4.912   6.858   9.802
    9CHTO  H114 4017   4.935   6.871   9.908
    9CHTO   N10 4018   4.821   6.743   9.785
    9CHTO  H106 4019   4.719   6.772   9.805
    9CHTO  H107 4020   4.849   6.663   9.851
    9CHTO   C58 4021   4.844   6.985   9.750
    9CHTO  H115 4022   4.809   6.967   9.646
    9CHTO   O37 4023   4.931   7.098   9.754
    9CHTO   C59 4024   5.049   7.079   9.674
    9CHTO  H116 4025   5.022   7.058   9.571
    9CHTO   C70 4026   5.128   7.210   9.683
    9CHTO   O46 4027   5.047   7.321   9.642
    9CHTO  H103 4028   5.098   7.400   9.643
    9CHTO   O39 4029   4.731   7.008   9.837
    9CHTO   C60 4030   4.669   7.136   9.820
    9CHTO  H117 4031   4.741   7.215   9.843
    9CHTO   C62 4032   4.614   7.157   9.678
    9CHTO  H119 4033   4.700   7.165   9.609
    9CHTO   O43 4034   4.534   7.043   9.642
    9CHTO  H101 4035   4.506   7.047   9.551
    9CHTO   C66 4036   4.533   7.289   9.677
    9CHTO  H123 4037   4.600   7.373   9.698
    9CHTO   N12 4038   4.472   7.314   9.546
    9CHTO  H110 4039   4.391   7.245   9.527
    9CHTO  H111 4040   4.547   7.307   9.469
    9CHTO   C69 4041   4.422   7.283   9.784
    9CHTO  H126 4042   4.355   7.197   9.763
    9CHTO   O41 4043   4.484   7.272   9.912
    9CHTO   C64 4044   4.555   7.147   9.924
    9CHTO  H121 4045   4.485   7.062   9.909
    9CHTO   C71 4046   4.613   7.134  10.067
    9CHTO   O47 4047   4.504   7.151  10.159
    9CHTO  H104 4048   4.536   7.143  10.249
    9CHTO   O34 4049   4.349   7.406   9.768
    9CHTO   C49 4050   4.215   7.405   9.822
    9CHTO   H91 4051   4.159   7.324   9.774
    9CHTO   C47 4052   4.156   7.541   9.786
    9CHTO   H89 4053   4.054   7.545   9.829
    9CHTO   O33 4054   4.148   7.563   9.644
    9CHTO   H70 4055   4.092   7.498   9.605
    9CHTO   C45 4056   4.246   7.652   9.847
    9CHTO   H87 4057   4.324   7.682   9.777
    9CHTO    N8 4058   4.163   7.769   9.878
    9CHTO   H75 4059   4.108   7.797   9.788
    9CHTO   H76 4060   4.223   7.852   9.910
    9CHTO   C43 4061   4.316   7.601   9.977
    9CHTO   H85 4062   4.407   7.549   9.947
    9CHTO   O29 4063   4.223   7.516  10.045
    9CHTO   C50 4064   4.208   7.391   9.976
    9CHTO   H92 4065   4.287   7.321  10.009
    9CHTO   C54 4066   4.077   7.322  10.020
    9CHTO   O36 4067   4.081   7.300  10.162
    9CHTO   H72 4068   4.002   7.257  10.190
    9CHTO   O27 4069   4.352   7.713  10.059
    9CHTO   C37 4070   4.402   7.679  10.189
    9CHTO   H79 4071   4.328   7.621  10.246
    9CHTO   C38 4072   4.531   7.594  10.180
    9CHTO   H80 4073   4.601   7.641  10.108
    9CHTO   O31 4074   4.497   7.462  10.137
    9CHTO   H68 4075   4.574   7.406  10.129
    9CHTO   C39 4076   4.598   7.580  10.319
    9CHTO   H81 4077   4.529   7.524  10.385
    9CHTO    N7 4078   4.725   7.506  10.309
    9CHTO   H73 4079   4.763   7.485  10.408
    9CHTO   H74 4080   4.797   7.562  10.252
    9CHTO   C40 4081   4.621   7.719  10.384
    9CHTO   H82 4082   4.691   7.778  10.322
    9CHTO   O26 4083   4.493   7.782  10.395
    9CHTO   C41 4084   4.434   7.809  10.265
    9CHTO   H83 4085   4.504   7.871  10.206
    9CHTO   C52 4086   4.306   7.890  10.292
    9CHTO   O35 4087   4.334   8.008  10.369
    9CHTO   H71 4088   4.257   8.064  10.375
    9CHTO   O28 4089   4.678   7.701  10.515
    9CHTO   C42 4090   4.711   7.822  10.586
    9CHTO   H84 4091   4.743   7.787  10.686
    9CHTO   C44 4092   4.595   7.920  10.611
    9CHTO   H86 4093   4.566   7.966  10.516
    9CHTO   O32 4094   4.483   7.851  10.667
    9CHTO   H69 4095   4.409   7.910  10.675
    9CHTO   C48 4096   4.646   8.032  10.706
    9CHTO   H90 4097   4.679   7.988  10.801
    9CHTO    N9 4098   4.536   8.127  10.737
    9CHTO   H77 4099   4.511   8.185  10.650
    9CHTO   H78 4100   4.564   8.191  10.819
    9CHTO   C51 4101   4.766   8.102  10.636
    9CHTO   H93 4102   4.731   8.145  10.542
    9CHTO   O30 4103   4.869   8.006  10.617
    9CHTO   C46 4104   4.830   7.901  10.526
    9CHTO   H88 4105   4.801   7.944  10.429
    9CHTO   C53 4106   4.954   7.810  10.511
    9CHTO   O72 4107   4.928   7.705  10.417
    9CHTO  H199 4108   5.003   7.648  10.407
    9CHTO   O22 4109   4.815   8.204  10.726
    9CHTO   C31 4110   4.921   8.290  10.674
    9CHTO   H59 4111   4.948   8.357  10.757
    9CHTO   C29 4112   5.050   8.217  10.631
    9CHTO   H57 4113   5.031   8.154  10.542
    9CHTO   O21 4114   5.097   8.130  10.734
    9CHTO   H37 4115   5.116   8.181  10.813
    9CHTO   C27 4116   5.156   8.323  10.596
    9CHTO   H55 4117   5.178   8.382  10.687
    9CHTO    N5 4118   5.279   8.258  10.549
    9CHTO   H43 4119   5.262   8.197  10.461
    9CHTO   H44 4120   5.325   8.197  10.627
    9CHTO   C25 4121   5.101   8.415  10.485
    9CHTO   H53 4122   5.082   8.353  10.396
    9CHTO   O17 4123   4.978   8.477  10.528
    9CHTO   C32 4124   4.876   8.381  10.557
    9CHTO   H60 4125   4.855   8.319  10.469
    9CHTO   C36 4126   4.749   8.460  10.595
    9CHTO   O25 4127   4.706   8.536  10.483
    9CHTO   H40 4128   4.624   8.581  10.503
    9CHTO   O15 4129   5.202   8.514  10.457
    9CHTO   C19 4130   5.170   8.601  10.345
    9CHTO   H47 4131   5.256   8.670  10.342
    9CHTO   C20 4132   5.163   8.531  10.208
    9CHTO   H48 4133   5.078   8.462  10.202
    9CHTO   O19 4134   5.285   8.458  10.188
    9CHTO   H35 4135   5.284   8.414  10.103
    9CHTO   C21 4136   5.148   8.638  10.098
    9CHTO   H49 4137   5.237   8.704  10.100
    9CHTO    N4 4138   5.138   8.577   9.966
    9CHTO   H41 4139   5.134   8.655   9.890
    9CHTO   H42 4140   5.049   8.516   9.960
    9CHTO   C22 4141   5.023   8.722  10.129
    9CHTO   H50 4142   4.935   8.656  10.127
    9CHTO   O14 4143   5.036   8.786  10.258
    9CHTO   C23 4144   5.045   8.690  10.364
    9CHTO   H51 4145   4.951   8.630  10.363
    9CHTO   C34 4146   5.054   8.768  10.496
    9CHTO   O23 4147   4.936   8.847  10.509
    9CHTO   H38 4148   4.940   8.902  10.587
    9CHTO   O16 4149   5.014   8.823  10.029
    9CHTO   C24 4150   4.885   8.887  10.029
    9CHTO   H52 4151   4.842   8.893  10.130
    9CHTO   C26 4152   4.790   8.813   9.935
    9CHTO   H54 4153   4.839   8.798   9.837
    9CHTO   O20 4154   4.751   8.684   9.987
    9CHTO   H36 4155   4.696   8.639   9.924
    9CHTO   C30 4156   4.663   8.897   9.913
    9CHTO   H58 4157   4.607   8.909  10.006
    9CHTO    N6 4158   4.574   8.831   9.815
    9CHTO   H45 4159   4.619   8.833   9.718
    9CHTO   H46 4160   4.481   8.886   9.812
    9CHTO   C33 4161   4.705   9.037   9.863
    9CHTO   H61 4162   4.763   9.029   9.769
    9CHTO   O18 4163   4.785   9.100   9.961
    9CHTO   C28 4164   4.910   9.031   9.982
    9CHTO   H56 4165   4.969   9.030   9.890
    9CHTO   C35 4166   4.988   9.110  10.091
    9CHTO   O24 4167   5.021   9.242  10.046
    9CHTO   H39 4168   5.070   9.286  10.114
    9CHTO    O9 4169   4.590   9.114   9.830
    9CHTO   C13 4170   4.618   9.254   9.806
    9CHTO   H26 4171   4.718   9.265   9.761
    9CHTO   C11 4172   4.607   9.329   9.942
    9CHTO   H24 4173   4.701   9.323   9.997
    9CHTO    O8 4174   4.504   9.262  10.016
    9CHTO    H3 4175   4.493   9.299  10.102
    9CHTO    C9 4176   4.572   9.476   9.916
    9CHTO   H22 4177   4.651   9.512   9.849
    9CHTO    N2 4178   4.577   9.558  10.038
    9CHTO   H10 4179   4.674   9.546  10.087
    9CHTO   H11 4180   4.498   9.534  10.107
    9CHTO    C7 4181   4.433   9.485   9.846
    9CHTO   H20 4182   4.445   9.567   9.774
    9CHTO    O4 4183   4.400   9.364   9.779
    9CHTO   C14 4184   4.511   9.309   9.708
    9CHTO   H27 4185   4.558   9.387   9.644
    9CHTO   C18 4186   4.461   9.198   9.613
    9CHTO   O13 4187   4.573   9.137   9.548
    9CHTO    H7 4188   4.544   9.068   9.488
    9CHTO    O2 4189   4.329   9.517   9.941
    9CHTO    C1 4190   4.197   9.522   9.883
    9CHTO   H14 4191   4.170   9.423   9.840
    9CHTO    C2 4192   4.181   9.632   9.774
    9CHTO   H15 4193   4.219   9.728   9.815
    9CHTO    O6 4194   4.250   9.596   9.654
    9CHTO    H1 4195   4.240   9.664   9.589
    9CHTO    C3 4196   4.031   9.645   9.735
    9CHTO   H16 4197   3.997   9.551   9.687
    9CHTO    N1 4198   4.013   9.754   9.639
    9CHTO    H8 4199   4.044   9.847   9.683
    9CHTO    H9 4200   3.910   9.762   9.607
    9CHTO    C4 4201   3.942   9.662   9.861
    9CHTO   H17 4202   3.963   9.761   9.906
    9CHTO    O1 4203   3.966   9.557   9.955
    9CHTO    C5 4204   4.101   9.552  10.000
    9CHTO   H18 4205   4.129   9.647  10.046
    9CHTO   C16 4206   4.108   9.441  10.108
    9CHTO   O11 4207   4.002   9.465  10.202
    9CHTO    H5 4208   4.005   9.401  10.272
    9CHTO    O3 4209   3.805   9.654   9.819
    9CHTO    C6 4210   3.711   9.670   9.928
    9CHTO   H19 4211   3.749   9.628  10.023
    9CHTO    C8 4212   3.673   9.818   9.947
    9CHTO   H21 4213   3.638   9.859   9.851
    9CHTO    O7 4214   3.786   9.892   9.994
    9CHTO    H2 4215   3.765   9.984  10.009
    9CHTO   C12 4216   3.560   9.827  10.052
    9CHTO   H25 4217   3.603   9.791  10.148
    9CHTO    N3 4218   3.524   9.969  10.068
    9CHTO   H12 4219   3.464   9.985  10.157
    9CHTO   H13 4220   3.472  10.005   9.981
    9CHTO   C15 4221   3.441   9.738  10.012
    9CHTO   H28 4222   3.394   9.774   9.920
    9CHTO   O10 4223   3.343   9.730  10.118
    9CHTO    H4 4224   3.302   9.815  10.132
    9CHTO    O5 4225   3.485   9.602   9.995
    9CHTO   C10 4226   3.583   9.593   9.891
    9CHTO   H23 4227   3.540   9.633   9.799
    9CHTO   C17 4228   3.613   9.444   9.869
    9CHTO   O12 4229   3.492   9.375   9.838
    9CHTO    H6 4230   3.507   9.282   9.827
   10CHTO  H203 4231   8.293   3.776   6.195
   10CHTO   O82 4232   8.244   3.841   6.244
   10CHTO  C123 4233   8.126   3.879   6.175
   10CHTO  H227 4234   8.063   3.789   6.159
   10CHTO   O77 4235   8.058   3.975   6.258
   10CHTO  C118 4236   7.932   4.013   6.203
   10CHTO  H222 4237   7.867   3.924   6.190
   10CHTO  C125 4238   7.860   4.112   6.299
   10CHTO   O84 4239   7.842   4.048   6.425
   10CHTO  H205 4240   7.804   4.107   6.489
   10CHTO  C114 4241   7.951   4.083   6.068
   10CHTO  H218 4242   8.007   4.176   6.084
   10CHTO  C116 4243   8.030   3.990   5.971
   10CHTO  H220 4244   7.970   3.902   5.943
   10CHTO   O79 4245   8.065   4.061   5.851
   10CHTO  H201 4246   8.115   4.007   5.792
   10CHTO  C120 4247   8.161   3.947   6.041
   10CHTO  H224 4248   8.221   4.039   6.058
   10CHTO   N21 4249   8.235   3.859   5.951
   10CHTO  H211 4250   8.189   3.761   5.948
   10CHTO  H212 4251   8.339   3.852   5.980
   10CHTO   O75 4252   7.819   4.110   6.023
   10CHTO  C112 4253   7.813   4.194   5.904
   10CHTO  H216 4254   7.853   4.140   5.817
   10CHTO   O73 4255   7.885   4.316   5.931
   10CHTO  C113 4256   7.877   4.407   5.822
   10CHTO  H217 4257   7.913   4.357   5.730
   10CHTO  C124 4258   7.969   4.526   5.851
   10CHTO   O83 4259   8.100   4.478   5.888
   10CHTO  H204 4260   8.156   4.552   5.910
   10CHTO  C109 4261   7.730   4.454   5.799
   10CHTO  H213 4262   7.696   4.500   5.894
   10CHTO  C110 4263   7.649   4.327   5.767
   10CHTO  H214 4264   7.685   4.282   5.673
   10CHTO   O78 4265   7.511   4.359   5.753
   10CHTO  H200 4266   7.459   4.281   5.736
   10CHTO  C111 4267   7.664   4.229   5.884
   10CHTO  H215 4268   7.624   4.275   5.976
   10CHTO   N19 4269   7.590   4.105   5.861
   10CHTO  H207 4270   7.594   4.043   5.949
   10CHTO  H208 4271   7.631   4.051   5.776
   10CHTO   O74 4272   7.722   4.553   5.693
   10CHTO  C115 4273   7.600   4.630   5.697
   10CHTO  H219 4274   7.526   4.585   5.760
   10CHTO   O76 4275   7.622   4.762   5.752
   10CHTO  C122 4276   7.734   4.827   5.689
   10CHTO  H226 4277   7.825   4.781   5.727
   10CHTO  C126 4278   7.740   4.976   5.734
   10CHTO   O85 4279   7.628   5.053   5.687
   10CHTO  H206 4280   7.546   5.015   5.713
   10CHTO  C121 4281   7.730   4.814   5.534
   10CHTO  H225 4282   7.754   4.912   5.487
   10CHTO   O81 4283   7.827   4.716   5.494
   10CHTO  H202 4284   7.915   4.742   5.516
   10CHTO  C119 4285   7.587   4.771   5.491
   10CHTO  H223 4286   7.522   4.846   5.536
   10CHTO  C117 4287   7.543   4.637   5.553
   10CHTO  H221 4288   7.575   4.547   5.499
   10CHTO   N20 4289   7.397   4.629   5.560
   10CHTO  H209 4290   7.354   4.641   5.461
   10CHTO  H210 4291   7.356   4.704   5.626
   10CHTO   O80 4292   7.554   4.784   5.351
   10CHTO  C103 4293   7.650   4.738   5.252
   10CHTO  H190 4294   7.747   4.788   5.267
   10CHTO  C101 4295   7.675   4.584   5.242
   10CHTO  H188 4296   7.580   4.530   5.234
   10CHTO   O68 4297   7.749   4.536   5.357
   10CHTO  H168 4298   7.752   4.440   5.359
   10CHTO   C99 4299   7.759   4.557   5.113
   10CHTO  H186 4300   7.857   4.608   5.120
   10CHTO   N17 4301   7.784   4.413   5.090
   10CHTO  H174 4302   7.691   4.359   5.094
   10CHTO  H175 4303   7.854   4.374   5.162
   10CHTO   C97 4304   7.690   4.613   4.989
   10CHTO  H184 4305   7.591   4.565   4.979
   10CHTO   O64 4306   7.677   4.755   5.006
   10CHTO  C104 4307   7.592   4.787   5.117
   10CHTO  H191 4308   7.494   4.743   5.102
   10CHTO  C108 4309   7.572   4.938   5.122
   10CHTO   O71 4310   7.525   4.983   4.994
   10CHTO  H171 4311   7.516   5.077   4.994
   10CHTO   O62 4312   7.770   4.585   4.874
   10CHTO   C91 4313   7.697   4.584   4.749
   10CHTO  H178 4314   7.622   4.504   4.757
   10CHTO   C92 4315   7.795   4.541   4.639
   10CHTO  H179 4316   7.844   4.445   4.666
   10CHTO   O66 4317   7.720   4.516   4.520
   10CHTO  H166 4318   7.776   4.483   4.450
   10CHTO   C93 4319   7.901   4.650   4.612
   10CHTO  H180 4320   7.944   4.632   4.512
   10CHTO   N16 4321   8.012   4.645   4.708
   10CHTO  H172 4322   7.976   4.667   4.808
   10CHTO  H173 4323   8.088   4.716   4.679
   10CHTO   C94 4324   7.833   4.790   4.613
   10CHTO  H181 4325   7.847   4.841   4.707
   10CHTO   O61 4326   7.692   4.773   4.590
   10CHTO   C95 4327   7.629   4.716   4.706
   10CHTO  H182 4328   7.633   4.789   4.788
   10CHTO  C106 4329   7.479   4.693   4.674
   10CHTO   O69 4330   7.423   4.821   4.641
   10CHTO  H169 4331   7.329   4.813   4.626
   10CHTO   O63 4332   7.893   4.862   4.502
   10CHTO   C96 4333   7.857   5.002   4.499
   10CHTO  H183 4334   7.875   5.044   4.599
   10CHTO   C98 4335   7.710   5.029   4.462
   10CHTO  H185 4336   7.641   4.986   4.536
   10CHTO   O67 4337   7.691   5.170   4.465
   10CHTO  H167 4338   7.599   5.189   4.449
   10CHTO  C102 4339   7.679   4.975   4.318
   10CHTO  H189 4340   7.591   5.031   4.283
   10CHTO   N18 4341   7.643   4.832   4.315
   10CHTO  H176 4342   7.558   4.814   4.381
   10CHTO  H177 4343   7.724   4.768   4.344
   10CHTO  C105 4344   7.798   5.003   4.225
   10CHTO  H192 4345   7.859   4.912   4.215
   10CHTO   O65 4346   7.880   5.109   4.278
   10CHTO  C100 4347   7.950   5.071   4.397
   10CHTO  H187 4348   8.029   5.000   4.368
   10CHTO  C107 4349   8.017   5.196   4.458
   10CHTO   O70 4350   7.918   5.282   4.512
   10CHTO  H170 4351   7.956   5.356   4.557
   10CHTO   O57 4352   7.735   5.037   4.100
   10CHTO   C85 4353   7.822   5.084   3.997
   10CHTO  H157 4354   7.868   5.180   4.028
   10CHTO   C83 4355   7.733   5.114   3.875
   10CHTO  H155 4356   7.652   5.184   3.902
   10CHTO   O56 4357   7.671   4.991   3.834
   10CHTO  H135 4358   7.618   4.954   3.903
   10CHTO   C81 4359   7.816   5.174   3.761
   10CHTO  H153 4360   7.843   5.277   3.786
   10CHTO   N14 4361   7.738   5.176   3.637
   10CHTO  H141 4362   7.652   5.239   3.651
   10CHTO  H142 4363   7.704   5.076   3.611
   10CHTO   C79 4364   7.946   5.092   3.739
   10CHTO  H151 4365   8.029   5.150   3.784
   10CHTO   O52 4366   7.938   4.965   3.808
   10CHTO   C86 4367   7.929   4.980   3.952
   10CHTO  H158 4368   7.901   4.879   3.987
   10CHTO   C90 4369   8.066   5.011   4.013
   10CHTO   O60 4370   8.165   4.933   3.944
   10CHTO  H138 4371   8.251   4.952   3.979
   10CHTO   O50 4372   7.971   5.073   3.600
   10CHTO   C73 4373   8.090   4.998   3.569
   10CHTO  H145 4374   8.092   4.902   3.622
   10CHTO   C74 4375   8.219   5.077   3.600
   10CHTO  H146 4376   8.227   5.094   3.708
   10CHTO   O54 4377   8.332   4.999   3.560
   10CHTO  H133 4378   8.411   5.047   3.581
   10CHTO   C75 4379   8.214   5.209   3.520
   10CHTO  H147 4380   8.124   5.266   3.551
   10CHTO   N13 4381   8.335   5.290   3.547
   10CHTO  H139 4382   8.341   5.313   3.652
   10CHTO  H140 4383   8.330   5.382   3.491
   10CHTO   C76 4384   8.204   5.173   3.370
   10CHTO  H148 4385   8.296   5.119   3.343
   10CHTO   O49 4386   8.087   5.093   3.342
   10CHTO   C77 4387   8.085   4.971   3.416
   10CHTO  H149 4388   8.170   4.909   3.388
   10CHTO   C88 4389   7.958   4.891   3.381
   10CHTO   O58 4390   7.957   4.862   3.239
   10CHTO  H136 4391   7.883   4.809   3.214
   10CHTO   O51 4392   8.189   5.297   3.297
   10CHTO   C78 4393   8.183   5.279   3.154
   10CHTO  H150 4394   8.128   5.187   3.127
   10CHTO   C80 4395   8.325   5.272   3.094
   10CHTO  H152 4396   8.383   5.360   3.127
   10CHTO   O55 4397   8.390   5.152   3.137
   10CHTO  H134 4398   8.480   5.148   3.106
   10CHTO   C84 4399   8.315   5.271   2.940
   10CHTO  H156 4400   8.265   5.179   2.908
   10CHTO   N15 4401   8.449   5.273   2.881
   10CHTO  H143 4402   8.499   5.364   2.911
   10CHTO  H144 4403   8.441   5.271   2.773
   10CHTO   C87 4404   8.233   5.393   2.893
   10CHTO  H159 4405   8.286   5.485   2.921
   10CHTO   O53 4406   8.102   5.387   2.953
   10CHTO   C82 4407   8.108   5.399   3.095
   10CHTO  H154 4408   8.157   5.494   3.123
   10CHTO   C89 4409   7.965   5.404   3.153
   10CHTO   O59 4410   7.896   5.514   3.092
   10CHTO  H137 4411   7.807   5.517   3.125
   10CHTO   O45 4412   8.221   5.384   2.749
   10CHTO   C67 4413   8.118   5.470   2.698
   10CHTO  H124 4414   8.020   5.439   2.737
   10CHTO   C65 4415   8.143   5.617   2.740
   10CHTO  H122 4416   8.251   5.633   2.741
   10CHTO   O44 4417   8.086   5.633   2.871
   10CHTO  H102 4418   8.105   5.718   2.909
   10CHTO   C63 4419   8.084   5.713   2.634
   10CHTO  H120 4420   8.160   5.731   2.556
   10CHTO   N11 4421   8.053   5.848   2.687
   10CHTO  H108 4422   8.140   5.890   2.733
   10CHTO  H109 4423   7.973   5.843   2.761
   10CHTO   C61 4424   7.959   5.650   2.569
   10CHTO  H118 4425   7.918   5.725   2.499
   10CHTO   O40 4426   7.994   5.535   2.493
   10CHTO   C68 4427   8.108   5.462   2.544
   10CHTO  H125 4428   8.200   5.504   2.500
   10CHTO   C72 4429   8.098   5.315   2.496
   10CHTO   O48 4430   8.214   5.239   2.529
   10CHTO  H105 4431   8.206   5.150   2.495
   10CHTO   O38 4432   7.859   5.612   2.665
   10CHTO   C55 4433   7.731   5.597   2.601
   10CHTO  H112 4434   7.745   5.558   2.499
   10CHTO   C56 4435   7.650   5.729   2.603
   10CHTO  H113 4436   7.632   5.756   2.709
   10CHTO   O42 4437   7.722   5.839   2.544
   10CHTO  H100 4438   7.675   5.921   2.557
   10CHTO   C57 4439   7.516   5.708   2.530
   10CHTO  H114 4440   7.535   5.683   2.425
   10CHTO   N10 4441   7.432   5.830   2.536
   10CHTO  H106 4442   7.328   5.805   2.523
   10CHTO  H107 4443   7.463   5.901   2.462
   10CHTO   C58 4444   7.442   5.592   2.596
   10CHTO  H115 4445   7.411   5.622   2.699
   10CHTO   O37 4446   7.522   5.473   2.602
   10CHTO   C59 4447   7.644   5.494   2.676
   10CHTO  H116 4448   7.621   5.527   2.778
   10CHTO   C70 4449   7.714   5.357   2.680
   10CHTO   O46 4450   7.628   5.256   2.734
   10CHTO  H103 4451   7.675   5.175   2.740
   10CHTO   O39 4452   7.325   5.567   2.516
   10CHTO   C60 4453   7.256   5.446   2.547
   10CHTO  H117 4454   7.322   5.361   2.530
   10CHTO   C62 4455   7.204   5.443   2.692
   10CHTO  H119 4456   7.292   5.436   2.759
   10CHTO   O43 4457   7.133   5.564   2.718
   10CHTO  H101 4458   7.108   5.572   2.810
   10CHTO   C66 4459   7.115   5.317   2.710
   10CHTO  H123 4460   7.177   5.228   2.695
   10CHTO   N12 4461   7.058   5.310   2.844
   10CHTO  H110 4462   6.981   5.385   2.857
   10CHTO  H111 4463   7.135   5.320   2.918
   10CHTO   C69 4464   7.002   5.319   2.605
   10CHTO  H126 4465   6.941   5.410   2.618
   10CHTO   O41 4466   7.061   5.313   2.475
   10CHTO   C64 4467   7.139   5.431   2.448
   10CHTO  H121 4468   7.074   5.522   2.456
   10CHTO   C71 4469   7.192   5.425   2.303
   10CHTO   O47 4470   7.080   5.406   2.216
   10CHTO  H104 4471   7.109   5.402   2.125
   10CHTO   O34 4472   6.923   5.203   2.636
   10CHTO   C49 4473   6.787   5.207   2.585
   10CHTO   H91 4474   6.738   5.296   2.626
   10CHTO   C47 4475   6.721   5.079   2.637
   10CHTO   H89 4476   6.617   5.077   2.598
   10CHTO   O33 4477   6.717   5.073   2.781
   10CHTO   H70 4478   6.665   5.145   2.815
   10CHTO   C45 4479   6.803   4.957   2.586
   10CHTO   H87 4480   6.881   4.930   2.657
   10CHTO    N8 4481   6.711   4.843   2.570
   10CHTO   H75 4482   6.658   4.828   2.663
   10CHTO   H76 4483   6.766   4.753   2.545
   10CHTO   C43 4484   6.871   4.990   2.450
   10CHTO   H85 4485   6.966   5.039   2.471
   10CHTO   O29 4486   6.781   5.073   2.376
   10CHTO   C50 4487   6.776   5.205   2.432
   10CHTO   H92 4488   6.858   5.266   2.389
   10CHTO   C54 4489   6.647   5.277   2.384
   10CHTO   O36 4490   6.648   5.284   2.240
   10CHTO   H72 4491   6.571   5.329   2.210
   10CHTO   O27 4492   6.898   4.868   2.379
   10CHTO   C37 4493   6.946   4.885   2.245
   10CHTO   H79 4494   6.873   4.941   2.184
   10CHTO   C38 4495   7.079   4.963   2.241
   10CHTO   H80 4496   7.148   4.919   2.316
   10CHTO   O31 4497   7.055   5.100   2.271
   10CHTO   H68 4498   7.135   5.151   2.271
   10CHTO   C39 4499   7.142   4.957   2.100
   10CHTO   H81 4500   7.075   5.011   2.031
   10CHTO    N7 4501   7.273   5.024   2.098
   10CHTO   H73 4502   7.310   5.032   1.997
   10CHTO   H74 4503   7.344   4.970   2.159
   10CHTO   C40 4504   7.155   4.812   2.049
   10CHTO   H82 4505   7.223   4.755   2.115
   10CHTO   O26 4506   7.023   4.755   2.048
   10CHTO   C41 4507   6.967   4.746   2.182
   10CHTO   H83 4508   7.035   4.687   2.245
   10CHTO   C52 4509   6.834   4.671   2.167
   10CHTO   O35 4510   6.852   4.544   2.102
   10CHTO   H71 4511   6.772   4.493   2.104
   10CHTO   O28 4512   7.208   4.812   1.916
   10CHTO   C42 4513   7.232   4.683   1.857
   10CHTO   H84 4514   7.263   4.705   1.754
   10CHTO   C44 4515   7.110   4.590   1.846
   10CHTO   H86 4516   7.081   4.556   1.946
   10CHTO   O32 4517   7.000   4.660   1.786
   10CHTO   H69 4518   6.923   4.605   1.785
   10CHTO   C48 4519   7.151   4.466   1.762
   10CHTO   H90 4520   7.183   4.498   1.662
   10CHTO    N9 4521   7.035   4.375   1.744
   10CHTO   H77 4522   7.009   4.328   1.837
   10CHTO   H78 4523   7.056   4.301   1.669
   10CHTO   C51 4524   7.269   4.396   1.836
   10CHTO   H93 4525   7.234   4.365   1.935
   10CHTO   O30 4526   7.377   4.487   1.842
   10CHTO   C46 4527   7.348   4.603   1.922
   10CHTO   H88 4528   7.320   4.573   2.024
   10CHTO   C53 4529   7.478   4.687   1.924
   10CHTO   O72 4530   7.461   4.803   2.007
   10CHTO  H199 4531   7.539   4.855   2.009
   10CHTO   O22 4532   7.308   4.282   1.756
   10CHTO   C31 4533   7.411   4.196   1.814
   10CHTO   H59 4534   7.432   4.119   1.737
   10CHTO   C29 4535   7.545   4.265   1.845
   10CHTO   H57 4536   7.533   4.337   1.927
   10CHTO   O21 4537   7.594   4.337   1.732
   10CHTO   H37 4538   7.607   4.277   1.659
   10CHTO   C27 4539   7.646   4.156   1.889
   10CHTO   H55 4540   7.662   4.087   1.803
   10CHTO    N5 4541   7.774   4.218   1.925
   10CHTO   H43 4542   7.764   4.289   2.006
   10CHTO   H44 4543   7.821   4.267   1.840
   10CHTO   C25 4544   7.589   4.080   2.009
   10CHTO   H53 4545   7.577   4.152   2.092
   10CHTO   O17 4546   7.461   4.022   1.977
   10CHTO   C32 4547   7.364   4.120   1.940
   10CHTO   H60 4548   7.350   4.193   2.022
   10CHTO   C36 4549   7.232   4.046   1.914
   10CHTO   O25 4550   7.188   3.985   2.035
   10CHTO   H40 4551   7.103   3.943   2.022
   10CHTO   O15 4552   7.685   3.978   2.046
   10CHTO   C19 4553   7.652   3.906   2.167
   10CHTO   H47 4554   7.733   3.832   2.175
   10CHTO   C20 4555   7.653   3.990   2.296
   10CHTO   H48 4556   7.573   4.065   2.297
   10CHTO   O19 4557   7.780   4.057   2.304
   10CHTO   H35 4558   7.784   4.109   2.385
   10CHTO   C21 4559   7.635   3.895   2.416
   10CHTO   H49 4560   7.720   3.825   2.420
   10CHTO    N4 4561   7.634   3.971   2.542
   10CHTO   H41 4562   7.627   3.902   2.625
   10CHTO   H42 4563   7.548   4.038   2.544
   10CHTO   C22 4564   7.505   3.817   2.398
   10CHTO   H50 4565   7.421   3.888   2.395
   10CHTO   O14 4566   7.509   3.740   2.276
   10CHTO   C23 4567   7.521   3.823   2.160
   10CHTO   H51 4568   7.431   3.889   2.157
   10CHTO   C34 4569   7.521   3.731   2.038
   10CHTO   O23 4570   7.398   3.659   2.035
   10CHTO   H38 4571   7.396   3.596   1.964
   10CHTO   O16 4572   7.493   3.728   2.508
   10CHTO   C24 4573   7.361   3.672   2.519
   10CHTO   H52 4574   7.314   3.659   2.420
   10CHTO   C26 4575   7.273   3.762   2.607
   10CHTO   H54 4576   7.326   3.784   2.701
   10CHTO   O20 4577   7.240   3.886   2.542
   10CHTO   H36 4578   7.190   3.941   2.602
   10CHTO   C30 4579   7.143   3.688   2.641
   10CHTO   H58 4580   7.083   3.670   2.551
   10CHTO    N6 4581   7.060   3.770   2.733
   10CHTO   H45 4582   7.109   3.775   2.829
   10CHTO   H46 4583   6.965   3.721   2.745
   10CHTO   C33 4584   7.178   3.552   2.704
   10CHTO   H61 4585   7.239   3.566   2.795
   10CHTO   O18 4586   7.251   3.474   2.611
   10CHTO   C28 4587   7.379   3.532   2.580
   10CHTO   H56 4588   7.441   3.539   2.670
   10CHTO   C35 4589   7.448   3.438   2.478
   10CHTO   O24 4590   7.474   3.310   2.535
   10CHTO   H39 4591   7.519   3.256   2.471
   10CHTO    O9 4592   7.059   3.486   2.748
   10CHTO   C13 4593   7.080   3.348   2.786
   10CHTO   H26 4594   7.180   3.336   2.829
   10CHTO   C11 4595   7.059   3.260   2.659
   10CHTO   H24 4596   7.153   3.255   2.601
   10CHTO    O8 4597   6.959   3.325   2.581
   10CHTO    H3 4598   6.942   3.280   2.500
   10CHTO    C9 4599   7.017   3.119   2.701
   10CHTO   H22 4600   7.095   3.085   2.770
   10CHTO    N2 4601   7.013   3.024   2.588
   10CHTO   H10 4602   7.109   3.025   2.536
   10CHTO   H11 4603   6.933   3.046   2.520
   10CHTO    C7 4604   6.880   3.126   2.775
   10CHTO   H20 4605   6.890   3.051   2.855
   10CHTO    O4 4606   6.856   3.255   2.830
   10CHTO   C14 4607   6.973   3.310   2.892
   10CHTO   H27 4608   7.017   3.236   2.963
   10CHTO   C18 4609   6.932   3.433   2.976
   10CHTO   O13 4610   7.050   3.493   3.031
   10CHTO    H7 4611   7.027   3.569   3.084
   10CHTO    O2 4612   6.771   3.091   2.687
   10CHTO    C1 4613   6.641   3.100   2.748
   10CHTO   H14 4614   6.622   3.204   2.782
   10CHTO    C2 4615   6.622   3.003   2.869
   10CHTO   H15 4616   6.653   2.902   2.838
   10CHTO    O6 4617   6.697   3.047   2.983
   10CHTO    H1 4618   6.685   2.987   3.055
   10CHTO    C3 4619   6.473   3.004   2.913
   10CHTO   H16 4620   6.446   3.104   2.952
   10CHTO    N1 4621   6.452   2.907   3.021
   10CHTO    H8 4622   6.476   2.807   2.986
   10CHTO    H9 4623   6.350   2.909   3.056
   10CHTO    C4 4624   6.379   2.979   2.792
   10CHTO   H17 4625   6.393   2.875   2.757
   10CHTO    O1 4626   6.406   3.073   2.687
   10CHTO    C5 4627   6.539   3.064   2.638
   10CHTO   H18 4628   6.560   2.963   2.602
   10CHTO   C16 4629   6.549   3.163   2.518
   10CHTO   O11 4630   6.439   3.135   2.431
   10CHTO    H5 4631   6.444   3.192   2.354
   10CHTO    O3 4632   6.244   3.000   2.836
   10CHTO    C6 4633   6.146   2.979   2.733
   10CHTO   H19 4634   6.183   3.008   2.633
   10CHTO    C8 4635   6.099   2.832   2.730
   10CHTO   H21 4636   6.064   2.804   2.831
   10CHTO    O7 4637   6.206   2.747   2.688
   10CHTO    H2 4638   6.178   2.656   2.683
   10CHTO   C12 4639   5.982   2.819   2.630
   10CHTO   H25 4640   6.023   2.842   2.529
   10CHTO    N3 4641   5.936   2.679   2.629
   10CHTO   H12 4642   5.873   2.658   2.545
   10CHTO   H13 4643   5.885   2.656   2.721
   10CHTO   C15 4644   5.870   2.920   2.663
   10CHTO   H28 4645   5.823   2.897   2.759
   10CHTO   O10 4646   5.769   2.922   2.560
   10CHTO    H4 4647   5.722   2.839   2.555
   10CHTO    O5 4648   5.922   3.053   2.664
   10CHTO   C10 4649   6.024   3.068   2.765
   10CHTO   H23 4650   5.982   3.040   2.861
   10CHTO   C17 4651   6.064   3.216   2.770
   10CHTO   O12 4652   5.948   3.295   2.797
   10CHTO    H6 4653   5.969   3.388   2.797
   11CHTO  H203 4654   8.559   9.536  -2.020
   11CHTO   O82 4655   8.650   9.541  -2.050
   11CHTO  C123 4656   8.733   9.453  -1.976
   11CHTO  H227 4657   8.697   9.350  -1.989
   11CHTO   O77 4658   8.866   9.468  -2.030
   11CHTO  C118 4659   8.958   9.376  -1.970
   11CHTO  H222 4660   8.924   9.272  -1.985
   11CHTO  C125 4661   9.099   9.392  -2.035
   11CHTO   O84 4662   9.087   9.366  -2.175
   11CHTO  H205 4663   9.170   9.380  -2.219
   11CHTO  C114 4664   8.972   9.404  -1.819
   11CHTO  H218 4665   9.014   9.505  -1.806
   11CHTO  C116 4666   8.832   9.399  -1.751
   11CHTO  H220 4667   8.792   9.295  -1.752
   11CHTO   O79 4668   8.840   9.442  -1.615
   11CHTO  H201 4669   8.755   9.441  -1.573
   11CHTO  C120 4670   8.737   9.494  -1.827
   11CHTO  H224 4671   8.776   9.597  -1.815
   11CHTO   N21 4672   8.605   9.487  -1.765
   11CHTO  H211 4673   8.555   9.395  -1.792
   11CHTO  H212 4674   8.545   9.573  -1.792
   11CHTO   O75 4675   9.061   9.304  -1.772
   11CHTO  C112 4676   9.103   9.323  -1.634
   11CHTO  H216 4677   9.018   9.308  -1.566
   11CHTO   O73 4678   9.161   9.454  -1.622
   11CHTO  C113 4679   9.214   9.477  -1.492
   11CHTO  H217 4680   9.133   9.461  -1.417
   11CHTO  C124 4681   9.258   9.623  -1.482
   11CHTO   O83 4682   9.152   9.710  -1.528
   11CHTO  H204 4683   9.182   9.801  -1.526
   11CHTO  C109 4684   9.331   9.380  -1.460
   11CHTO  H213 4685   9.408   9.396  -1.539
   11CHTO  C110 4686   9.273   9.238  -1.469
   11CHTO  H214 4687   9.196   9.223  -1.392
   11CHTO   O78 4688   9.376   9.141  -1.451
   11CHTO  H200 4689   9.341   9.053  -1.459
   11CHTO  C111 4690   9.213   9.218  -1.609
   11CHTO  H215 4691   9.293   9.229  -1.685
   11CHTO   N19 4692   9.155   9.084  -1.625
   11CHTO  H207 4693   9.124   9.071  -1.727
   11CHTO  H208 4694   9.071   9.071  -1.559
   11CHTO   O74 4695   9.390   9.408  -1.331
   11CHTO  C115 4696   9.522   9.353  -1.315
   11CHTO  H219 4697   9.545   9.279  -1.391
   11CHTO   O76 4698   9.624   9.454  -1.329
   11CHTO  C122 4699   9.595   9.569  -1.247
   11CHTO  H226 4700   9.514   9.624  -1.293
   11CHTO  C126 4701   9.718   9.665  -1.246
   11CHTO   O85 4702   9.833   9.608  -1.181
   11CHTO  H206 4703   9.858   9.526  -1.220
   11CHTO  C121 4704   9.554   9.528  -1.102
   11CHTO  H225 4705   9.605   9.593  -1.028
   11CHTO   O81 4706   9.412   9.545  -1.090
   11CHTO  H202 4707   9.385   9.634  -1.101
   11CHTO  C119 4708   9.594   9.381  -1.077
   11CHTO  H223 4709   9.701   9.378  -1.101
   11CHTO  C117 4710   9.529   9.283  -1.177
   11CHTO  H221 4711   9.429   9.248  -1.151
   11CHTO   N20 4712   9.611   9.161  -1.190
   11CHTO  H209 4713   9.623   9.114  -1.094
   11CHTO  H210 4714   9.708   9.182  -1.233
   11CHTO   O80 4715   9.593   9.334  -0.941
   11CHTO  C103 4716   9.479   9.367  -0.857
   11CHTO  H190 4717   9.464   9.476  -0.854
   11CHTO  C101 4718   9.343   9.300  -0.892
   11CHTO  H188 4719   9.354   9.192  -0.902
   11CHTO   O68 4720   9.287   9.355  -1.013
   11CHTO  H168 4721   9.211   9.305  -1.043
   11CHTO   C99 4722   9.244   9.328  -0.774
   11CHTO  H186 4723   9.228   9.437  -0.763
   11CHTO   N17 4724   9.112   9.264  -0.793
   11CHTO  H174 4725   9.125   9.159  -0.815
   11CHTO  H175 4726   9.056   9.313  -0.871
   11CHTO   C97 4727   9.301   9.279  -0.640
   11CHTO  H184 4728   9.319   9.171  -0.648
   11CHTO   O64 4729   9.422   9.351  -0.616
   11CHTO  C104 4730   9.522   9.322  -0.715
   11CHTO  H191 4731   9.542   9.215  -0.716
   11CHTO  C108 4732   9.652   9.390  -0.676
   11CHTO   O71 4733   9.687   9.352  -0.542
   11CHTO  H171 4734   9.765   9.397  -0.515
   11CHTO   O62 4735   9.206   9.307  -0.536
   11CHTO   C91 4736   9.221   9.223  -0.420
   11CHTO  H178 4737   9.205   9.119  -0.452
   11CHTO   C92 4738   9.106   9.256  -0.324
   11CHTO  H179 4739   9.008   9.248  -0.377
   11CHTO   O66 4740   9.104   9.159  -0.220
   11CHTO  H166 4741   9.030   9.173  -0.161
   11CHTO   C93 4742   9.123   9.397  -0.263
   11CHTO  H180 4743   9.061   9.403  -0.172
   11CHTO   N16 4744   9.075   9.503  -0.354
   11CHTO  H172 4745   9.135   9.506  -0.443
   11CHTO  H173 4746   9.079   9.598  -0.303
   11CHTO   C94 4747   9.272   9.420  -0.225
   11CHTO  H181 4748   9.324   9.479  -0.300
   11CHTO   O61 4749   9.336   9.292  -0.212
   11CHTO   C95 4750   9.354   9.233  -0.342
   11CHTO  H182 4751   9.426   9.292  -0.399
   11CHTO  C106 4752   9.417   9.092  -0.322
   11CHTO   O69 4753   9.542   9.111  -0.255
   11CHTO  H169 4754   9.588   9.028  -0.246
   11CHTO   O63 4755   9.269   9.488  -0.097
   11CHTO   C96 4756   9.397   9.536  -0.055
   11CHTO  H183 4757   9.441   9.593  -0.137
   11CHTO   C98 4758   9.497   9.424  -0.015
   11CHTO  H185 4759   9.521   9.359  -0.100
   11CHTO   O67 4760   9.619   9.488   0.023
   11CHTO  H167 4761   9.684   9.421   0.040
   11CHTO  C102 4762   9.441   9.342   0.106
   11CHTO  H189 4763   9.528   9.295   0.153
   11CHTO   N18 4764   9.351   9.232   0.066
   11CHTO  H176 4765   9.401   9.166  -0.004
   11CHTO  H177 4766   9.259   9.268   0.022
   11CHTO  C105 4767   9.373   9.436   0.206
   11CHTO  H192 4768   9.264   9.433   0.191
   11CHTO   O65 4769   9.419   9.571   0.189
   11CHTO  C100 4770   9.374   9.629   0.066
   11CHTO  H187 4771   9.266   9.648   0.075
   11CHTO  C107 4772   9.445   9.765   0.046
   11CHTO   O70 4773   9.583   9.743   0.017
   11CHTO  H170 4774   9.628   9.824  -0.003
   11CHTO   O57 4775   9.409   9.379   0.334
   11CHTO   C85 4776   9.372   9.456   0.449
   11CHTO  H157 4777   9.426   9.553   0.448
   11CHTO   C83 4778   9.420   9.377   0.571
   11CHTO  H155 4779   9.528   9.356   0.564
   11CHTO   O56 4780   9.352   9.250   0.573
   11CHTO  H135 4781   9.369   9.201   0.495
   11CHTO   C81 4782   9.393   9.455   0.700
   11CHTO  H153 4783   9.463   9.539   0.707
   11CHTO   N14 4784   9.414   9.369   0.818
   11CHTO  H141 4785   9.517   9.337   0.820
   11CHTO  H142 4786   9.350   9.281   0.812
   11CHTO   C79 4787   9.249   9.511   0.701
   11CHTO  H151 4788   9.255   9.619   0.678
   11CHTO   O52 4789   9.169   9.447   0.598
   11CHTO   C86 4790   9.218   9.476   0.464
   11CHTO  H158 4791   9.163   9.404   0.401
   11CHTO   C90 4792   9.175   9.616   0.419
   11CHTO   O60 4793   9.041   9.639   0.466
   11CHTO  H138 4794   9.013   9.726   0.440
   11CHTO   O50 4795   9.188   9.493   0.830
   11CHTO   C73 4796   9.053   9.542   0.841
   11CHTO  H145 4797   8.989   9.500   0.762
   11CHTO   C74 4798   9.046   9.696   0.838
   11CHTO  H146 4799   9.078   9.733   0.739
   11CHTO   O54 4800   8.910   9.737   0.856
   11CHTO  H133 4801   8.905   9.831   0.852
   11CHTO   C75 4802   9.134   9.750   0.952
   11CHTO  H147 4803   9.238   9.715   0.937
   11CHTO   N13 4804   9.132   9.898   0.954
   11CHTO  H139 4805   9.169   9.936   0.860
   11CHTO  H140 4806   9.194   9.934   1.034
   11CHTO   C76 4807   9.079   9.693   1.085
   11CHTO  H148 4808   8.977   9.732   1.098
   11CHTO   O49 4809   9.079   9.549   1.085
   11CHTO   C77 4810   9.001   9.493   0.979
   11CHTO  H149 4811   8.897   9.522   0.990
   11CHTO   C88 4812   9.006   9.339   0.986
   11CHTO   O58 4813   8.953   9.295   1.112
   11CHTO  H136 4814   8.949   9.201   1.119
   11CHTO   O51 4815   9.168   9.735   1.191
   11CHTO   C78 4816   9.126   9.694   1.322
   11CHTO  H150 4817   9.081   9.592   1.320
   11CHTO   C80 4818   9.024   9.792   1.382
   11CHTO  H152 4819   9.067   9.895   1.377
   11CHTO   O55 4820   8.902   9.786   1.307
   11CHTO  H134 4821   8.840   9.851   1.338
   11CHTO   C84 4822   8.995   9.754   1.528
   11CHTO  H156 4823   8.946   9.657   1.530
   11CHTO   N15 4824   8.905   9.853   1.589
   11CHTO  H143 4825   8.953   9.949   1.588
   11CHTO  H144 4826   8.885   9.824   1.691
   11CHTO   C87 4827   9.128   9.746   1.606
   11CHTO  H159 4828   9.175   9.846   1.608
   11CHTO   O53 4829   9.214   9.649   1.544
   11CHTO   C82 4830   9.251   9.688   1.411
   11CHTO  H154 4831   9.302   9.785   1.413
   11CHTO   C89 4832   9.351   9.585   1.353
   11CHTO   O59 4833   9.464   9.579   1.441
   11CHTO  H137 4834   9.525   9.516   1.409
   11CHTO   O45 4835   9.097   9.704   1.741
   11CHTO   C67 4836   9.213   9.658   1.812
   11CHTO  H124 4837   9.255   9.570   1.763
   11CHTO   C65 4838   9.322   9.769   1.815
   11CHTO  H122 4839   9.271   9.865   1.822
   11CHTO   O44 4840   9.397   9.756   1.693
   11CHTO  H102 4841   9.460   9.827   1.682
   11CHTO   C63 4842   9.408   9.754   1.942
   11CHTO  H120 4843   9.361   9.810   2.025
   11CHTO   N11 4844   9.543   9.814   1.930
   11CHTO  H108 4845   9.535   9.917   1.901
   11CHTO  H109 4846   9.602   9.760   1.856
   11CHTO   C61 4847   9.418   9.605   1.983
   11CHTO  H118 4848   9.485   9.600   2.071
   11CHTO   O40 4849   9.291   9.555   2.023
   11CHTO   C68 4850   9.179   9.616   1.956
   11CHTO  H125 4851   9.148   9.705   2.014
   11CHTO   C72 4852   9.060   9.517   1.959
   11CHTO   O48 4853   8.939   9.575   1.909
   11CHTO  H105 4854   8.868   9.513   1.915
   11CHTO   O38 4855   9.468   9.521   1.877
   11CHTO   C55 4856   9.517   9.397   1.930
   11CHTO  H112 4857   9.457   9.367   2.017
   11CHTO   C56 4858   9.669   9.405   1.965
   11CHTO  H113 4859   9.723   9.426   1.871
   11CHTO   O42 4860   9.699   9.513   2.055
   11CHTO  H100 4861   9.793   9.523   2.066
   11CHTO   C57 4862   9.715   9.271   2.025
   11CHTO  H114 4863   9.661   9.252   2.118
   11CHTO   N10 4864   9.861   9.272   2.052
   11CHTO  H106 4865   9.899   9.172   2.054
   11CHTO  H107 4866   9.881   9.322   2.145
   11CHTO   C58 4867   9.682   9.159   1.925
   11CHTO  H115 4868   9.747   9.171   1.835
   11CHTO   O37 4869   9.544   9.160   1.888
   11CHTO   C59 4870   9.505   9.284   1.826
   11CHTO  H116 4871   9.567   9.303   1.738
   11CHTO   C70 4872   9.358   9.266   1.785
   11CHTO   O46 4873   9.342   9.150   1.701
   11CHTO  H103 4874   9.252   9.144   1.673
   11CHTO   O39 4875   9.714   9.036   1.992
   11CHTO   C60 4876   9.667   8.919   1.924
   11CHTO  H117 4877   9.558   8.921   1.917
   11CHTO   C62 4878   9.727   8.903   1.783
   11CHTO  H119 4879   9.685   8.983   1.720
   11CHTO   O43 4880   9.869   8.918   1.792
   11CHTO  H101 4881   9.910   8.919   1.706
   11CHTO   C66 4882   9.685   8.765   1.728
   11CHTO  H123 4883   9.576   8.762   1.717
   11CHTO   N12 4884   9.743   8.740   1.595
   11CHTO  H110 4885   9.849   8.723   1.603
   11CHTO  H111 4886   9.721   8.822   1.530
   11CHTO   C69 4887   9.730   8.654   1.825
   11CHTO  H126 4888   9.840   8.658   1.837
   11CHTO   O41 4889   9.662   8.673   1.949
   11CHTO   C64 4890   9.703   8.796   2.012
   11CHTO  H121 4891   9.813   8.796   2.028
   11CHTO   C71 4892   9.635   8.809   2.150
   11CHTO   O47 4893   9.667   8.690   2.224
   11CHTO  H104 4894   9.627   8.694   2.311
   11CHTO   O34 4895   9.693   8.531   1.760
   11CHTO   C49 4896   9.765   8.414   1.805
   11CHTO   H91 4897   9.872   8.432   1.791
   11CHTO   C47 4898   9.715   8.300   1.716
   11CHTO   H89 4899   9.766   8.207   1.750
   11CHTO   O33 4900   9.745   8.320   1.577
   11CHTO   H70 4901   9.838   8.326   1.564
   11CHTO   C45 4902   9.561   8.288   1.732
   11CHTO   H87 4903   9.509   8.350   1.658
   11CHTO    N8 4904   9.522   8.148   1.711
   11CHTO   H75 4905   9.562   8.114   1.616
   11CHTO   H76 4906   9.415   8.137   1.711
   11CHTO   C43 4907   9.517   8.335   1.874
   11CHTO   H85 4908   9.504   8.443   1.870
   11CHTO   O29 4909   9.618   8.294   1.966
   11CHTO   C50 4910   9.736   8.374   1.951
   11CHTO   H92 4911   9.726   8.466   2.012
   11CHTO   C54 4912   9.857   8.301   2.014
   11CHTO   O36 4913   9.830   8.278   2.153
   11CHTO   H72 4914   9.904   8.234   2.194
   11CHTO   O27 4915   9.391   8.275   1.906
   11CHTO   C37 4916   9.346   8.298   2.041
   11CHTO   H79 4917   9.419   8.258   2.114
   11CHTO   C38 4918   9.327   8.448   2.071
   11CHTO   H80 4919   9.269   8.494   1.989
   11CHTO   O31 4920   9.455   8.510   2.082
   11CHTO   H68 4921   9.448   8.603   2.099
   11CHTO   C39 4922   9.255   8.469   2.207
   11CHTO   H81 4923   9.321   8.431   2.286
   11CHTO    N7 4924   9.229   8.612   2.231
   11CHTO   H73 4925   9.192   8.626   2.331
   11CHTO   H74 4926   9.159   8.650   2.159
   11CHTO   C40 4927   9.123   8.389   2.213
   11CHTO   H82 4928   9.053   8.425   2.135
   11CHTO   O26 4929   9.156   8.251   2.194
   11CHTO   C41 4930   9.211   8.226   2.062
   11CHTO   H83 4931   9.139   8.260   1.986
   11CHTO   C52 4932   9.228   8.073   2.050
   11CHTO   O35 4933   9.104   8.005   2.076
   11CHTO   H71 4934   9.112   7.912   2.057
   11CHTO   O28 4935   9.062   8.406   2.342
   11CHTO   C42 4936   8.935   8.342   2.361
   11CHTO   H84 4937   8.911   8.360   2.467
   11CHTO   C44 4938   8.932   8.190   2.342
   11CHTO   H86 4939   8.944   8.167   2.235
   11CHTO   O32 4940   9.038   8.128   2.416
   11CHTO   H69 4941   9.040   8.035   2.398
   11CHTO   C48 4942   8.793   8.138   2.386
   11CHTO   H90 4943   8.777   8.162   2.492
   11CHTO    N9 4944   8.786   7.990   2.374
   11CHTO   H77 4945   8.785   7.961   2.271
   11CHTO   H78 4946   8.699   7.951   2.425
   11CHTO   C51 4947   8.685   8.209   2.299
   11CHTO   H93 4948   8.703   8.183   2.195
   11CHTO   O30 4949   8.694   8.348   2.323
   11CHTO   C46 4950   8.819   8.404   2.279
   11CHTO   H88 4951   8.834   8.384   2.172
   11CHTO   C53 4952   8.809   8.556   2.306
   11CHTO   O72 4953   8.927   8.623   2.259
   11CHTO  H199 4954   8.922   8.716   2.275
   11CHTO   O22 4955   8.556   8.162   2.343
   11CHTO   C31 4956   8.441   8.209   2.266
   11CHTO   H59 4957   8.352   8.168   2.317
   11CHTO   C29 4958   8.423   8.361   2.259
   11CHTO   H57 4959   8.505   8.407   2.202
   11CHTO   O21 4960   8.425   8.419   2.390
   11CHTO   H37 4961   8.355   8.382   2.443
   11CHTO   C27 4962   8.289   8.391   2.189
   11CHTO   H55 4963   8.207   8.349   2.251
   11CHTO    N5 4964   8.270   8.536   2.176
   11CHTO   H43 4965   8.348   8.582   2.119
   11CHTO   H44 4966   8.262   8.584   2.273
   11CHTO   C25 4967   8.289   8.326   2.050
   11CHTO   H53 4968   8.370   8.372   1.991
   11CHTO   O17 4969   8.312   8.184   2.060
   11CHTO   C32 4970   8.437   8.153   2.121
   11CHTO   H60 4971   8.520   8.198   2.064
   11CHTO   C36 4972   8.452   8.000   2.121
   11CHTO   O25 4973   8.457   7.953   1.986
   11CHTO   H40 4974   8.470   7.859   1.984
   11CHTO   O15 4975   8.162   8.353   1.988
   11CHTO   C19 4976   8.151   8.310   1.850
   11CHTO   H47 4977   8.048   8.336   1.824
   11CHTO   C20 4978   8.244   8.383   1.752
   11CHTO   H48 4979   8.350   8.359   1.770
   11CHTO   O19 4980   8.224   8.524   1.767
   11CHTO   H35 4981   8.280   8.572   1.705
   11CHTO   C21 4982   8.208   8.339   1.608
   11CHTO   H49 4983   8.104   8.369   1.587
   11CHTO    N4 4984   8.295   8.404   1.510
   11CHTO   H41 4985   8.264   8.376   1.410
   11CHTO   H42 4986   8.398   8.373   1.525
   11CHTO   C22 4987   8.219   8.187   1.600
   11CHTO   H50 4988   8.323   8.158   1.620
   11CHTO   O14 4989   8.130   8.124   1.693
   11CHTO   C23 4990   8.163   8.157   1.829
   11CHTO   H51 4991   8.265   8.120   1.848
   11CHTO   C34 4992   8.064   8.082   1.920
   11CHTO   O23 4993   8.080   7.942   1.897
   11CHTO   H38 4994   8.015   7.892   1.947
   11CHTO   O16 4995   8.181   8.149   1.468
   11CHTO   C24 4996   8.218   8.013   1.438
   11CHTO   H52 4997   8.213   7.949   1.527
   11CHTO   C26 4998   8.359   8.009   1.377
   11CHTO   H54 4999   8.365   8.082   1.294
   11CHTO   O20 5000   8.461   8.039   1.474
   11CHTO   H36 5001   8.546   8.040   1.432
   11CHTO   C30 5002   8.385   7.869   1.319
   11CHTO   H58 5003   8.386   7.793   1.398
   11CHTO    N6 5004   8.517   7.865   1.252
   11CHTO   H45 5005   8.514   7.926   1.164
   11CHTO   H46 5006   8.538   7.764   1.225
   11CHTO   C33 5007   8.272   7.834   1.220
   11CHTO   H61 5008   8.267   7.909   1.139
   11CHTO   O18 5009   8.148   7.832   1.289
   11CHTO   C28 5010   8.112   7.962   1.339
   11CHTO   H56 5011   8.100   8.033   1.257
   11CHTO   C35 5012   7.975   7.945   1.411
   11CHTO   O24 5013   7.872   7.907   1.319
   11CHTO   H39 5014   7.790   7.901   1.366
   11CHTO    O9 5015   8.300   7.710   1.156
   11CHTO   C13 5016   8.189   7.657   1.080
   11CHTO   H26 5017   8.130   7.740   1.037
   11CHTO   C11 5018   8.104   7.568   1.175
   11CHTO   H24 5019   8.033   7.629   1.232
   11CHTO    O8 5020   8.197   7.507   1.266
   11CHTO    H3 5021   8.154   7.453   1.329
   11CHTO    C9 5022   8.029   7.463   1.092
   11CHTO   H22 5023   7.971   7.521   1.019
   11CHTO    N2 5024   7.932   7.386   1.172
   11CHTO   H10 5025   7.865   7.454   1.225
   11CHTO   H11 5026   7.981   7.320   1.242
   11CHTO    C7 5027   8.131   7.371   1.020
   11CHTO   H20 5028   8.085   7.352   0.922
   11CHTO    O4 5029   8.258   7.434   1.004
   11CHTO   C14 5030   8.245   7.571   0.964
   11CHTO   H27 5031   8.177   7.578   0.876
   11CHTO   C18 5032   8.383   7.622   0.919
   11CHTO   O13 5033   8.373   7.761   0.887
   11CHTO    H7 5034   8.458   7.796   0.858
   11CHTO    O2 5035   8.148   7.246   1.091
   11CHTO    C1 5036   8.245   7.158   1.031
   11CHTO   H14 5037   8.345   7.206   1.029
   11CHTO    C2 5038   8.207   7.111   0.887
   11CHTO   H15 5039   8.103   7.075   0.888
   11CHTO    O6 5040   8.223   7.219   0.793
   11CHTO    H1 5041   8.199   7.189   0.706
   11CHTO    C3 5042   8.305   7.000   0.841
   11CHTO   H16 5043   8.408   7.041   0.832
   11CHTO    N1 5044   8.266   6.950   0.709
   11CHTO    H8 5045   8.166   6.907   0.714
   11CHTO    H9 5046   8.335   6.875   0.673
   11CHTO    C4 5047   8.314   6.887   0.947
   11CHTO   H17 5048   8.217   6.834   0.950
   11CHTO    O1 5049   8.348   6.940   1.075
   11CHTO    C5 5050   8.253   7.034   1.123
   11CHTO   H18 5051   8.154   6.988   1.129
   11CHTO   C16 5052   8.297   7.074   1.267
   11CHTO   O11 5053   8.321   6.953   1.339
   11CHTO    H5 5054   8.345   6.973   1.429
   11CHTO    O3 5055   8.419   6.798   0.906
   11CHTO    C6 5056   8.437   6.687   0.997
   11CHTO   H19 5057   8.417   6.714   1.102
   11CHTO    C8 5058   8.351   6.567   0.955
   11CHTO   H21 5059   8.371   6.542   0.850
   11CHTO    O7 5060   8.213   6.598   0.974
   11CHTO    H2 5061   8.157   6.524   0.951
   11CHTO   C12 5062   8.387   6.446   1.044
   11CHTO   H25 5063   8.359   6.472   1.148
   11CHTO    N3 5064   8.305   6.331   1.002
   11CHTO   H12 5065   8.307   6.252   1.075
   11CHTO   H13 5066   8.337   6.294   0.906
   11CHTO   C15 5067   8.539   6.417   1.038
   11CHTO   H28 5068   8.569   6.385   0.938
   11CHTO   O10 5069   8.577   6.317   1.135
   11CHTO    H4 5070   8.539   6.232   1.113
   11CHTO    O5 5071   8.612   6.534   1.077
   11CHTO   C10 5072   8.586   6.644   0.988
   11CHTO   H23 5073   8.610   6.613   0.887
   11CHTO   C17 5074   8.679   6.759   1.028
   11CHTO   O12 5075   8.814   6.714   1.021
   11CHTO    H6 5076   8.875   6.783   1.049
   12CHTO  H203 5077   5.544   5.305   3.041
   12CHTO   O82 5078   5.529   5.372   2.976
   12CHTO  C123 5079   5.508   5.499   3.038
   12CHTO  H227 5080   5.597   5.525   3.098
   12CHTO   O77 5081   5.488   5.594   2.932
   12CHTO  C118 5082   5.476   5.727   2.981
   12CHTO  H222 5083   5.566   5.756   3.039
   12CHTO  C125 5084   5.460   5.827   2.862
   12CHTO   O84 5085   5.576   5.816   2.779
   12CHTO  H205 5086   5.567   5.870   2.702
   12CHTO  C114 5087   5.352   5.740   3.071
   12CHTO  H218 5088   5.262   5.721   3.010
   12CHTO  C116 5089   5.358   5.636   3.186
   12CHTO  H220 5090   5.440   5.661   3.256
   12CHTO   O79 5091   5.235   5.635   3.260
   12CHTO  H201 5092   5.237   5.570   3.329
   12CHTO  C120 5093   5.380   5.496   3.124
   12CHTO  H224 5094   5.291   5.473   3.062
   12CHTO   N21 5095   5.388   5.399   3.233
   12CHTO  H211 5096   5.484   5.405   3.282
   12CHTO  H212 5097   5.371   5.298   3.196
   12CHTO   O75 5098   5.354   5.875   3.117
   12CHTO  C112 5099   5.235   5.915   3.188
   12CHTO  H216 5100   5.228   5.861   3.284
   12CHTO   O73 5101   5.120   5.891   3.104
   12CHTO  C113 5102   5.000   5.937   3.164
   12CHTO  H217 5103   4.988   5.888   3.263
   12CHTO  C124 5104   4.882   5.893   3.076
   12CHTO   O83 5105   4.893   5.752   3.046
   12CHTO  H204 5106   4.822   5.727   2.987
   12CHTO  C109 5107   5.001   6.091   3.184
   12CHTO  H213 5108   5.017   6.136   3.084
   12CHTO  C110 5109   5.120   6.121   3.277
   12CHTO  H214 5110   5.105   6.075   3.375
   12CHTO   O78 5111   5.136   6.262   3.294
   12CHTO  H200 5112   5.211   6.282   3.348
   12CHTO  C111 5113   5.248   6.067   3.211
   12CHTO  H215 5114   5.264   6.118   3.114
   12CHTO   N19 5115   5.367   6.092   3.294
   12CHTO  H207 5116   5.455   6.062   3.240
   12CHTO  H208 5117   5.360   6.037   3.387
   12CHTO   O74 5118   4.875   6.139   3.238
   12CHTO  C115 5119   4.854   6.280   3.218
   12CHTO  H219 5120   4.946   6.330   3.190
   12CHTO   O76 5121   4.762   6.306   3.111
   12CHTO  C122 5122   4.642   6.228   3.125
   12CHTO  H226 5123   4.666   6.125   3.099
   12CHTO  C126 5124   4.536   6.276   3.021
   12CHTO   O85 5125   4.490   6.409   3.046
   12CHTO  H206 5126   4.561   6.471   3.049
   12CHTO  C121 5127   4.586   6.233   3.271
   12CHTO  H225 5128   4.476   6.248   3.268
   12CHTO   O81 5129   4.616   6.108   3.335
   12CHTO  H202 5130   4.575   6.035   3.292
   12CHTO  C119 5131   4.652   6.351   3.346
   12CHTO  H223 5132   4.632   6.437   3.282
   12CHTO  C117 5133   4.806   6.341   3.352
   12CHTO  H221 5134   4.846   6.280   3.435
   12CHTO   N20 5135   4.866   6.474   3.368
   12CHTO  H209 5136   4.827   6.521   3.458
   12CHTO  H210 5137   4.847   6.537   3.282
   12CHTO   O80 5138   4.591   6.391   3.470
   12CHTO  C103 5139   4.553   6.289   3.565
   12CHTO  H190 5140   4.484   6.217   3.519
   12CHTO  C101 5141   4.667   6.210   3.636
   12CHTO  H188 5142   4.741   6.279   3.679
   12CHTO   O68 5143   4.732   6.120   3.544
   12CHTO  H168 5144   4.812   6.082   3.582
   12CHTO   C99 5145   4.605   6.127   3.752
   12CHTO  H186 5146   4.531   6.055   3.712
   12CHTO   N17 5147   4.705   6.052   3.831
   12CHTO  H174 5148   4.784   6.119   3.862
   12CHTO  H175 5149   4.745   5.970   3.774
   12CHTO   C97 5150   4.527   6.217   3.850
   12CHTO  H184 5151   4.597   6.291   3.891
   12CHTO   O64 5152   4.421   6.279   3.776
   12CHTO  C104 5153   4.472   6.366   3.674
   12CHTO  H191 5154   4.536   6.442   3.719
   12CHTO  C108 5155   4.356   6.440   3.608
   12CHTO   O71 5156   4.279   6.505   3.711
   12CHTO  H171 5157   4.204   6.548   3.672
   12CHTO   O62 5158   4.472   6.136   3.954
   12CHTO   C91 5159   4.443   6.208   4.076
   12CHTO  H178 5160   4.539   6.249   4.112
   12CHTO   C92 5161   4.397   6.105   4.180
   12CHTO  H179 5162   4.472   6.024   4.190
   12CHTO   O66 5163   4.391   6.170   4.307
   12CHTO  H166 5164   4.368   6.109   4.376
   12CHTO   C93 5165   4.258   6.048   4.145
   12CHTO  H180 5166   4.215   6.005   4.236
   12CHTO   N16 5167   4.267   5.939   4.046
   12CHTO  H172 5168   4.304   5.977   3.952
   12CHTO  H173 5169   4.169   5.895   4.032
   12CHTO   C94 5170   4.165   6.162   4.094
   12CHTO  H181 5171   4.160   6.164   3.986
   12CHTO   O61 5172   4.218   6.288   4.140
   12CHTO   C95 5173   4.338   6.321   4.068
   12CHTO  H182 5174   4.312   6.341   3.963
   12CHTO  C106 5175   4.395   6.453   4.126
   12CHTO   O69 5176   4.293   6.553   4.109
   12CHTO  H169 5177   4.326   6.639   4.138
   12CHTO   O63 5178   4.037   6.137   4.154
   12CHTO   C96 5179   3.932   6.221   4.103
   12CHTO  H183 5180   3.934   6.216   3.994
   12CHTO   C98 5181   3.943   6.369   4.145
   12CHTO  H185 5182   4.035   6.415   4.105
   12CHTO   O67 5183   3.834   6.439   4.084
   12CHTO  H167 5184   3.843   6.531   4.103
   12CHTO  C102 5185   3.935   6.383   4.300
   12CHTO  H189 5186   3.904   6.487   4.320
   12CHTO   N18 5187   4.065   6.366   4.367
   12CHTO  H176 5188   4.138   6.435   4.328
   12CHTO  H177 5189   4.103   6.265   4.358
   12CHTO  C105 5190   3.830   6.286   4.356
   12CHTO  H192 5191   3.880   6.197   4.395
   12CHTO   O65 5192   3.738   6.247   4.253
   12CHTO  C100 5193   3.798   6.164   4.153
   12CHTO  H187 5194   3.817   6.065   4.199
   12CHTO  C107 5195   3.698   6.145   4.038
   12CHTO   O70 5196   3.684   6.266   3.966
   12CHTO  H170 5197   3.629   6.257   3.889
   12CHTO   O57 5198   3.769   6.363   4.462
   12CHTO   C85 5199   3.655   6.302   4.523
   12CHTO  H157 5200   3.573   6.293   4.449
   12CHTO   C83 5201   3.607   6.400   4.632
   12CHTO  H155 5202   3.589   6.500   4.589
   12CHTO   O56 5203   3.712   6.415   4.729
   12CHTO  H135 5204   3.792   6.448   4.689
   12CHTO   C81 5205   3.479   6.349   4.698
   12CHTO  H153 5206   3.395   6.361   4.629
   12CHTO   N14 5207   3.449   6.428   4.819
   12CHTO  H141 5208   3.432   6.530   4.791
   12CHTO  H142 5209   3.532   6.424   4.889
   12CHTO   C79 5210   3.492   6.200   4.735
   12CHTO  H151 5211   3.435   6.142   4.660
   12CHTO   O52 5212   3.631   6.158   4.729
   12CHTO   C86 5213   3.685   6.167   4.594
   12CHTO  H158 5214   3.793   6.154   4.608
   12CHTO   C90 5215   3.638   6.048   4.508
   12CHTO   O60 5216   3.639   5.930   4.591
   12CHTO  H138 5217   3.608   5.856   4.540
   12CHTO   O50 5218   3.438   6.174   4.866
   12CHTO   C73 5219   3.446   6.038   4.909
   12CHTO  H145 5220   3.548   5.999   4.902
   12CHTO   C74 5221   3.350   5.945   4.832
   12CHTO  H146 5222   3.380   5.940   4.726
   12CHTO   O54 5223   3.358   5.813   4.885
   12CHTO  H133 5224   3.300   5.756   4.836
   12CHTO   C75 5225   3.207   6.001   4.848
   12CHTO  H147 5226   3.204   6.104   4.808
   12CHTO   N13 5227   3.110   5.917   4.774
   12CHTO  H139 5228   3.135   5.916   4.670
   12CHTO  H140 5229   3.011   5.958   4.786
   12CHTO   C76 5230   3.174   6.003   4.999
   12CHTO  H148 5231   3.175   5.899   5.034
   12CHTO   O49 5232   3.269   6.083   5.073
   12CHTO   C77 5233   3.403   6.038   5.058
   12CHTO  H149 5234   3.413   5.937   5.099
   12CHTO   C88 5235   3.497   6.128   5.141
   12CHTO   O58 5236   3.460   6.123   5.280
   12CHTO  H136 5237   3.518   6.174   5.334
   12CHTO   O51 5238   3.044   6.065   5.014
   12CHTO   C78 5239   2.998   6.069   5.151
   12CHTO  H150 5240   3.081   6.088   5.221
   12CHTO   C80 5241   2.928   5.937   5.190
   12CHTO  H152 5242   2.850   5.914   5.115
   12CHTO   O55 5243   3.025   5.831   5.194
   12CHTO  H134 5244   2.984   5.747   5.211
   12CHTO   C84 5245   2.865   5.951   5.330
   12CHTO  H156 5246   2.945   5.965   5.403
   12CHTO   N15 5247   2.791   5.829   5.364
   12CHTO  H143 5248   2.712   5.815   5.293
   12CHTO  H144 5249   2.749   5.840   5.462
   12CHTO   C87 5250   2.772   6.074   5.331
   12CHTO  H159 5251   2.690   6.057   5.260
   12CHTO   O53 5252   2.848   6.191   5.297
   12CHTO   C82 5253   2.898   6.185   5.163
   12CHTO  H154 5254   2.816   6.173   5.092
   12CHTO   C89 5255   2.969   6.318   5.128
   12CHTO   O59 5256   2.875   6.424   5.145
   12CHTO  H137 5257   2.917   6.506   5.126
   12CHTO   O45 5258   2.719   6.087   5.466
   12CHTO   C67 5259   2.661   6.217   5.488
   12CHTO  H124 5260   2.738   6.294   5.479
   12CHTO   C65 5261   2.549   6.245   5.385
   12CHTO  H122 5262   2.499   6.150   5.363
   12CHTO   O44 5263   2.614   6.299   5.268
   12CHTO  H102 5264   2.553   6.311   5.196
   12CHTO   C63 5265   2.443   6.339   5.447
   12CHTO  H120 5266   2.368   6.278   5.500
   12CHTO   N11 5267   2.366   6.415   5.347
   12CHTO  H108 5268   2.321   6.348   5.277
   12CHTO  H109 5269   2.430   6.485   5.293
   12CHTO   C61 5270   2.510   6.434   5.549
   12CHTO  H118 5271   2.431   6.502   5.585
   12CHTO   O40 5272   2.560   6.362   5.661
   12CHTO   C68 5273   2.604   6.229   5.631
   12CHTO  H125 5274   2.518   6.160   5.641
   12CHTO   C72 5275   2.708   6.186   5.737
   12CHTO   O48 5276   2.746   6.049   5.725
   12CHTO  H105 5277   2.807   6.025   5.794
   12CHTO   O38 5278   2.619   6.510   5.492
   12CHTO   C55 5279   2.647   6.626   5.572
   12CHTO  H112 5280   2.630   6.603   5.678
   12CHTO   C56 5281   2.566   6.750   5.525
   12CHTO  H113 5282   2.596   6.772   5.421
   12CHTO   O42 5283   2.424   6.725   5.522
   12CHTO  H100 5284   2.378   6.798   5.483
   12CHTO   C57 5285   2.597   6.870   5.617
   12CHTO  H114 5286   2.565   6.847   5.719
   12CHTO   N10 5287   2.527   6.992   5.571
   12CHTO  H106 5288   2.578   7.080   5.607
   12CHTO  H107 5289   2.426   6.992   5.604
   12CHTO   C58 5290   2.748   6.893   5.616
   12CHTO  H115 5291   2.778   6.929   5.516
   12CHTO   O37 5292   2.821   6.775   5.651
   12CHTO   C59 5293   2.795   6.667   5.560
   12CHTO  H116 5294   2.820   6.696   5.457
   12CHTO   C70 5295   2.886   6.551   5.605
   12CHTO   O46 5296   3.023   6.593   5.610
   12CHTO  H103 5297   3.078   6.519   5.633
   12CHTO   O39 5298   2.773   6.996   5.714
   12CHTO   C60 5299   2.912   7.015   5.746
   12CHTO  H117 5300   2.952   6.922   5.788
   12CHTO   C62 5301   2.996   7.056   5.624
   12CHTO  H119 5302   3.000   6.970   5.555
   12CHTO   O43 5303   2.931   7.166   5.559
   12CHTO  H101 5304   2.974   7.189   5.477
   12CHTO   C66 5305   3.138   7.092   5.673
   12CHTO  H123 5306   3.185   7.002   5.715
   12CHTO   N12 5307   3.223   7.138   5.563
   12CHTO  H110 5308   3.192   7.236   5.529
   12CHTO  H111 5309   3.221   7.067   5.482
   12CHTO   C69 5310   3.130   7.202   5.780
   12CHTO  H126 5311   3.081   7.292   5.738
   12CHTO   O41 5312   3.057   7.150   5.893
   12CHTO   C64 5313   2.920   7.122   5.856
   12CHTO  H121 5314   2.871   7.215   5.819
   12CHTO   C71 5315   2.843   7.075   5.982
   12CHTO   O47 5316   2.860   7.176   6.083
   12CHTO  H104 5317   2.813   7.151   6.162
   12CHTO   O34 5318   3.267   7.233   5.812
   12CHTO   C49 5319   3.288   7.362   5.873
   12CHTO   H91 5320   3.249   7.439   5.806
   12CHTO   C47 5321   3.439   7.375   5.889
   12CHTO   H89 5322   3.460   7.472   5.939
   12CHTO   O33 5323   3.509   7.371   5.763
   12CHTO   H70 5324   3.482   7.444   5.709
   12CHTO   C45 5325   3.490   7.256   5.977
   12CHTO   H87 5326   3.517   7.170   5.914
   12CHTO    N8 5327   3.609   7.300   6.050
   12CHTO   H75 5328   3.681   7.341   5.980
   12CHTO   H76 5329   3.654   7.217   6.104
   12CHTO   C43 5330   3.379   7.210   6.075
   12CHTO   H85 5331   3.315   7.139   6.023
   12CHTO   O29 5332   3.309   7.326   6.119
   12CHTO   C50 5333   3.226   7.378   6.014
   12CHTO   H92 5334   3.128   7.325   6.015
   12CHTO   C54 5335   3.189   7.525   6.043
   12CHTO   O36 5336   3.120   7.532   6.169
   12CHTO   H72 5337   3.096   7.622   6.187
   12CHTO   O27 5338   3.441   7.143   6.187
   12CHTO   C37 5339   3.351   7.109   6.294
   12CHTO   H79 5340   3.302   7.200   6.334
   12CHTO   C38 5341   3.239   7.014   6.247
   12CHTO   H80 5342   3.284   6.931   6.189
   12CHTO   O31 5343   3.147   7.085   6.166
   12CHTO   H68 5344   3.076   7.030   6.134
   12CHTO   C39 5345   3.160   6.958   6.368
   12CHTO   H81 5346   3.108   7.043   6.416
   12CHTO    N7 5347   3.059   6.861   6.324
   12CHTO   H73 5348   2.995   6.834   6.407
   12CHTO   H74 5349   3.106   6.773   6.283
   12CHTO   C40 5350   3.254   6.895   6.473
   12CHTO   H82 5351   3.306   6.808   6.429
   12CHTO   O26 5352   3.345   6.997   6.515
   12CHTO   C41 5353   3.431   7.041   6.406
   12CHTO   H83 5354   3.485   6.954   6.366
   12CHTO   C52 5355   3.532   7.138   6.469
   12CHTO   O35 5356   3.603   7.077   6.578
   12CHTO   H71 5357   3.674   7.133   6.609
   12CHTO   O28 5358   3.176   6.850   6.586
   12CHTO   C42 5359   3.250   6.783   6.690
   12CHTO   H84 5360   3.175   6.766   6.770
   12CHTO   C44 5361   3.364   6.863   6.755
   12CHTO   H86 5362   3.446   6.874   6.684
   12CHTO   O32 5363   3.317   6.993   6.793
   12CHTO   H69 5364   3.389   7.045   6.827
   12CHTO   C48 5365   3.416   6.783   6.877
   12CHTO   H90 5366   3.334   6.768   6.949
   12CHTO    N9 5367   3.523   6.859   6.947
   12CHTO   H77 5368   3.612   6.862   6.887
   12CHTO   H78 5369   3.544   6.814   7.043
   12CHTO   C51 5370   3.466   6.645   6.825
   12CHTO   H93 5371   3.546   6.662   6.754
   12CHTO   O30 5372   3.355   6.577   6.767
   12CHTO   C46 5373   3.305   6.644   6.650
   12CHTO   H88 5374   3.384   6.655   6.575
   12CHTO   C53 5375   3.191   6.554   6.596
   12CHTO   O72 5376   3.137   6.609   6.475
   12CHTO  H199 5377   3.068   6.555   6.441
   12CHTO   O22 5378   3.511   6.570   6.940
   12CHTO   C31 5379   3.573   6.440   6.911
   12CHTO   H59 5380   3.596   6.396   7.009
   12CHTO   C29 5381   3.484   6.340   6.836
   12CHTO   H57 5382   3.464   6.375   6.734
   12CHTO   O21 5383   3.357   6.325   6.901
   12CHTO   H37 5384   3.370   6.293   6.990
   12CHTO   C27 5385   3.558   6.205   6.830
   12CHTO   H55 5386   3.573   6.168   6.933
   12CHTO    N5 5387   3.479   6.107   6.754
   12CHTO   H43 5388   3.460   6.139   6.653
   12CHTO   H44 5389   3.385   6.085   6.804
   12CHTO   C25 5390   3.694   6.225   6.761
   12CHTO   H53 5391   3.675   6.260   6.658
   12CHTO   O17 5392   3.772   6.324   6.831
   12CHTO   C32 5393   3.708   6.452   6.835
   12CHTO   H60 5394   3.688   6.488   6.733
   12CHTO   C36 5395   3.803   6.549   6.907
   12CHTO   O25 5396   3.922   6.563   6.830
   12CHTO   H40 5397   3.980   6.626   6.871
   12CHTO   O15 5398   3.762   6.098   6.759
   12CHTO   C19 5399   3.887   6.098   6.685
   12CHTO   H47 5400   3.923   5.994   6.698
   12CHTO   C20 5401   3.873   6.122   6.534
   12CHTO   H48 5402   3.839   6.224   6.512
   12CHTO   O19 5403   3.778   6.028   6.481
   12CHTO   H35 5404   3.768   6.041   6.387
   12CHTO   C21 5405   4.010   6.100   6.468
   12CHTO   H49 5406   4.041   5.995   6.483
   12CHTO    N4 5407   4.004   6.124   6.323
   12CHTO   H41 5408   4.100   6.102   6.278
   12CHTO   H42 5409   3.978   6.228   6.304
   12CHTO   C22 5410   4.112   6.193   6.534
   12CHTO   H50 5411   4.081   6.297   6.517
   12CHTO   O14 5412   4.121   6.165   6.675
   12CHTO   C23 5413   3.997   6.189   6.743
   12CHTO   H51 5414   3.972   6.297   6.729
   12CHTO   C34 5415   4.019   6.160   6.892
   12CHTO   O23 5416   4.121   6.248   6.940
   12CHTO   H38 5417   4.142   6.229   7.031
   12CHTO   O16 5418   4.238   6.167   6.474
   12CHTO   C24 5419   4.335   6.270   6.505
   12CHTO   H52 5420   4.319   6.312   6.606
   12CHTO   C26 5421   4.330   6.381   6.400
   12CHTO   H54 5422   4.335   6.336   6.299
   12CHTO   O20 5423   4.209   6.459   6.410
   12CHTO   H36 5424   4.207   6.524   6.340
   12CHTO   C30 5425   4.451   6.474   6.417
   12CHTO   H58 5426   4.447   6.526   6.514
   12CHTO    N6 5427   4.452   6.577   6.311
   12CHTO   H45 5428   4.473   6.530   6.217
   12CHTO   H46 5429   4.530   6.647   6.333
   12CHTO   C33 5430   4.579   6.389   6.413
   12CHTO   H61 5431   4.586   6.334   6.318
   12CHTO   O18 5432   4.578   6.296   6.521
   12CHTO   C28 5433   4.472   6.200   6.508
   12CHTO   H56 5434   4.484   6.141   6.415
   12CHTO   C35 5435   4.482   6.105   6.629
   12CHTO   O24 5436   4.604   6.031   6.629
   12CHTO   H39 5437   4.605   5.972   6.703
   12CHTO    O9 5438   4.694   6.474   6.418
   12CHTO   C13 5439   4.818   6.403   6.439
   12CHTO   H26 5440   4.813   6.303   6.392
   12CHTO   C11 5441   4.842   6.394   6.592
   12CHTO   H24 5442   4.789   6.308   6.635
   12CHTO    O8 5443   4.788   6.515   6.648
   12CHTO    H3 5444   4.796   6.516   6.742
   12CHTO    C9 5445   4.992   6.381   6.619
   12CHTO   H22 5446   5.024   6.293   6.562
   12CHTO    N2 5447   5.023   6.353   6.761
   12CHTO   H10 5448   4.966   6.266   6.795
   12CHTO   H11 5449   5.002   6.438   6.824
   12CHTO    C7 5450   5.066   6.507   6.568
   12CHTO   H20 5451   5.160   6.468   6.527
   12CHTO    O4 5452   4.991   6.575   6.467
   12CHTO   C14 5453   4.933   6.484   6.373
   12CHTO   H27 5454   5.011   6.414   6.336
   12CHTO   C18 5455   4.882   6.564   6.252
   12CHTO   O13 5456   4.816   6.474   6.162
   12CHTO    H7 5457   4.783   6.521   6.085
   12CHTO    O2 5458   5.094   6.599   6.676
   12CHTO    C1 5459   5.158   6.722   6.634
   12CHTO   H14 5460   5.093   6.776   6.563
   12CHTO    C2 5461   5.298   6.699   6.570
   12CHTO   H15 5462   5.358   6.634   6.636
   12CHTO    O6 5463   5.286   6.641   6.439
   12CHTO    H1 5464   5.371   6.628   6.401
   12CHTO    C3 5465   5.368   6.837   6.549
   12CHTO   H16 5466   5.311   6.897   6.475
   12CHTO    N1 5467   5.503   6.817   6.496
   12CHTO    H8 5468   5.562   6.759   6.566
   12CHTO    H9 5469   5.552   6.911   6.477
   12CHTO    C4 5470   5.367   6.919   6.681
   12CHTO   H17 5471   5.434   6.869   6.754
   12CHTO    O1 5472   5.235   6.932   6.732
   12CHTO    C5 5473   5.174   6.807   6.762
   12CHTO   H18 5474   5.235   6.752   6.834
   12CHTO   C16 5475   5.036   6.838   6.826
   12CHTO   O11 5476   5.059   6.934   6.931
   12CHTO    H5 5477   4.977   6.952   6.975
   12CHTO    O3 5478   5.416   7.050   6.649
   12CHTO    C6 5479   5.422   7.138   6.764
   12CHTO   H19 5480   5.341   7.118   6.836
   12CHTO    C8 5481   5.559   7.128   6.834
   12CHTO   H21 5482   5.638   7.147   6.760
   12CHTO    O7 5483   5.574   7.000   6.894
   12CHTO    H2 5484   5.657   6.992   6.940
   12CHTO   C12 5485   5.565   7.236   6.945
   12CHTO   H25 5486   5.488   7.210   7.020
   12CHTO    N3 5487   5.697   7.227   7.010
   12CHTO   H12 5488   5.699   7.282   7.103
   12CHTO   H13 5489   5.775   7.263   6.944
   12CHTO   C15 5490   5.535   7.376   6.887
   12CHTO   H28 5491   5.613   7.407   6.817
   12CHTO   O10 5492   5.522   7.474   6.992
   12CHTO    H4 5493   5.605   7.488   7.037
   12CHTO    O5 5494   5.407   7.376   6.823
   12CHTO   C10 5495   5.404   7.283   6.714
   12CHTO   H23 5496   5.484   7.308   6.644
   12CHTO   C17 5497   5.270   7.300   6.641
   12CHTO   O12 5498   5.256   7.435   6.599
   12CHTO    H6 5499   5.172   7.450   6.557
   13CHTO  H203 5500   0.929   5.345   4.444
   13CHTO   O82 5501   0.984   5.300   4.507
   13CHTO  C123 5502   1.104   5.255   4.446
   13CHTO  H227 5503   1.159   5.342   4.405
   13CHTO   O77 5504   1.180   5.190   4.549
   13CHTO  C118 5505   1.309   5.148   4.502
   13CHTO  H222 5506   1.366   5.235   4.464
   13CHTO  C125 5507   1.390   5.083   4.618
   13CHTO   O84 5508   1.404   5.180   4.723
   13CHTO  H205 5509   1.447   5.142   4.798
   13CHTO  C114 5510   1.294   5.044   4.390
   13CHTO  H218 5511   1.246   4.954   4.432
   13CHTO  C116 5512   1.206   5.101   4.275
   13CHTO  H220 5513   1.259   5.183   4.223
   13CHTO   O79 5514   1.177   4.999   4.179
   13CHTO  H201 5515   1.122   5.032   4.109
   13CHTO  C120 5516   1.073   5.151   4.336
   13CHTO  H224 5517   1.021   5.063   4.378
   13CHTO   N21 5518   0.992   5.206   4.228
   13CHTO  H211 5519   1.029   5.304   4.199
   13CHTO  H212 5520   0.888   5.213   4.258
   13CHTO   O75 5521   1.428   5.016   4.350
   13CHTO  C112 5522   1.439   4.904   4.257
   13CHTO  H216 5523   1.394   4.931   4.160
   13CHTO   O73 5524   1.377   4.789   4.317
   13CHTO  C113 5525   1.392   4.673   4.235
   13CHTO  H217 5526   1.351   4.694   4.135
   13CHTO  C124 5527   1.310   4.559   4.297
   13CHTO   O83 5528   1.176   4.605   4.324
   13CHTO  H204 5529   1.127   4.535   4.367
   13CHTO  C109 5530   1.542   4.633   4.220
   13CHTO  H213 5531   1.581   4.617   4.323
   13CHTO  C110 5532   1.612   4.753   4.154
   13CHTO  H214 5533   1.572   4.770   4.053
   13CHTO   O78 5534   1.752   4.730   4.145
   13CHTO  H200 5535   1.797   4.804   4.107
   13CHTO  C111 5536   1.590   4.877   4.242
   13CHTO  H215 5537   1.635   4.860   4.342
   13CHTO   N19 5538   1.654   4.996   4.185
   13CHTO  H207 5539   1.645   5.078   4.254
   13CHTO  H208 5540   1.608   5.022   4.091
   13CHTO   O74 5541   1.557   4.511   4.144
   13CHTO  C115 5542   1.685   4.447   4.164
   13CHTO  H219 5543   1.756   4.513   4.211
   13CHTO   O76 5544   1.675   4.333   4.252
   13CHTO  C122 5545   1.568   4.245   4.212
   13CHTO  H226 5546   1.474   4.293   4.239
   13CHTO  C126 5547   1.575   4.113   4.294
   13CHTO   O85 5548   1.692   4.035   4.265
   13CHTO  H206 5549   1.771   4.085   4.278
   13CHTO  C121 5550   1.570   4.217   4.058
   13CHTO  H225 5551   1.553   4.109   4.040
   13CHTO   O81 5552   1.465   4.294   3.998
   13CHTO  H202 5553   1.379   4.268   4.029
   13CHTO  C119 5554   1.708   4.259   4.001
   13CHTO  H223 5555   1.779   4.204   4.062
   13CHTO  C117 5556   1.741   4.407   4.025
   13CHTO  H221 5557   1.701   4.477   3.950
   13CHTO   N20 5558   1.887   4.428   4.025
   13CHTO  H209 5559   1.929   4.394   3.931
   13CHTO  H210 5560   1.934   4.377   4.108
   13CHTO   O80 5561   1.740   4.212   3.869
   13CHTO  C103 5562   1.640   4.223   3.765
   13CHTO  H190 5563   1.548   4.171   3.795
   13CHTO  C101 5564   1.602   4.366   3.716
   13CHTO  H188 5565   1.692   4.423   3.690
   13CHTO   O68 5566   1.526   4.437   3.816
   13CHTO  H168 5567   1.515   4.529   3.793
   13CHTO   C99 5568   1.515   4.352   3.587
   13CHTO  H186 5569   1.422   4.297   3.610
   13CHTO   N17 5570   1.478   4.482   3.527
   13CHTO  H174 5571   1.567   4.543   3.515
   13CHTO  H175 5572   1.405   4.534   3.589
   13CHTO   C97 5573   1.588   4.271   3.479
   13CHTO  H184 5574   1.682   4.322   3.454
   13CHTO   O64 5575   1.612   4.140   3.532
   13CHTO  C104 5576   1.700   4.144   3.645
   13CHTO  H191 5577   1.795   4.190   3.616
   13CHTO  C108 5578   1.733   4.002   3.689
   13CHTO   O71 5579   1.782   3.929   3.575
   13CHTO  H171 5580   1.799   3.839   3.600
   13CHTO   O62 5581   1.504   4.261   3.363
   13CHTO   C91 5582   1.575   4.235   3.241
   13CHTO  H178 5583   1.644   4.320   3.225
   13CHTO   C92 5584   1.473   4.241   3.126
   13CHTO  H179 5585   1.417   4.336   3.129
   13CHTO   O66 5586   1.544   4.239   3.002
   13CHTO  H166 5587   1.485   4.248   2.928
   13CHTO   C93 5588   1.377   4.120   3.132
   13CHTO  H180 5589   1.331   4.108   3.032
   13CHTO   N16 5590   1.266   4.142   3.227
   13CHTO  H172 5591   1.305   4.149   3.327
   13CHTO  H173 5592   1.196   4.060   3.219
   13CHTO   C94 5593   1.456   3.991   3.167
   13CHTO  H181 5594   1.447   3.965   3.272
   13CHTO   O61 5595   1.594   4.013   3.136
   13CHTO   C95 5596   1.653   4.102   3.231
   13CHTO  H182 5597   1.656   4.053   3.329
   13CHTO  C106 5598   1.800   4.128   3.189
   13CHTO   O69 5599   1.867   4.000   3.189
   13CHTO  H169 5600   1.960   4.012   3.170
   13CHTO   O63 5601   1.401   3.888   3.081
   13CHTO   C96 5602   1.448   3.756   3.113
   13CHTO  H183 5603   1.434   3.740   3.221
   13CHTO   C98 5604   1.596   3.731   3.079
   13CHTO  H185 5605   1.663   3.797   3.138
   13CHTO   O67 5606   1.628   3.598   3.119
   13CHTO  H167 5607   1.720   3.583   3.106
   13CHTO  C102 5608   1.621   3.748   2.926
   13CHTO  H189 5609   1.713   3.692   2.903
   13CHTO   N18 5610   1.646   3.887   2.885
   13CHTO  H176 5611   1.730   3.928   2.941
   13CHTO  H177 5612   1.559   3.950   2.898
   13CHTO  C105 5613   1.504   3.687   2.847
   13CHTO  H192 5614   1.435   3.767   2.816
   13CHTO   O65 5615   1.432   3.593   2.928
   13CHTO  C100 5616   1.360   3.655   3.036
   13CHTO  H187 5617   1.275   3.710   2.992
   13CHTO  C107 5618   1.304   3.546   3.129
   13CHTO   O70 5619   1.411   3.485   3.200
   13CHTO  H170 5620   1.379   3.422   3.264
   13CHTO   O57 5621   1.569   3.626   2.734
   13CHTO   C85 5622   1.484   3.547   2.649
   13CHTO  H157 5623   1.447   3.460   2.706
   13CHTO   C83 5624   1.575   3.494   2.536
   13CHTO  H155 5625   1.661   3.440   2.578
   13CHTO   O56 5626   1.626   3.606   2.462
   13CHTO  H135 5627   1.676   3.664   2.518
   13CHTO   C81 5628   1.495   3.400   2.445
   13CHTO  H153 5629   1.478   3.305   2.497
   13CHTO   N14 5630   1.573   3.371   2.322
   13CHTO  H141 5631   1.664   3.321   2.350
   13CHTO  H142 5632   1.598   3.463   2.271
   13CHTO   C79 5633   1.359   3.463   2.406
   13CHTO  H151 5634   1.282   3.412   2.467
   13CHTO   O52 5635   1.357   3.604   2.439
   13CHTO   C86 5636   1.369   3.628   2.582
   13CHTO  H158 5637   1.389   3.736   2.589
   13CHTO   C90 5638   1.235   3.603   2.653
   13CHTO   O60 5639   1.130   3.652   2.569
   13CHTO  H138 5640   1.046   3.636   2.611
   13CHTO   O50 5641   1.331   3.442   2.267
   13CHTO   C73 5642   1.206   3.497   2.222
   13CHTO  H145 5643   1.197   3.603   2.248
   13CHTO   C74 5644   1.085   3.420   2.276
   13CHTO  H146 5645   1.079   3.430   2.386
   13CHTO   O54 5646   0.965   3.475   2.221
   13CHTO  H133 5647   0.890   3.429   2.256
   13CHTO   C75 5648   1.100   3.272   2.234
   13CHTO  H147 5649   1.194   3.232   2.276
   13CHTO   N13 5650   0.986   3.192   2.284
   13CHTO  H139 5651   0.983   3.197   2.392
   13CHTO  H140 5652   0.999   3.089   2.254
   13CHTO   C76 5653   1.105   3.268   2.079
   13CHTO  H148 5654   1.009   3.306   2.042
   13CHTO   O49 5655   1.215   3.347   2.028
   13CHTO   C77 5656   1.207   3.484   2.067
   13CHTO  H149 5657   1.117   3.530   2.027
   13CHTO   C88 5658   1.327   3.561   2.008
   13CHTO   O58 5659   1.324   3.552   1.864
   13CHTO  H136 5660   1.394   3.602   1.824
   13CHTO   O51 5661   1.130   3.131   2.040
   13CHTO   C78 5662   1.132   3.111   1.898
   13CHTO  H150 5663   1.180   3.196   1.846
   13CHTO   C80 5664   0.990   3.091   1.842
   13CHTO  H152 5665   0.940   3.010   1.899
   13CHTO   O55 5666   0.916   3.213   1.854
   13CHTO  H134 5667   0.826   3.201   1.827
   13CHTO   C84 5668   0.999   3.052   1.693
   13CHTO  H156 5669   1.040   3.136   1.637
   13CHTO   N15 5670   0.864   3.024   1.641
   13CHTO  H143 5671   0.822   2.941   1.695
   13CHTO  H144 5672   0.871   2.998   1.536
   13CHTO   C87 5673   1.090   2.929   1.677
   13CHTO  H159 5674   1.045   2.844   1.730
   13CHTO   O53 5675   1.220   2.960   1.729
   13CHTO   C82 5676   1.217   2.985   1.870
   13CHTO  H154 5677   1.176   2.899   1.923
   13CHTO   C89 5678   1.361   3.008   1.922
   13CHTO   O59 5679   1.438   2.891   1.890
   13CHTO  H137 5680   1.526   2.904   1.919
   13CHTO   O45 5681   1.099   2.900   1.535
   13CHTO   C67 5682   1.209   2.812   1.505
   13CHTO  H124 5683   1.304   2.860   1.532
   13CHTO   C65 5684   1.196   2.680   1.585
   13CHTO  H122 5685   1.090   2.656   1.594
   13CHTO   O44 5686   1.256   2.704   1.714
   13CHTO  H102 5687   1.244   2.630   1.773
   13CHTO   C63 5688   1.262   2.565   1.506
   13CHTO  H120 5689   1.187   2.521   1.438
   13CHTO   N11 5690   1.304   2.452   1.591
   13CHTO  H108 5691   1.221   2.416   1.649
   13CHTO  H109 5692   1.384   2.482   1.659
   13CHTO   C61 5693   1.381   2.618   1.422
   13CHTO  H118 5694   1.427   2.531   1.373
   13CHTO   O40 5695   1.335   2.706   1.321
   13CHTO   C68 5696   1.217   2.781   1.354
   13CHTO  H125 5697   1.128   2.721   1.326
   13CHTO   C72 5698   1.214   2.910   1.269
   13CHTO   O48 5699   1.093   2.983   1.285
   13CHTO  H105 5700   1.093   3.060   1.229
   13CHTO   O38 5701   1.479   2.688   1.502
   13CHTO   C55 5702   1.604   2.695   1.433
   13CHTO  H112 5703   1.586   2.705   1.324
   13CHTO   C56 5704   1.696   2.575   1.467
   13CHTO  H113 5705   1.716   2.578   1.575
   13CHTO   O42 5706   1.633   2.448   1.441
   13CHTO  H100 5707   1.686   2.376   1.472
   13CHTO   C57 5708   1.827   2.586   1.386
   13CHTO  H114 5709   1.805   2.581   1.279
   13CHTO   N10 5710   1.921   2.477   1.422
   13CHTO  H106 5711   2.022   2.505   1.399
   13CHTO  H107 5712   1.895   2.387   1.369
   13CHTO   C58 5713   1.891   2.721   1.418
   13CHTO  H115 5714   1.926   2.721   1.523
   13CHTO   O37 5715   1.802   2.830   1.395
   13CHTO   C59 5716   1.683   2.821   1.475
   13CHTO  H116 5717   1.710   2.817   1.582
   13CHTO   C70 5718   1.602   2.948   1.446
   13CHTO   O46 5719   1.680   3.066   1.469
   13CHTO  H103 5720   1.627   3.142   1.455
   13CHTO   O39 5721   2.005   2.733   1.330
   13CHTO   C60 5722   2.064   2.863   1.327
   13CHTO  H117 5723   1.991   2.936   1.290
   13CHTO   C62 5724   2.117   2.908   1.464
   13CHTO  H119 5725   2.030   2.925   1.530
   13CHTO   O43 5726   2.199   2.803   1.518
   13CHTO  H101 5727   2.225   2.822   1.608
   13CHTO   C66 5728   2.195   3.040   1.445
   13CHTO  H123 5729   2.126   3.118   1.410
   13CHTO   N12 5730   2.253   3.087   1.571
   13CHTO  H110 5731   2.336   3.024   1.601
   13CHTO  H111 5732   2.178   3.091   1.647
   13CHTO   C69 5733   2.308   3.020   1.342
   13CHTO  H126 5734   2.376   2.940   1.376
   13CHTO   O41 5735   2.247   2.987   1.216
   13CHTO   C64 5736   2.179   2.860   1.224
   13CHTO  H121 5737   2.251   2.780   1.253
   13CHTO   C71 5738   2.123   2.824   1.084
   13CHTO   O47 5739   2.233   2.828   0.991
   13CHTO  H104 5740   2.203   2.806   0.904
   13CHTO   O34 5741   2.377   3.146   1.338
   13CHTO   C49 5742   2.512   3.139   1.287
   13CHTO   H91 5743   2.569   3.068   1.347
   13CHTO   C47 5744   2.568   3.281   1.301
   13CHTO   H89 5745   2.671   3.281   1.259
   13CHTO   O33 5746   2.573   3.325   1.438
   13CHTO   H70 5747   2.631   3.268   1.488
   13CHTO   C45 5748   2.476   3.378   1.222
   13CHTO   H87 5749   2.396   3.417   1.286
   13CHTO    N8 5750   2.557   3.491   1.175
   13CHTO   H75 5751   2.611   3.534   1.259
   13CHTO   H76 5752   2.495   3.566   1.128
   13CHTO   C43 5753   2.410   3.306   1.102
   13CHTO   H85 5754   2.319   3.257   1.138
   13CHTO   O29 5755   2.505   3.213   1.049
   13CHTO   C50 5756   2.522   3.101   1.137
   13CHTO   H92 5757   2.445   3.025   1.115
   13CHTO   C54 5758   2.655   3.030   1.106
   13CHTO   O36 5759   2.653   2.985   0.969
   13CHTO   H72 5760   2.734   2.940   0.949
   13CHTO   O27 5761   2.372   3.403   1.003
   13CHTO   C37 5762   2.324   3.347   0.879
   13CHTO   H79 5763   2.401   3.282   0.833
   13CHTO   C38 5764   2.198   3.261   0.900
   13CHTO   H80 5765   2.126   3.317   0.963
   13CHTO   O31 5766   2.233   3.139   0.963
   13CHTO   H68 5767   2.158   3.083   0.979
   13CHTO   C39 5768   2.133   3.224   0.764
   13CHTO   H81 5769   2.204   3.160   0.709
   13CHTO    N7 5770   2.007   3.150   0.784
   13CHTO   H73 5771   1.971   3.113   0.690
   13CHTO   H74 5772   1.933   3.212   0.831
   13CHTO   C40 5773   2.107   3.350   0.678
   13CHTO   H82 5774   2.035   3.416   0.729
   13CHTO   O26 5775   2.234   3.414   0.658
   13CHTO   C41 5776   2.290   3.462   0.782
   13CHTO   H83 5777   2.219   3.531   0.830
   13CHTO   C52 5778   2.417   3.541   0.744
   13CHTO   O35 5779   2.388   3.645   0.649
   13CHTO   H71 5780   2.464   3.701   0.635
   13CHTO   O28 5781   2.053   3.311   0.551
   13CHTO   C42 5782   2.018   3.418   0.461
   13CHTO   H84 5783   1.988   3.367   0.368
   13CHTO   C44 5784   2.132   3.513   0.422
   13CHTO   H86 5785   2.159   3.575   0.509
   13CHTO   O32 5786   2.246   3.439   0.379
   13CHTO   H69 5787   2.319   3.498   0.362
   13CHTO   C48 5788   2.080   3.608   0.310
   13CHTO   H90 5789   2.049   3.548   0.223
   13CHTO    N9 5790   2.188   3.699   0.266
   13CHTO   H77 5791   2.211   3.771   0.342
   13CHTO   H78 5792   2.160   3.749   0.174
   13CHTO   C51 5793   1.957   3.685   0.367
   13CHTO   H93 5794   1.990   3.743   0.453
   13CHTO   O30 5795   1.857   3.591   0.400
   13CHTO   C46 5796   1.897   3.503   0.507
   13CHTO   H88 5797   1.923   3.561   0.596
   13CHTO   C53 5798   1.774   3.412   0.534
   13CHTO   O72 5799   1.802   3.324   0.644
   13CHTO  H199 5800   1.728   3.268   0.662
   13CHTO   O22 5801   1.908   3.771   0.261
   13CHTO   C31 5802   1.799   3.861   0.298
   13CHTO   H59 5803   1.771   3.913   0.205
   13CHTO   C29 5804   1.671   3.793   0.351
   13CHTO   H57 5805   1.691   3.745   0.448
   13CHTO   O21 5806   1.627   3.690   0.262
   13CHTO   H37 5807   1.609   3.727   0.176
   13CHTO   C27 5808   1.562   3.900   0.367
   13CHTO   H55 5809   1.540   3.943   0.268
   13CHTO    N5 5810   1.440   3.841   0.423
   13CHTO   H43 5811   1.457   3.795   0.519
   13CHTO   H44 5812   1.397   3.768   0.355
   13CHTO   C25 5813   1.614   4.010   0.462
   13CHTO   H53 5814   1.633   3.964   0.560
   13CHTO   O17 5815   1.736   4.067   0.412
   13CHTO   C32 5816   1.841   3.971   0.399
   13CHTO   H60 5817   1.861   3.923   0.496
   13CHTO   C36 5818   1.966   4.045   0.350
   13CHTO   O25 5819   2.006   4.139   0.449
   13CHTO   H40 5820   2.087   4.183   0.423
   13CHTO   O15 5821   1.511   4.110   0.474
   13CHTO   C19 5822   1.539   4.214   0.571
   13CHTO   H47 5823   1.451   4.281   0.561
   13CHTO   C20 5824   1.545   4.167   0.717
   13CHTO   H48 5825   1.632   4.101   0.735
   13CHTO   O19 5826   1.425   4.095   0.747
   13CHTO   H35 5827   1.426   4.066   0.838
   13CHTO   C21 5828   1.557   4.291   0.808
   13CHTO   H49 5829   1.467   4.353   0.796
   13CHTO    N4 5830   1.566   4.251   0.949
   13CHTO   H41 5831   1.568   4.340   1.011
   13CHTO   H42 5832   1.656   4.194   0.966
   13CHTO   C22 5833   1.680   4.371   0.766
   13CHTO   H50 5834   1.769   4.309   0.779
   13CHTO   O14 5835   1.668   4.414   0.629
   13CHTO   C23 5836   1.662   4.302   0.538
   13CHTO   H51 5837   1.757   4.245   0.550
   13CHTO   C34 5838   1.654   4.358   0.396
   13CHTO   O23 5839   1.770   4.436   0.371
   13CHTO   H38 5840   1.765   4.479   0.286
   13CHTO   O16 5841   1.685   4.487   0.848
   13CHTO   C24 5842   1.813   4.553   0.840
   13CHTO   H52 5843   1.857   4.544   0.740
   13CHTO   C26 5844   1.909   4.497   0.946
   13CHTO   H54 5845   1.858   4.497   1.044
   13CHTO   O20 5846   1.951   4.363   0.915
   13CHTO   H36 5847   2.006   4.330   0.985
   13CHTO   C30 5848   2.033   4.587   0.956
   13CHTO   H58 5849   2.090   4.586   0.862
   13CHTO    N6 5850   2.122   4.539   1.063
   13CHTO   H45 5851   2.075   4.556   1.158
   13CHTO   H46 5852   2.213   4.596   1.059
   13CHTO   C33 5853   1.987   4.732   0.982
   13CHTO   H61 5854   1.928   4.737   1.075
   13CHTO   O18 5855   1.907   4.777   0.874
   13CHTO   C28 5856   1.784   4.703   0.863
   13CHTO   H56 5857   1.724   4.715   0.954
   13CHTO   C35 5858   1.706   4.761   0.743
   13CHTO   O24 5859   1.670   4.898   0.765
   13CHTO   H39 5860   1.620   4.929   0.691
   13CHTO    O9 5861   2.101   4.816   1.003
   13CHTO   C13 5862   2.069   4.957   1.005
   13CHTO   H26 5863   1.968   4.973   1.046
   13CHTO   C11 5864   2.080   5.010   0.859
   13CHTO   H24 5865   1.987   4.993   0.804
   13CHTO    O8 5866   2.185   4.935   0.797
   13CHTO    H3 5867   2.197   4.958   0.707
   13CHTO    C9 5868   2.112   5.160   0.861
   13CHTO   H22 5869   2.031   5.205   0.921
   13CHTO    N2 5870   2.106   5.222   0.728
   13CHTO   H10 5871   2.010   5.200   0.681
   13CHTO   H11 5872   2.187   5.189   0.664
   13CHTO    C7 5873   2.249   5.183   0.930
   13CHTO   H20 5874   2.234   5.275   0.988
   13CHTO    O4 5875   2.284   5.075   1.016
   13CHTO   C14 5876   2.173   5.030   1.094
   13CHTO   H27 5877   2.124   5.116   1.144
   13CHTO   C18 5878   2.224   4.937   1.205
   13CHTO   O13 5879   2.113   4.884   1.278
   13CHTO    H7 5880   2.142   4.826   1.348
   13CHTO    O2 5881   2.354   5.202   0.833
   13CHTO    C1 5882   2.485   5.219   0.890
   13CHTO   H14 5883   2.513   5.130   0.949
   13CHTO    C2 5884   2.497   5.346   0.980
   13CHTO   H15 5885   2.457   5.433   0.925
   13CHTO    O6 5886   2.427   5.328   1.104
   13CHTO    H1 5887   2.435   5.405   1.158
   13CHTO    C3 5888   2.646   5.368   1.018
   13CHTO   H16 5889   2.682   5.284   1.081
   13CHTO    N1 5890   2.660   5.492   1.097
   13CHTO    H8 5891   2.628   5.576   1.038
   13CHTO    H9 5892   2.762   5.507   1.128
   13CHTO    C4 5893   2.736   5.368   0.892
   13CHTO   H17 5894   2.714   5.458   0.832
   13CHTO    O1 5895   2.716   5.248   0.816
   13CHTO    C5 5896   2.582   5.233   0.771
   13CHTO   H18 5897   2.553   5.319   0.711
   13CHTO   C16 5898   2.579   5.106   0.682
   13CHTO   O11 5899   2.686   5.118   0.587
   13CHTO    H5 5900   2.685   5.043   0.527
   13CHTO    O3 5901   2.873   5.370   0.936
   13CHTO    C6 5902   2.968   5.371   0.828
   13CHTO   H19 5903   2.933   5.313   0.740
   13CHTO    C8 5904   3.003   5.514   0.786
   13CHTO   H21 5905   3.036   5.571   0.874
   13CHTO    O7 5906   2.889   5.577   0.726
   13CHTO    H2 5907   2.909   5.666   0.697
   13CHTO   C12 5908   3.117   5.509   0.682
   13CHTO   H25 5909   3.077   5.458   0.592
   13CHTO    N3 5910   3.151   5.648   0.644
   13CHTO   H12 5911   3.212   5.651   0.555
   13CHTO   H13 5912   3.201   5.698   0.725
   13CHTO   C15 5913   3.238   5.431   0.737
   13CHTO   H28 5914   3.283   5.481   0.822
   13CHTO   O10 5915   3.337   5.409   0.634
   13CHTO    H4 5916   3.377   5.491   0.607
   13CHTO    O5 5917   3.196   5.298   0.774
   13CHTO   C10 5918   3.097   5.303   0.878
   13CHTO   H23 5919   3.138   5.358   0.963
   13CHTO   C17 5920   3.070   5.158   0.923
   13CHTO   O12 5921   3.192   5.099   0.966
   13CHTO    H6 5922   3.179   5.008   0.991
   14CHTO  H203 5923   3.122   0.497   7.622
   14CHTO   O82 5924   3.195   0.462   7.671
   14CHTO  C123 5925   3.318   0.488   7.603
   14CHTO  H227 5926   3.330   0.597   7.590
   14CHTO   O77 5927   3.423   0.434   7.685
   14CHTO  C118 5928   3.553   0.462   7.632
   14CHTO  H222 5929   3.567   0.571   7.622
   14CHTO  C125 5930   3.662   0.406   7.727
   14CHTO   O84 5931   3.647   0.468   7.855
   14CHTO  H205 5932   3.708   0.432   7.917
   14CHTO  C114 5933   3.570   0.396   7.494
   14CHTO  H218 5934   3.565   0.287   7.507
   14CHTO  C116 5935   3.456   0.441   7.398
   14CHTO  H220 5936   3.467   0.549   7.373
   14CHTO   O79 5937   3.461   0.366   7.276
   14CHTO  H201 5938   3.391   0.392   7.217
   14CHTO  C120 5939   3.320   0.414   7.467
   14CHTO  H224 5940   3.311   0.305   7.481
   14CHTO   N21 5941   3.214   0.459   7.377
   14CHTO  H211 5942   3.207   0.567   7.378
   14CHTO  H212 5943   3.119   0.415   7.405
   14CHTO   O75 5944   3.699   0.436   7.451
   14CHTO  C112 5945   3.745   0.368   7.331
   14CHTO  H216 5946   3.685   0.400   7.244
   14CHTO   O73 5947   3.740   0.226   7.353
   14CHTO  C113 5948   3.792   0.154   7.242
   14CHTO  H217 5949   3.736   0.183   7.151
   14CHTO  C124 5950   3.767   0.004   7.267
   14CHTO   O83 5951   3.629  -0.018   7.303
   14CHTO  H204 5952   3.616  -0.110   7.322
   14CHTO  C109 5953   3.943   0.183   7.221
   14CHTO  H213 5954   3.994   0.157   7.316
   14CHTO  C110 5955   3.953   0.334   7.193
   14CHTO  H214 5956   3.901   0.360   7.101
   14CHTO   O78 5957   4.090   0.373   7.182
   14CHTO  H200 5958   4.098   0.467   7.168
   14CHTO  C111 5959   3.892   0.410   7.312
   14CHTO  H215 5960   3.949   0.386   7.404
   14CHTO   N19 5961   3.898   0.555   7.294
   14CHTO  H207 5962   3.865   0.605   7.383
   14CHTO  H208 5963   3.837   0.585   7.210
   14CHTO   O74 5964   3.998   0.103   7.114
   14CHTO  C115 5965   4.142   0.094   7.117
   14CHTO  H219 5966   4.185   0.168   7.184
   14CHTO   O76 5967   4.185  -0.033   7.169
   14CHTO  C122 5968   4.119  -0.143   7.103
   14CHTO  H226 5969   4.016  -0.147   7.140
   14CHTO  C126 5970   4.185  -0.278   7.144
   14CHTO   O85 5971   4.320  -0.290   7.097
   14CHTO  H206 5972   4.374  -0.218   7.126
   14CHTO  C121 5973   4.117  -0.124   6.948
   14CHTO  H225 5974   4.143  -0.220   6.898
   14CHTO   O81 5975   3.986  -0.084   6.909
   14CHTO  H202 5976   3.920  -0.149   6.929
   14CHTO  C119 5977   4.222  -0.017   6.908
   14CHTO  H223 5978   4.315  -0.053   6.953
   14CHTO  C117 5979   4.196   0.120   6.975
   14CHTO  H221 5980   4.125   0.185   6.922
   14CHTO   N20 5981   4.321   0.196   6.985
   14CHTO  H209 5982   4.364   0.210   6.886
   14CHTO  H210 5983   4.392   0.148   7.050
   14CHTO   O80 5984   4.258  -0.009   6.769
   14CHTO  C103 5985   4.152  -0.012   6.670
   14CHTO  H190 5986   4.091  -0.102   6.681
   14CHTO  C101 5987   4.057   0.111   6.663
   14CHTO  H188 5988   4.114   0.205   6.657
   14CHTO   O68 5989   3.968   0.115   6.777
   14CHTO  H168 5990   3.919   0.198   6.781
   14CHTO   C99 5991   3.971   0.099   6.533
   14CHTO  H186 5992   3.909   0.007   6.537
   14CHTO   N17 5993   3.880   0.214   6.512
   14CHTO  H174 5994   3.936   0.306   6.520
   14CHTO  H175 5995   3.799   0.213   6.584
   14CHTO   C97 5996   4.059   0.087   6.408
   14CHTO  H184 5997   4.123   0.176   6.402
   14CHTO   O64 5998   4.138  -0.032   6.423
   14CHTO  C104 5999   4.227  -0.023   6.534
   14CHTO  H191 6000   4.293   0.063   6.522
   14CHTO  C108 6001   4.318  -0.146   6.536
   14CHTO   O71 6002   4.381  -0.159   6.408
   14CHTO  H171 6003   4.434  -0.238   6.406
   14CHTO   O62 6004   3.976   0.076   6.293
   14CHTO   C91 6005   4.040   0.116   6.170
   14CHTO  H178 6006   4.068   0.221   6.181
   14CHTO   C92 6007   3.934   0.110   6.059
   14CHTO  H179 6008   3.845   0.170   6.087
   14CHTO   O66 6009   3.988   0.171   5.942
   14CHTO  H166 6010   3.924   0.175   5.872
   14CHTO   C93 6011   3.894  -0.036   6.027
   14CHTO  H180 6012   3.848  -0.037   5.927
   14CHTO   N16 6013   3.793  -0.087   6.122
   14CHTO  H172 6014   3.835  -0.093   6.221
   14CHTO  H173 6015   3.761  -0.185   6.089
   14CHTO   C94 6016   4.021  -0.126   6.026
   14CHTO  H181 6017   4.032  -0.181   6.119
   14CHTO   O61 6018   4.136  -0.043   6.006
   14CHTO   C95 6019   4.163   0.033   6.125
   14CHTO  H182 6020   4.194  -0.035   6.204
   14CHTO  C106 6021   4.284   0.127   6.096
   14CHTO   O69 6022   4.395   0.042   6.061
   14CHTO  H169 6023   4.474   0.095   6.048
   14CHTO   O63 6024   4.003  -0.215   5.913
   14CHTO   C96 6025   4.101  -0.320   5.907
   14CHTO  H183 6026   4.105  -0.369   6.005
   14CHTO   C98 6027   4.244  -0.272   5.872
   14CHTO  H185 6028   4.284  -0.204   5.948
   14CHTO   O67 6029   4.328  -0.387   5.872
   14CHTO  H167 6030   4.418  -0.359   5.858
   14CHTO  C102 6031   4.245  -0.206   5.730
   14CHTO  H189 6032   4.349  -0.212   5.695
   14CHTO   N18 6033   4.209  -0.063   5.731
   14CHTO  H176 6034   4.275  -0.009   5.799
   14CHTO  H177 6035   4.107  -0.047   5.760
   14CHTO  C105 6036   4.155  -0.285   5.635
   14CHTO  H192 6037   4.058  -0.234   5.625
   14CHTO   O65 6038   4.134  -0.419   5.683
   14CHTO  C100 6039   4.054  -0.422   5.802
   14CHTO  H187 6040   3.950  -0.397   5.773
   14CHTO  C107 6041   4.054  -0.566   5.858
   14CHTO   O70 6042   4.182  -0.595   5.912
   14CHTO  H170 6043   4.184  -0.680   5.955
   14CHTO   O57 6044   4.228  -0.281   5.510
   14CHTO   C85 6045   4.174  -0.361   5.404
   14CHTO  H157 6046   4.180  -0.468   5.432
   14CHTO   C83 6047   4.267  -0.341   5.283
   14CHTO  H155 6048   4.372  -0.364   5.310
   14CHTO   O56 6049   4.263  -0.202   5.246
   14CHTO  H135 6050   4.291  -0.146   5.317
   14CHTO   C81 6051   4.224  -0.430   5.166
   14CHTO  H153 6052   4.250  -0.534   5.189
   14CHTO   N14 6053   4.295  -0.391   5.043
   14CHTO  H141 6054   4.400  -0.406   5.058
   14CHTO  H142 6055   4.276  -0.286   5.021
   14CHTO   C79 6056   4.071  -0.420   5.144
   14CHTO  H151 6057   4.026  -0.512   5.186
   14CHTO   O52 6058   4.016  -0.306   5.216
   14CHTO   C86 6059   4.031  -0.319   5.360
   14CHTO  H158 6060   4.007  -0.219   5.397
   14CHTO   C90 6061   3.925  -0.414   5.417
   14CHTO   O60 6062   3.801  -0.391   5.348
   14CHTO  H138 6063   3.735  -0.450   5.381
   14CHTO   O50 6064   4.040  -0.411   5.004
   14CHTO   C73 6065   3.900  -0.401   4.973
   14CHTO  H145 6066   3.853  -0.319   5.029
   14CHTO   C74 6067   3.825  -0.533   4.999
   14CHTO  H146 6068   3.825  -0.556   5.107
   14CHTO   O54 6069   3.688  -0.518   4.960
   14CHTO  H133 6070   3.642  -0.598   4.978
   14CHTO   C75 6071   3.893  -0.644   4.917
   14CHTO  H147 6072   3.999  -0.653   4.948
   14CHTO   N13 6073   3.825  -0.774   4.940
   14CHTO  H139 6074   3.831  -0.800   5.044
   14CHTO  H140 6075   3.874  -0.850   4.882
   14CHTO   C76 6076   3.886  -0.604   4.768
   14CHTO  H148 6077   3.779  -0.599   4.740
   14CHTO   O49 6078   3.949  -0.476   4.744
   14CHTO   C77 6079   3.892  -0.371   4.821
   14CHTO  H149 6080   3.788  -0.356   4.793
   14CHTO   C88 6081   3.966  -0.239   4.790
   14CHTO   O58 6082   3.953  -0.209   4.649
   14CHTO  H136 6083   3.993  -0.126   4.627
   14CHTO   O51 6084   3.958  -0.703   4.692
   14CHTO   C78 6085   3.955  -0.681   4.550
   14CHTO  H150 6086   3.960  -0.573   4.526
   14CHTO   C80 6087   3.828  -0.741   4.487
   14CHTO  H152 6088   3.820  -0.847   4.518
   14CHTO   O55 6089   3.713  -0.667   4.532
   14CHTO  H134 6090   3.633  -0.706   4.500
   14CHTO   C84 6091   3.837  -0.730   4.333
   14CHTO  H156 6092   3.837  -0.625   4.305
   14CHTO   N15 6093   3.721  -0.795   4.272
   14CHTO  H143 6094   3.720  -0.899   4.299
   14CHTO  H144 6095   3.728  -0.786   4.165
   14CHTO   C87 6096   3.968  -0.796   4.285
   14CHTO  H159 6097   3.965  -0.903   4.310
   14CHTO   O53 6098   4.079  -0.731   4.348
   14CHTO   C82 6099   4.079  -0.748   4.490
   14CHTO  H154 6100   4.082  -0.855   4.515
   14CHTO   C89 6101   4.207  -0.685   4.550
   14CHTO   O59 6102   4.321  -0.747   4.488
   14CHTO  H137 6103   4.399  -0.708   4.522
   14CHTO   O45 6104   3.975  -0.779   4.142
   14CHTO   C67 6105   4.107  -0.804   4.091
   14CHTO  H124 6106   4.178  -0.731   4.133
   14CHTO   C65 6107   4.155  -0.946   4.129
   14CHTO  H122 6108   4.068  -1.012   4.128
   14CHTO   O44 6109   4.212  -0.936   4.261
   14CHTO  H102 6110   4.236  -1.021   4.296
   14CHTO   C63 6111   4.253  -0.999   4.023
   14CHTO  H120 6112   4.196  -1.048   3.943
   14CHTO   N11 6113   4.345  -1.103   4.073
   14CHTO  H108 6114   4.288  -1.184   4.116
   14CHTO  H109 6115   4.412  -1.063   4.148
   14CHTO   C61 6116   4.333  -0.881   3.961
   14CHTO  H118 6117   4.405  -0.926   3.890
   14CHTO   O40 6118   4.248  -0.795   3.887
   14CHTO   C68 6119   4.113  -0.787   3.937
   14CHTO  H125 6120   4.053  -0.867   3.891
   14CHTO   C72 6121   4.051  -0.652   3.893
   14CHTO   O48 6122   3.913  -0.641   3.926
   14CHTO  H105 6123   3.877  -0.559   3.894
   14CHTO   O38 6124   4.402  -0.803   4.060
   14CHTO   C55 6125   4.507  -0.727   3.999
   14CHTO  H112 6126   4.478  -0.696   3.897
   14CHTO   C56 6127   4.642  -0.804   3.999
   14CHTO  H113 6128   4.670  -0.822   4.104
   14CHTO   O42 6129   4.632  -0.933   3.937
   14CHTO  H100 6130   4.712  -0.983   3.948
   14CHTO   C57 6131   4.751  -0.719   3.929
   14CHTO  H114 6132   4.722  -0.703   3.824
   14CHTO   N10 6133   4.882  -0.786   3.934
   14CHTO  H106 6134   4.962  -0.714   3.923
   14CHTO  H107 6135   4.890  -0.861   3.857
   14CHTO   C58 6136   4.759  -0.583   4.000
   14CHTO  H115 6137   4.800  -0.599   4.102
   14CHTO   O37 6138   4.632  -0.518   4.006
   14CHTO   C59 6139   4.534  -0.596   4.078
   14CHTO  H116 6140   4.570  -0.618   4.179
   14CHTO   C70 6141   4.407  -0.511   4.083
   14CHTO   O46 6142   4.434  -0.382   4.141
   14CHTO  H103 6143   4.354  -0.333   4.148
   14CHTO   O39 6144   4.850  -0.504   3.922
   14CHTO   C60 6145   4.853  -0.365   3.957
   14CHTO  H117 6146   4.754  -0.321   3.941
   14CHTO   C62 6147   4.896  -0.342   4.103
   14CHTO  H119 6148   4.815  -0.380   4.168
   14CHTO   O43 6149   5.017  -0.415   4.127
   14CHTO  H101 6150   5.041  -0.412   4.220
   14CHTO   C66 6151   4.913  -0.190   4.125
   14CHTO  H123 6152   4.816  -0.140   4.112
   14CHTO   N12 6153   4.960  -0.160   4.261
   14CHTO  H110 6154   5.063  -0.190   4.274
   14CHTO  H111 6155   4.896  -0.207   4.333
   14CHTO   C69 6156   5.015  -0.134   4.023
   14CHTO  H126 6157   5.112  -0.185   4.035
   14CHTO   O41 6158   4.961  -0.153   3.891
   14CHTO   C64 6159   4.949  -0.293   3.861
   14CHTO  H121 6160   5.049  -0.342   3.868
   14CHTO   C71 6161   4.900  -0.310   3.715
   14CHTO   O47 6162   4.990  -0.236   3.630
   14CHTO  H104 6163   4.963  -0.244   3.539
   14CHTO   O34 6164   5.028   0.005   4.057
   14CHTO   C49 6165   5.149   0.068   4.010
   14CHTO   H91 6166   5.235   0.012   4.049
   14CHTO   C47 6167   5.146   0.210   4.066
   14CHTO   H89 6168   5.236   0.263   4.028
   14CHTO   O33 6169   5.146   0.214   4.210
   14CHTO   H70 6170   5.225   0.174   4.243
   14CHTO   C45 6171   5.016   0.280   4.015
   14CHTO   H87 6172   4.934   0.264   4.086
   14CHTO    N8 6173   5.042   0.424   4.004
   14CHTO   H75 6174   5.081   0.461   4.099
   14CHTO   H76 6175   4.951   0.477   3.980
   14CHTO   C43 6176   4.973   0.222   3.878
   14CHTO   H85 6177   4.913   0.133   3.896
   14CHTO   O29 6178   5.091   0.194   3.803
   14CHTO   C50 6179   5.159   0.079   3.856
   14CHTO   H92 6180   5.117  -0.012   3.811
   14CHTO   C54 6181   5.307   0.079   3.809
   14CHTO   O36 6182   5.310   0.077   3.665
   14CHTO   H72 6183   5.400   0.075   3.635
   14CHTO   O27 6184   4.891   0.319   3.810
   14CHTO   C37 6185   4.858   0.284   3.674
   14CHTO   H79 6186   4.949   0.272   3.613
   14CHTO   C38 6187   4.778   0.152   3.666
   14CHTO   H80 6188   4.696   0.155   3.740
   14CHTO   O31 6189   4.865   0.043   3.693
   14CHTO   H68 6190   4.820  -0.040   3.690
   14CHTO   C39 6191   4.721   0.131   3.523
   14CHTO   H81 6192   4.806   0.119   3.454
   14CHTO    N7 6193   4.637   0.010   3.518
   14CHTO   H73 6194   4.610  -0.012   3.416
   14CHTO   H74 6195   4.549   0.022   3.579
   14CHTO   C40 6196   4.640   0.254   3.476
   14CHTO   H82 6197   4.553   0.269   3.542
   14CHTO   O26 6198   4.729   0.367   3.479
   14CHTO   C41 6199   4.773   0.398   3.613
   14CHTO   H83 6200   4.684   0.416   3.677
   14CHTO   C52 6201   4.854   0.528   3.603
   14CHTO   O35 6202   4.777   0.633   3.540
   14CHTO   H71 6203   4.824   0.716   3.545
   14CHTO   O28 6204   4.594   0.232   3.342
   14CHTO   C42 6205   4.512   0.336   3.286
   14CHTO   H84 6206   4.496   0.305   3.181
   14CHTO   C44 6207   4.575   0.476   3.278
   14CHTO   H86 6208   4.583   0.517   3.380
   14CHTO   O32 6209   4.705   0.469   3.219
   14CHTO   H69 6210   4.747   0.554   3.221
   14CHTO   C48 6211   4.479   0.568   3.197
   14CHTO   H90 6212   4.467   0.527   3.096
   14CHTO    N9 6213   4.538   0.704   3.183
   14CHTO   H77 6214   4.538   0.755   3.277
   14CHTO   H78 6215   4.484   0.761   3.109
   14CHTO   C51 6216   4.342   0.571   3.270
   14CHTO   H93 6217   4.357   0.611   3.370
   14CHTO   O30 6218   4.290   0.439   3.272
   14CHTO   C46 6219   4.371   0.349   3.350
   14CHTO   H88 6220   4.381   0.386   3.453
   14CHTO   C53 6221   4.298   0.213   3.347
   14CHTO   O72 6222   4.368   0.117   3.428
   14CHTO  H199 6223   4.324   0.033   3.427
   14CHTO   O22 6224   4.254   0.654   3.192
   14CHTO   C31 6225   4.121   0.678   3.250
   14CHTO   H59 6226   4.067   0.738   3.175
   14CHTO   C29 6227   4.037   0.553   3.277
   14CHTO   H57 6228   4.082   0.493   3.358
   14CHTO   O21 6229   4.029   0.470   3.162
   14CHTO   H37 6230   3.989   0.518   3.090
   14CHTO   C27 6231   3.896   0.599   3.321
   14CHTO   H55 6232   3.850   0.654   3.237
   14CHTO    N5 6233   3.813   0.482   3.354
   14CHTO   H43 6234   3.855   0.423   3.433
   14CHTO   H44 6235   3.796   0.419   3.267
   14CHTO   C25 6236   3.909   0.690   3.445
   14CHTO   H53 6237   3.953   0.630   3.526
   14CHTO   O17 6238   3.993   0.802   3.416
   14CHTO   C32 6239   4.126   0.764   3.379
   14CHTO   H60 6240   4.172   0.705   3.459
   14CHTO   C36 6241   4.207   0.893   3.357
   14CHTO   O25 6242   4.215   0.964   3.480
   14CHTO   H40 6243   4.269   1.042   3.469
   14CHTO   O15 6244   3.776   0.732   3.482
   14CHTO   C19 6245   3.769   0.808   3.605
   14CHTO   H47 6246   3.662   0.834   3.613
   14CHTO   C20 6247   3.808   0.730   3.732
   14CHTO   H48 6248   3.914   0.703   3.733
   14CHTO   O19 6249   3.729   0.610   3.737
   14CHTO   H35 6250   3.749   0.560   3.815
   14CHTO   C21 6251   3.777   0.818   3.855
   14CHTO   H49 6252   3.669   0.839   3.858
   14CHTO    N4 6253   3.814   0.749   3.979
   14CHTO   H41 6254   3.787   0.810   4.064
   14CHTO   H42 6255   3.921   0.731   3.981
   14CHTO   C22 6256   3.855   0.949   3.841
   14CHTO   H50 6257   3.962   0.927   3.838
   14CHTO   O14 6258   3.814   1.019   3.721
   14CHTO   C23 6259   3.845   0.943   3.602
   14CHTO   H51 6260   3.955   0.929   3.600
   14CHTO   C34 6261   3.802   1.027   3.482
   14CHTO   O23 6262   3.875   1.150   3.484
   14CHTO   H38 6263   3.846   1.208   3.414
   14CHTO   O16 6264   3.821   1.030   3.953
   14CHTO   C24 6265   3.911   1.142   3.967
   14CHTO   H52 6266   3.946   1.179   3.870
   14CHTO   C26 6267   4.031   1.103   4.055
   14CHTO   H54 6268   3.994   1.055   4.148
   14CHTO   O20 6269   4.119   1.011   3.988
   14CHTO   H36 6270   4.189   0.985   4.048
   14CHTO   C30 6271   4.109   1.229   4.094
   14CHTO   H58 6272   4.153   1.276   4.005
   14CHTO    N6 6273   4.220   1.194   4.185
   14CHTO   H45 6274   4.179   1.163   4.280
   14CHTO   H46 6275   4.280   1.282   4.200
   14CHTO   C33 6276   4.013   1.330   4.159
   14CHTO   H61 6277   3.966   1.285   4.248
   14CHTO   O18 6278   3.912   1.366   4.066
   14CHTO   C28 6279   3.828   1.254   4.031
   14CHTO   H56 6280   3.776   1.216   4.120
   14CHTO   C35 6281   3.723   1.307   3.931
   14CHTO   O24 6282   3.637   1.405   3.990
   14CHTO   H39 6283   3.573   1.433   3.927
   14CHTO    O9 6284   4.085   1.443   4.206
   14CHTO   C13 6285   4.001   1.553   4.247
   14CHTO   H26 6286   3.906   1.515   4.289
   14CHTO   C11 6287   3.977   1.644   4.123
   14CHTO   H24 6288   3.893   1.605   4.063
   14CHTO    O8 6289   4.097   1.637   4.045
   14CHTO    H3 6290   4.090   1.687   3.966
   14CHTO    C9 6291   3.947   1.787   4.169
   14CHTO   H22 6292   3.861   1.777   4.237
   14CHTO    N2 6293   3.905   1.875   4.058
   14CHTO   H10 6294   3.822   1.829   4.004
   14CHTO   H11 6295   3.986   1.896   3.991
   14CHTO    C7 6296   4.070   1.843   4.245
   14CHTO   H20 6297   4.025   1.903   4.326
   14CHTO    O4 6298   4.152   1.740   4.298
   14CHTO   C14 6299   4.075   1.634   4.356
   14CHTO   H27 6300   4.001   1.676   4.428
   14CHTO   C18 6301   4.169   1.544   4.438
   14CHTO   O13 6302   4.095   1.433   4.490
   14CHTO    H7 6303   4.151   1.375   4.541
   14CHTO    O2 6304   4.149   1.929   4.160
   14CHTO    C1 6305   4.267   1.981   4.224
   14CHTO   H14 6306   4.334   1.899   4.255
   14CHTO    C2 6307   4.237   2.073   4.346
   14CHTO   H15 6308   4.161   2.147   4.317
   14CHTO    O6 6309   4.191   1.995   4.458
   14CHTO    H1 6310   4.173   2.051   4.532
   14CHTO    C3 6311   4.368   2.142   4.393
   14CHTO   H16 6312   4.439   2.066   4.431
   14CHTO    N1 6313   4.339   2.234   4.504
   14CHTO    H8 6314   4.271   2.311   4.471
   14CHTO    H9 6315   4.429   2.280   4.541
   14CHTO    C4 6316   4.439   2.212   4.275
   14CHTO   H17 6317   4.377   2.298   4.242
   14CHTO    O1 6318   4.461   2.120   4.167
   14CHTO    C5 6319   4.340   2.065   4.116
   14CHTO   H18 6320   4.273   2.145   4.082
   14CHTO   C16 6321   4.379   1.977   3.994
   14CHTO   O11 6322   4.463   2.057   3.909
   14CHTO    H5 6323   4.486   2.007   3.831
   14CHTO    O3 6324   4.567   2.257   4.321
   14CHTO    C6 6325   4.643   2.326   4.220
   14CHTO   H19 6326   4.626   2.285   4.119
   14CHTO    C8 6327   4.615   2.477   4.222
   14CHTO   H21 6328   4.631   2.515   4.324
   14CHTO    O7 6329   4.480   2.502   4.179
   14CHTO    H2 6330   4.461   2.595   4.178
   14CHTO   C12 6331   4.711   2.547   4.124
   14CHTO   H25 6332   4.687   2.510   4.022
   14CHTO    N3 6333   4.684   2.692   4.128
   14CHTO   H12 6334   4.731   2.743   4.045
   14CHTO   H13 6335   4.717   2.734   4.221
   14CHTO   C15 6336   4.858   2.512   4.157
   14CHTO   H28 6337   4.887   2.552   4.255
   14CHTO   O10 6338   4.948   2.561   4.056
   14CHTO    H4 6339   4.950   2.656   4.054
   14CHTO    O5 6340   4.876   2.369   4.154
   14CHTO   C10 6341   4.793   2.305   4.252
   14CHTO   H23 6342   4.816   2.347   4.350
   14CHTO   C17 6343   4.829   2.156   4.253
   14CHTO   O12 6344   4.968   2.142   4.281
   14CHTO    H6 6345   4.995   2.050   4.279
   15CHTO  H203 6346   3.704  -0.556   4.125
   15CHTO   O82 6347   3.665  -0.485   4.073
   15CHTO  C123 6348   3.745  -0.368   4.081
   15CHTO  H227 6349   3.846  -0.391   4.042
   15CHTO   O77 6350   3.681  -0.268   4.000
   15CHTO  C118 6351   3.757  -0.148   3.990
   15CHTO  H222 6352   3.858  -0.169   3.949
   15CHTO  C125 6353   3.686  -0.046   3.897
   15CHTO   O84 6354   3.672  -0.105   3.768
   15CHTO  H205 6355   3.623  -0.048   3.710
   15CHTO  C114 6356   3.773  -0.084   4.129
   15CHTO  H218 6357   3.673  -0.054   4.166
   15CHTO  C116 6358   3.836  -0.185   4.229
   15CHTO  H220 6359   3.941  -0.207   4.202
   15CHTO   O79 6360   3.834  -0.133   4.362
   15CHTO  H201 6361   3.870  -0.195   4.424
   15CHTO  C120 6362   3.751  -0.315   4.226
   15CHTO  H224 6363   3.650  -0.289   4.263
   15CHTO   N21 6364   3.812  -0.411   4.318
   15CHTO  H211 6365   3.901  -0.454   4.275
   15CHTO  H212 6366   3.741  -0.489   4.344
   15CHTO   O75 6367   3.855   0.031   4.107
   15CHTO  C112 6368   3.866   0.118   4.223
   15CHTO  H216 6369   3.923   0.068   4.303
   15CHTO   O73 6370   3.734   0.156   4.264
   15CHTO  C113 6371   3.738   0.250   4.372
   15CHTO  H217 6372   3.796   0.206   4.455
   15CHTO  C124 6373   3.595   0.272   4.422
   15CHTO   O83 6374   3.530   0.146   4.445
   15CHTO  H204 6375   3.439   0.160   4.471
   15CHTO  C109 6376   3.805   0.383   4.329
   15CHTO  H213 6377   3.746   0.422   4.243
   15CHTO  C110 6378   3.948   0.347   4.286
   15CHTO  H214 6379   4.005   0.308   4.371
   15CHTO   O78 6380   4.015   0.463   4.235
   15CHTO  H200 6381   4.102   0.442   4.205
   15CHTO  C111 6382   3.941   0.244   4.173
   15CHTO  H215 6383   3.887   0.287   4.087
   15CHTO   N19 6384   4.074   0.204   4.126
   15CHTO  H207 6385   4.065   0.140   4.041
   15CHTO  H208 6386   4.128   0.154   4.205
   15CHTO   O74 6387   3.801   0.481   4.435
   15CHTO  C115 6388   3.821   0.617   4.389
   15CHTO  H219 6389   3.860   0.619   4.288
   15CHTO   O76 6390   3.697   0.690   4.384
   15CHTO  C122 6391   3.623   0.677   4.508
   15CHTO  H226 6392   3.581   0.577   4.511
   15CHTO  C126 6393   3.503   0.776   4.507
   15CHTO   O85 6394   3.543   0.914   4.509
   15CHTO  H206 6395   3.600   0.934   4.437
   15CHTO  C121 6396   3.715   0.699   4.632
   15CHTO  H225 6397   3.664   0.764   4.706
   15CHTO   O81 6398   3.742   0.571   4.692
   15CHTO  H202 6399   3.663   0.529   4.723
   15CHTO  C119 6400   3.847   0.767   4.587
   15CHTO  H223 6401   3.813   0.856   4.534
   15CHTO  C117 6402   3.924   0.685   4.482
   15CHTO  H221 6403   3.991   0.608   4.523
   15CHTO   N20 6404   4.010   0.773   4.401
   15CHTO  H209 6405   4.078   0.827   4.465
   15CHTO  H210 6406   3.952   0.842   4.342
   15CHTO   O80 6407   3.930   0.824   4.690
   15CHTO  C103 6408   3.955   0.746   4.810
   15CHTO  H190 6409   3.860   0.718   4.858
   15CHTO  C101 6410   4.043   0.618   4.795
   15CHTO  H188 6411   4.136   0.641   4.743
   15CHTO   O68 6412   3.972   0.514   4.726
   15CHTO  H168 6413   4.029   0.440   4.704
   15CHTO   C99 6414   4.079   0.567   4.939
   15CHTO  H186 6415   3.987   0.541   4.994
   15CHTO   N17 6416   4.167   0.449   4.938
   15CHTO  H174 6417   4.253   0.469   4.875
   15CHTO  H175 6418   4.115   0.361   4.904
   15CHTO   C97 6419   4.148   0.677   5.021
   15CHTO  H184 6420   4.240   0.707   4.968
   15CHTO   O64 6421   4.056   0.787   5.033
   15CHTO  C104 6422   4.027   0.845   4.905
   15CHTO  H191 6423   4.120   0.879   4.858
   15CHTO  C108 6424   3.941   0.969   4.925
   15CHTO   O71 6425   4.006   1.056   5.019
   15CHTO  H171 6426   3.952   1.132   5.036
   15CHTO   O62 6427   4.179   0.625   5.151
   15CHTO   C91 6428   4.286   0.694   5.218
   15CHTO  H178 6429   4.376   0.683   5.155
   15CHTO   C92 6430   4.315   0.620   5.348
   15CHTO  H179 6431   4.333   0.512   5.329
   15CHTO   O66 6432   4.435   0.672   5.405
   15CHTO  H166 6433   4.460   0.624   5.484
   15CHTO   C93 6434   4.199   0.637   5.450
   15CHTO  H180 6435   4.238   0.614   5.550
   15CHTO   N16 6436   4.088   0.544   5.423
   15CHTO  H172 6437   4.043   0.565   5.328
   15CHTO  H173 6438   4.015   0.552   5.502
   15CHTO   C94 6439   4.149   0.785   5.447
   15CHTO  H181 6440   4.059   0.796   5.387
   15CHTO   O61 6441   4.253   0.867   5.392
   15CHTO   C95 6442   4.264   0.844   5.250
   15CHTO  H182 6443   4.174   0.880   5.201
   15CHTO  C106 6444   4.382   0.930   5.197
   15CHTO   O69 6445   4.351   1.067   5.225
   15CHTO  H169 6446   4.418   1.125   5.188
   15CHTO   O63 6447   4.126   0.820   5.585
   15CHTO   C96 6448   4.060   0.946   5.602
   15CHTO  H183 6449   3.972   0.947   5.538
   15CHTO   C98 6450   4.147   1.069   5.566
   15CHTO  H185 6451   4.176   1.068   5.460
   15CHTO   O67 6452   4.067   1.185   5.586
   15CHTO  H167 6453   4.117   1.261   5.558
   15CHTO  C102 6454   4.273   1.075   5.658
   15CHTO  H189 6455   4.307   1.180   5.657
   15CHTO   N18 6456   4.386   0.994   5.609
   15CHTO  H176 6457   4.413   1.023   5.508
   15CHTO  H177 6458   4.365   0.888   5.611
   15CHTO  C105 6459   4.235   1.036   5.802
   15CHTO  H192 6460   4.263   0.931   5.820
   15CHTO   O65 6461   4.094   1.052   5.823
   15CHTO  C100 6462   4.016   0.956   5.750
   15CHTO  H187 6463   4.030   0.858   5.797
   15CHTO  C107 6464   3.867   0.994   5.762
   15CHTO   O70 6465   3.841   1.112   5.687
   15CHTO  H170 6466   3.749   1.134   5.685
   15CHTO   O57 6467   4.315   1.125   5.882
   15CHTO   C85 6468   4.289   1.123   6.023
   15CHTO  H157 6469   4.186   1.158   6.042
   15CHTO   C83 6470   4.385   1.225   6.087
   15CHTO  H155 6471   4.373   1.324   6.040
   15CHTO   O56 6472   4.520   1.181   6.062
   15CHTO  H135 6473   4.537   1.175   5.969
   15CHTO   C81 6474   4.358   1.236   6.237
   15CHTO  H153 6475   4.265   1.291   6.253
   15CHTO   N14 6476   4.467   1.312   6.302
   15CHTO  H141 6477   4.468   1.412   6.262
   15CHTO  H142 6478   4.563   1.265   6.284
   15CHTO   C79 6479   4.346   1.096   6.302
   15CHTO  H151 6480   4.239   1.078   6.319
   15CHTO   O52 6481   4.396   0.994   6.211
   15CHTO   C86 6482   4.317   0.985   6.090
   15CHTO  H158 6483   4.378   0.922   6.024
   15CHTO   C90 6484   4.187   0.908   6.115
   15CHTO   O60 6485   4.215   0.799   6.205
   15CHTO  H138 6486   4.135   0.751   6.223
   15CHTO   O50 6487   4.417   1.092   6.427
   15CHTO   C73 6488   4.412   0.965   6.494
   15CHTO  H145 6489   4.444   0.883   6.429
   15CHTO   C74 6490   4.272   0.934   6.551
   15CHTO  H146 6491   4.200   0.922   6.469
   15CHTO   O54 6492   4.276   0.810   6.623
   15CHTO  H133 6493   4.190   0.791   6.657
   15CHTO   C75 6494   4.232   1.050   6.646
   15CHTO  H147 6495   4.232   1.144   6.588
   15CHTO   N13 6496   4.098   1.026   6.703
   15CHTO  H139 6497   4.025   1.020   6.623
   15CHTO  H140 6498   4.072   1.108   6.768
   15CHTO   C76 6499   4.339   1.058   6.758
   15CHTO  H148 6500   4.334   0.963   6.814
   15CHTO   O49 6501   4.471   1.079   6.704
   15CHTO   C77 6502   4.511   0.976   6.613
   15CHTO  H149 6503   4.516   0.880   6.665
   15CHTO   C88 6504   4.653   1.006   6.561
   15CHTO   O58 6505   4.745   1.011   6.672
   15CHTO  H136 6506   4.835   1.024   6.643
   15CHTO   O51 6507   4.307   1.172   6.840
   15CHTO   C78 6508   4.396   1.189   6.952
   15CHTO  H150 6509   4.500   1.162   6.926
   15CHTO   C80 6510   4.350   1.104   7.072
   15CHTO  H152 6511   4.244   1.125   7.093
   15CHTO   O55 6512   4.367   0.964   7.041
   15CHTO  H134 6513   4.333   0.909   7.110
   15CHTO   C84 6514   4.437   1.137   7.195
   15CHTO  H156 6515   4.540   1.107   7.175
   15CHTO   N15 6516   4.388   1.063   7.312
   15CHTO  H143 6517   4.287   1.092   7.333
   15CHTO  H144 6518   4.450   1.087   7.397
   15CHTO   C87 6519   4.431   1.289   7.221
   15CHTO  H159 6520   4.328   1.318   7.245
   15CHTO   O53 6521   4.479   1.359   7.104
   15CHTO   C82 6522   4.394   1.337   6.991
   15CHTO  H154 6523   4.291   1.371   7.014
   15CHTO   C89 6524   4.443   1.423   6.872
   15CHTO   O59 6525   4.445   1.560   6.914
   15CHTO  H137 6526   4.477   1.613   6.843
   15CHTO   O45 6527   4.518   1.317   7.334
   15CHTO   C67 6528   4.549   1.457   7.344
   15CHTO  H124 6529   4.605   1.490   7.255
   15CHTO   C65 6530   4.420   1.541   7.355
   15CHTO  H122 6531   4.347   1.483   7.412
   15CHTO   O44 6532   4.375   1.566   7.220
   15CHTO  H102 6533   4.291   1.610   7.218
   15CHTO   C63 6534   4.448   1.670   7.436
   15CHTO  H120 6535   4.434   1.649   7.543
   15CHTO   N11 6536   4.354   1.780   7.407
   15CHTO  H108 6537   4.253   1.747   7.422
   15CHTO  H109 6538   4.364   1.814   7.304
   15CHTO   C61 6539   4.594   1.716   7.413
   15CHTO  H118 6540   4.607   1.811   7.468
   15CHTO   O40 6541   4.686   1.623   7.468
   15CHTO   C68 6542   4.640   1.486   7.465
   15CHTO  H125 6543   4.584   1.466   7.558
   15CHTO   C72 6544   4.764   1.392   7.467
   15CHTO   O48 6545   4.728   1.255   7.479
   15CHTO  H105 6546   4.806   1.201   7.484
   15CHTO   O38 6547   4.626   1.735   7.274
   15CHTO   C55 6548   4.742   1.818   7.260
   15CHTO  H112 6549   4.812   1.800   7.343
   15CHTO   C56 6550   4.704   1.969   7.248
   15CHTO  H113 6551   4.643   1.980   7.157
   15CHTO   O42 6552   4.624   2.014   7.358
   15CHTO  H100 6553   4.593   2.103   7.343
   15CHTO   C57 6554   4.833   2.054   7.237
   15CHTO  H114 6555   4.892   2.042   7.328
   15CHTO   N10 6556   4.800   2.197   7.218
   15CHTO  H106 6557   4.883   2.248   7.171
   15CHTO  H107 6558   4.777   2.243   7.311
   15CHTO   C58 6559   4.914   2.003   7.118
   15CHTO  H115 6560   4.859   2.026   7.024
   15CHTO   O37 6561   4.940   1.862   7.126
   15CHTO   C59 6562   4.819   1.785   7.130
   15CHTO  H116 6563   4.758   1.806   7.041
   15CHTO   C70 6564   4.863   1.638   7.131
   15CHTO   O46 6565   4.948   1.609   7.019
   15CHTO  H103 6566   4.969   1.517   7.019
   15CHTO   O39 6567   5.039   2.075   7.121
   15CHTO   C60 6568   5.139   2.024   7.032
   15CHTO  H117 6569   5.163   1.921   7.060
   15CHTO   C62 6570   5.095   2.029   6.884
   15CHTO  H119 6571   5.014   1.955   6.871
   15CHTO   O43 6572   5.046   2.160   6.855
   15CHTO  H101 6573   5.008   2.165   6.768
   15CHTO   C66 6574   5.217   1.990   6.797
   15CHTO  H123 6575   5.245   1.886   6.819
   15CHTO   N12 6576   5.185   1.997   6.654
   15CHTO  H110 6577   5.174   2.100   6.622
   15CHTO  H111 6578   5.096   1.940   6.633
   15CHTO   C69 6579   5.335   2.084   6.827
   15CHTO  H126 6580   5.305   2.189   6.807
   15CHTO   O41 6581   5.373   2.066   6.964
   15CHTO   C64 6582   5.267   2.108   7.053
   15CHTO  H121 6583   5.243   2.215   7.034
   15CHTO   C71 6584   5.315   2.095   7.199
   15CHTO   O47 6585   5.438   2.170   7.211
   15CHTO  H104 6586   5.470   2.165   7.300
   15CHTO   O34 6587   5.438   2.044   6.736
   15CHTO   C49 6588   5.540   2.144   6.710
   15CHTO   H91 6589   5.491   2.234   6.672
   15CHTO   C47 6590   5.632   2.082   6.605
   15CHTO   H89 6591   5.713   2.155   6.585
   15CHTO   O33 6592   5.563   2.054   6.481
   15CHTO   H70 6593   5.530   2.134   6.444
   15CHTO   C45 6594   5.689   1.949   6.661
   15CHTO   H87 6595   5.624   1.864   6.634
   15CHTO    N8 6596   5.821   1.926   6.602
   15CHTO   H75 6597   5.814   1.932   6.493
   15CHTO   H76 6598   5.860   1.829   6.629
   15CHTO   C43 6599   5.699   1.954   6.816
   15CHTO   H85 6600   5.602   1.925   6.857
   15CHTO   O29 6601   5.737   2.087   6.852
   15CHTO   C50 6602   5.627   2.178   6.833
   15CHTO   H92 6603   5.564   2.178   6.923
   15CHTO   C54 6604   5.680   2.323   6.825
   15CHTO   O36 6605   5.750   2.354   6.947
   15CHTO   H72 6606   5.782   2.443   6.944
   15CHTO   O27 6607   5.797   1.859   6.860
   15CHTO   C37 6608   5.829   1.866   7.000
   15CHTO   H79 6609   5.867   1.966   7.027
   15CHTO   C38 6610   5.705   1.837   7.088
   15CHTO   H80 6611   5.654   1.747   7.050
   15CHTO   O31 6612   5.617   1.949   7.083
   15CHTO   H68 6613   5.538   1.936   7.134
   15CHTO   C39 6614   5.746   1.819   7.236
   15CHTO   H81 6615   5.786   1.914   7.272
   15CHTO    N7 6616   5.629   1.783   7.318
   15CHTO   H73 6617   5.655   1.785   7.423
   15CHTO   H74 6618   5.591   1.686   7.291
   15CHTO   C40 6619   5.856   1.712   7.252
   15CHTO   H82 6620   5.818   1.614   7.218
   15CHTO   O26 6621   5.968   1.756   7.174
   15CHTO   C41 6622   5.937   1.761   7.032
   15CHTO   H83 6623   5.903   1.661   6.999
   15CHTO   C52 6624   6.069   1.794   6.960
   15CHTO   O35 6625   6.173   1.700   6.994
   15CHTO   H71 6626   6.250   1.714   6.940
   15CHTO   O28 6627   5.895   1.702   7.390
   15CHTO   C42 6628   5.993   1.602   7.421
   15CHTO   H84 6629   6.015   1.618   7.528
   15CHTO   C44 6630   6.128   1.615   7.348
   15CHTO   H86 6631   6.114   1.589   7.242
   15CHTO   O32 6632   6.178   1.748   7.359
   15CHTO   H69 6633   6.258   1.758   7.308
   15CHTO   C48 6634   6.226   1.512   7.410
   15CHTO   H90 6635   6.240   1.533   7.516
   15CHTO    N9 6636   6.360   1.523   7.345
   15CHTO   H77 6637   6.356   1.488   7.244
   15CHTO   H78 6638   6.434   1.468   7.402
   15CHTO   C51 6639   6.164   1.370   7.391
   15CHTO   H93 6640   6.153   1.352   7.284
   15CHTO   O30 6641   6.041   1.366   7.461
   15CHTO   C46 6642   5.943   1.456   7.406
   15CHTO   H88 6643   5.926   1.433   7.300
   15CHTO   C53 6644   5.815   1.434   7.489
   15CHTO   O72 6645   5.708   1.516   7.438
   15CHTO  H199 6646   5.629   1.503   7.487
   15CHTO   O22 6647   6.255   1.275   7.451
   15CHTO   C31 6648   6.220   1.134   7.435
   15CHTO   H59 6649   6.297   1.078   7.491
   15CHTO   C29 6650   6.084   1.092   7.491
   15CHTO   H57 6651   6.002   1.139   7.434
   15CHTO   O21 6652   6.068   1.135   7.627
   15CHTO   H37 6653   6.137   1.096   7.681
   15CHTO   C27 6654   6.072   0.939   7.481
   15CHTO   H55 6655   6.150   0.894   7.544
   15CHTO    N5 6656   5.940   0.895   7.529
   15CHTO   H43 6657   5.859   0.939   7.472
   15CHTO   H44 6658   5.926   0.917   7.634
   15CHTO   C25 6659   6.090   0.897   7.334
   15CHTO   H53 6660   6.009   0.943   7.275
   15CHTO   O17 6661   6.217   0.943   7.284
   15CHTO   C32 6662   6.230   1.085   7.288
   15CHTO   H60 6663   6.150   1.133   7.230
   15CHTO   C36 6664   6.366   1.121   7.227
   15CHTO   O25 6665   6.368   1.082   7.090
   15CHTO   H40 6666   6.450   1.108   7.049
   15CHTO   O15 6667   6.080   0.753   7.328
   15CHTO   C19 6668   6.082   0.699   7.194
   15CHTO   H47 6669   6.078   0.590   7.211
   15CHTO   C20 6670   5.961   0.736   7.107
   15CHTO   H48 6671   5.960   0.843   7.082
   15CHTO   O19 6672   5.842   0.702   7.178
   15CHTO   H35 6673   5.765   0.723   7.125
   15CHTO   C21 6674   5.969   0.656   6.975
   15CHTO   H49 6675   5.963   0.548   6.999
   15CHTO    N4 6676   5.857   0.689   6.887
   15CHTO   H41 6677   5.861   0.627   6.798
   15CHTO   H42 6678   5.862   0.794   6.858
   15CHTO   C22 6679   6.103   0.685   6.907
   15CHTO   H50 6680   6.107   0.792   6.884
   15CHTO   O14 6681   6.212   0.648   6.993
   15CHTO   C23 6682   6.213   0.724   7.115
   15CHTO   H51 6683   6.225   0.830   7.087
   15CHTO   C34 6684   6.335   0.678   7.196
   15CHTO   O23 6685   6.453   0.705   7.120
   15CHTO   H38 6686   6.531   0.672   7.164
   15CHTO   O16 6687   6.109   0.607   6.789
   15CHTO   C24 6688   6.214   0.649   6.701
   15CHTO   H52 6689   6.301   0.688   6.757
   15CHTO   C26 6690   6.163   0.756   6.604
   15CHTO   H54 6691   6.069   0.720   6.557
   15CHTO   O20 6692   6.137   0.881   6.670
   15CHTO   H36 6693   6.100   0.943   6.608
   15CHTO   C30 6694   6.267   0.779   6.493
   15CHTO   H58 6695   6.359   0.821   6.534
   15CHTO    N6 6696   6.214   0.876   6.394
   15CHTO   H45 6697   6.133   0.831   6.339
   15CHTO   H46 6698   6.294   0.900   6.325
   15CHTO   C33 6699   6.299   0.644   6.427
   15CHTO   H61 6700   6.208   0.599   6.385
   15CHTO   O18 6701   6.356   0.556   6.523
   15CHTO   C28 6702   6.261   0.523   6.627
   15CHTO   H56 6703   6.174   0.471   6.584
   15CHTO   C35 6704   6.334   0.427   6.725
   15CHTO   O24 6705   6.370   0.304   6.661
   15CHTO   H39 6706   6.411   0.248   6.724
   15CHTO    O9 6707   6.387   0.664   6.316
   15CHTO   C13 6708   6.442   0.542   6.263
   15CHTO   H26 6709   6.370   0.459   6.274
   15CHTO   C11 6710   6.576   0.513   6.338
   15CHTO   H24 6711   6.556   0.460   6.432
   15CHTO    O8 6712   6.633   0.641   6.368
   15CHTO    H3 6713   6.713   0.633   6.417
   15CHTO    C9 6714   6.667   0.429   6.249
   15CHTO   H22 6715   6.608   0.340   6.224
   15CHTO    N2 6716   6.788   0.381   6.320
   15CHTO   H10 6717   6.759   0.330   6.412
   15CHTO   H11 6718   6.856   0.462   6.342
   15CHTO    C7 6719   6.703   0.508   6.121
   15CHTO   H20 6720   6.704   0.432   6.042
   15CHTO    O4 6721   6.606   0.609   6.092
   15CHTO   C14 6722   6.472   0.563   6.112
   15CHTO   H27 6723   6.458   0.467   6.058
   15CHTO   C18 6724   6.375   0.664   6.050
   15CHTO   O13 6725   6.240   0.623   6.077
   15CHTO    H7 6726   6.178   0.684   6.039
   15CHTO    O2 6727   6.833   0.569   6.132
   15CHTO    C1 6728   6.871   0.649   6.017
   15CHTO   H14 6729   6.799   0.732   6.004
   15CHTO    C2 6730   6.881   0.567   5.885
   15CHTO   H15 6731   6.943   0.478   5.903
   15CHTO    O6 6732   6.751   0.530   5.838
   15CHTO    H1 6733   6.758   0.480   5.758
   15CHTO    C3 6734   6.943   0.656   5.774
   15CHTO   H16 6735   6.875   0.740   5.751
   15CHTO    N1 6736   6.960   0.578   5.651
   15CHTO    H8 6737   7.028   0.495   5.669
   15CHTO    H9 6738   7.000   0.639   5.571
   15CHTO    C4 6739   7.075   0.720   5.822
   15CHTO   H17 6740   7.151   0.641   5.834
   15CHTO    O1 6741   7.055   0.792   5.945
   15CHTO    C5 6742   7.009   0.709   6.051
   15CHTO   H18 6743   7.080   0.627   6.068
   15CHTO   C16 6744   7.003   0.797   6.178
   15CHTO   O11 6745   7.129   0.864   6.189
   15CHTO    H5 6746   7.131   0.917   6.269
   15CHTO    O3 6747   7.117   0.815   5.722
   15CHTO    C6 6748   7.240   0.882   5.755
   15CHTO   H19 6749   7.252   0.898   5.863
   15CHTO    C8 6750   7.361   0.805   5.699
   15CHTO   H21 6751   7.347   0.788   5.592
   15CHTO    O7 6752   7.376   0.680   5.769
   15CHTO    H2 6753   7.452   0.631   5.738
   15CHTO   C12 6754   7.489   0.889   5.722
   15CHTO   H25 6755   7.503   0.898   5.832
   15CHTO    N3 6756   7.604   0.815   5.667
   15CHTO   H12 6757   7.698   0.856   5.701
   15CHTO   H13 6758   7.600   0.813   5.559
   15CHTO   C15 6759   7.473   1.030   5.661
   15CHTO   H28 6760   7.464   1.025   5.552
   15CHTO   O10 6761   7.583   1.116   5.697
   15CHTO    H4 6762   7.664   1.086   5.658
   15CHTO    O5 6763   7.357   1.094   5.717
   15CHTO   C10 6764   7.238   1.021   5.687
   15CHTO   H23 6765   7.229   1.010   5.580
   15CHTO   C17 6766   7.118   1.104   5.737
   15CHTO   O12 6767   7.121   1.232   5.674
   15CHTO    H6 6768   7.050   1.287   5.706
   16CHTO  H203 6769   9.463   3.487  12.372
   16CHTO   O82 6770   9.386   3.506  12.424
   16CHTO  C123 6771   9.268   3.486  12.347
   16CHTO  H227 6772   9.264   3.381  12.313
   16CHTO   O77 6773   9.157   3.515  12.435
   16CHTO  C118 6774   9.031   3.489  12.372
   16CHTO  H222 6775   9.025   3.384  12.340
   16CHTO  C125 6776   8.915   3.517  12.472
   16CHTO   O84 6777   8.932   3.432  12.586
   16CHTO  H205 6778   8.867   3.450  12.652
   16CHTO  C114 6779   9.012   3.581  12.250
   16CHTO  H218 6780   9.008   3.685  12.285
   16CHTO  C116 6781   9.131   3.563  12.151
   16CHTO  H220 6782   9.128   3.463  12.105
   16CHTO   O79 6783   9.123   3.661  12.046
   16CHTO  H201 6784   9.196   3.653  11.986
   16CHTO  C120 6785   9.263   3.585  12.229
   16CHTO  H224 6786   9.263   3.690  12.265
   16CHTO   N21 6787   9.374   3.567  12.136
   16CHTO  H211 6788   9.389   3.462  12.116
   16CHTO  H212 6789   9.465   3.611  12.176
   16CHTO   O75 6790   8.887   3.541  12.195
   16CHTO  C112 6791   8.839   3.629  12.089
   16CHTO  H216 6792   8.904   3.620  12.000
   16CHTO   O73 6793   8.833   3.763  12.139
   16CHTO  C113 6794   8.779   3.853  12.043
   16CHTO  H217 6795   8.838   3.847  11.950
   16CHTO  C124 6796   8.792   3.996  12.098
   16CHTO   O83 6797   8.926   4.019  12.143
   16CHTO  H204 6798   8.933   4.107  12.181
   16CHTO  C109 6799   8.631   3.818  12.011
   16CHTO  H213 6800   8.575   3.821  12.107
   16CHTO  C110 6801   8.632   3.675  11.953
   16CHTO  H214 6802   8.689   3.673  11.859
   16CHTO   O78 6803   8.499   3.630  11.929
   16CHTO  H200 6804   8.499   3.541  11.896
   16CHTO  C111 6805   8.696   3.582  12.057
   16CHTO  H215 6806   8.635   3.583  12.149
   16CHTO   N19 6807   8.701   3.443  12.009
   16CHTO  H207 6808   8.736   3.379  12.088
   16CHTO  H208 6809   8.766   3.435  11.923
   16CHTO   O74 6810   8.572   3.914  11.919
   16CHTO  C115 6811   8.428   3.913  11.919
   16CHTO  H219 6812   8.389   3.824  11.968
   16CHTO   O76 6813   8.374   4.024  11.994
   16CHTO  C122 6814   8.434   4.148  11.953
   16CHTO  H226 6815   8.535   4.152  11.994
   16CHTO  C126 6816   8.356   4.267  12.018
   16CHTO   O85 6817   8.222   4.280  11.970
   16CHTO  H206 6818   8.173   4.200  11.981
   16CHTO  C121 6819   8.440   4.162  11.798
   16CHTO  H225 6820   8.409   4.264  11.768
   16CHTO   O81 6821   8.576   4.139  11.756
   16CHTO  H202 6822   8.635   4.204  11.792
   16CHTO  C119 6823   8.345   4.058  11.734
   16CHTO  H223 6824   8.249   4.078  11.782
   16CHTO  C117 6825   8.380   3.913  11.773
   16CHTO  H221 6826   8.456   3.864  11.710
   16CHTO   N20 6827   8.260   3.827  11.762
   16CHTO  H209 6828   8.221   3.831  11.662
   16CHTO  H210 6829   8.184   3.856  11.833
   16CHTO   O80 6830   8.313   4.075  11.595
   16CHTO  C103 6831   8.420   4.106  11.502
   16CHTO  H190 6832   8.474   4.196  11.533
   16CHTO  C101 6833   8.525   3.993  11.474
   16CHTO  H188 6834   8.475   3.899  11.448
   16CHTO   O68 6835   8.611   3.972  11.589
   16CHTO  H168 6836   8.666   3.894  11.578
   16CHTO   C99 6837   8.613   4.037  11.353
   16CHTO  H186 6838   8.667   4.131  11.377
   16CHTO   N17 6839   8.712   3.936  11.313
   16CHTO  H174 6840   8.663   3.840  11.300
   16CHTO  H175 6841   8.791   3.927  11.386
   16CHTO   C97 6842   8.527   4.068  11.230
   16CHTO  H184 6843   8.470   3.978  11.203
   16CHTO   O64 6844   8.439   4.176  11.265
   16CHTO  C104 6845   8.348   4.139  11.368
   16CHTO  H191 6846   8.289   4.053  11.337
   16CHTO  C108 6847   8.249   4.253  11.392
   16CHTO   O71 6848   8.188   4.287  11.266
   16CHTO  H171 6849   8.129   4.360  11.278
   16CHTO   O62 6850   8.612   4.108  11.122
   16CHTO   C91 6851   8.554   4.090  10.991
   16CHTO  H178 6852   8.533   3.982  10.979
   16CHTO   C92 6853   8.661   4.125  10.888
   16CHTO  H179 6854   8.754   4.067  10.907
   16CHTO   O66 6855   8.615   4.086  10.759
   16CHTO  H166 6856   8.681   4.100  10.692
   16CHTO   C93 6857   8.691   4.277  10.887
   16CHTO  H180 6858   8.740   4.302  10.791
   16CHTO   N16 6859   8.786   4.315  10.994
   16CHTO  H172 6860   8.742   4.297  11.091
   16CHTO  H173 6861   8.812   4.419  10.983
   16CHTO   C94 6862   8.559   4.357  10.899
   16CHTO  H181 6863   8.541   4.390  11.001
   16CHTO   O61 6864   8.450   4.271  10.859
   16CHTO   C95 6865   8.426   4.171  10.959
   16CHTO  H182 6866   8.388   4.219  11.049
   16CHTO  C106 6867   8.313   4.077  10.907
   16CHTO   O69 6868   8.197   4.159  10.886
   16CHTO  H169 6869   8.123   4.105  10.860
   16CHTO   O63 6870   8.572   4.467  10.807
   16CHTO   C96 6871   8.466   4.564  10.819
   16CHTO  H183 6872   8.457   4.592  10.924
   16CHTO   C98 6873   8.329   4.515  10.769
   16CHTO  H185 6874   8.292   4.430  10.829
   16CHTO   O67 6875   8.236   4.621  10.789
   16CHTO  H167 6876   8.149   4.591  10.766
   16CHTO  C102 6877   8.335   4.479  10.617
   16CHTO  H189 6878   8.232   4.485  10.580
   16CHTO   N18 6879   8.382   4.342  10.591
   16CHTO  H176 6880   8.319   4.270  10.644
   16CHTO  H177 6881   8.485   4.327  10.620
   16CHTO  C105 6882   8.422   4.582  10.543
   16CHTO  H192 6883   8.523   4.541  10.527
   16CHTO   O65 6884   8.432   4.704  10.618
   16CHTO  C100 6885   8.509   4.689  10.738
   16CHTO  H187 6886   8.615   4.677  10.709
   16CHTO  C107 6887   8.496   4.818  10.822
   16CHTO   O70 6888   8.365   4.827  10.876
   16CHTO  H170 6889   8.356   4.901  10.934
   16CHTO   O57 6890   8.353   4.598  10.417
   16CHTO   C85 6891   8.403   4.701  10.332
   16CHTO  H157 6892   8.389   4.800  10.380
   16CHTO   C83 6893   8.314   4.699  10.206
   16CHTO  H155 6894   8.208   4.710  10.233
   16CHTO   O56 6895   8.330   4.572  10.141
   16CHTO  H135 6896   8.304   4.501  10.199
   16CHTO   C81 6897   8.354   4.813  10.111
   16CHTO  H153 6898   8.320   4.908  10.152
   16CHTO   N14 6899   8.289   4.795   9.979
   16CHTO  H141 6900   8.182   4.799   9.993
   16CHTO  H142 6901   8.315   4.698   9.937
   16CHTO   C79 6902   8.507   4.818  10.093
   16CHTO  H151 6903   8.544   4.903  10.153
   16CHTO   O52 6904   8.569   4.696  10.142
   16CHTO   C86 6905   8.550   4.679  10.285
   16CHTO  H158 6906   8.581   4.575  10.303
   16CHTO   C90 6907   8.647   4.767  10.364
   16CHTO   O60 6908   8.773   4.767  10.296
   16CHTO  H138 6909   8.835   4.823  10.343
   16CHTO   O50 6910   8.542   4.840   9.955
   16CHTO   C73 6911   8.683   4.846   9.928
   16CHTO  H145 6912   8.735   4.758   9.968
   16CHTO   C74 6913   8.748   4.974   9.983
   16CHTO  H146 6914   8.743   4.975  10.093
   16CHTO   O54 6915   8.886   4.977   9.946
   16CHTO  H133 6916   8.926   5.055   9.982
   16CHTO   C75 6917   8.673   5.095   9.922
   16CHTO  H147 6918   8.567   5.090   9.950
   16CHTO   N13 6919   8.731   5.222   9.973
   16CHTO  H139 6920   8.721   5.226  10.080
   16CHTO  H140 6921   8.677   5.305   9.929
   16CHTO   C76 6922   8.687   5.086   9.768
   16CHTO  H148 6923   8.795   5.095   9.744
   16CHTO   O49 6924   8.634   4.962   9.717
   16CHTO   C77 6925   8.697   4.847   9.773
   16CHTO  H149 6926   8.802   4.846   9.747
   16CHTO   C88 6927   8.634   4.720   9.714
   16CHTO   O58 6928   8.652   4.720   9.570
   16CHTO  H136 6929   8.619   4.640   9.530
   16CHTO   O51 6930   8.609   5.194   9.711
   16CHTO   C78 6931   8.617   5.201   9.568
   16CHTO  H150 6932   8.621   5.100   9.522
   16CHTO   C80 6933   8.741   5.281   9.523
   16CHTO  H152 6934   8.741   5.379   9.574
   16CHTO   O55 6935   8.860   5.208   9.556
   16CHTO  H134 6936   8.938   5.258   9.536
   16CHTO   C84 6937   8.736   5.301   9.370
   16CHTO  H156 6938   8.745   5.204   9.321
   16CHTO   N15 6939   8.849   5.384   9.327
   16CHTO  H143 6940   8.842   5.481   9.374
   16CHTO  H144 6941   8.845   5.397   9.220
   16CHTO   C87 6942   8.602   5.366   9.331
   16CHTO  H159 6943   8.597   5.466   9.377
   16CHTO   O53 6944   8.495   5.282   9.375
   16CHTO   C82 6945   8.490   5.271   9.517
   16CHTO  H154 6946   8.479   5.370   9.563
   16CHTO   C89 6947   8.366   5.188   9.559
   16CHTO   O59 6948   8.250   5.253   9.506
   16CHTO  H137 6949   8.173   5.203   9.529
   16CHTO   O45 6950   8.600   5.378   9.187
   16CHTO   C67 6951   8.467   5.403   9.137
   16CHTO  H124 6952   8.402   5.319   9.160
   16CHTO   C65 6953   8.408   5.531   9.201
   16CHTO  H122 6954   8.490   5.602   9.216
   16CHTO   O44 6955   8.349   5.491   9.326
   16CHTO  H102 6956   8.318   5.565   9.377
   16CHTO   C63 6957   8.309   5.598   9.103
   16CHTO  H120 6958   8.364   5.666   9.037
   16CHTO   N11 6959   8.209   5.683   9.170
   16CHTO  H108 6960   8.258   5.757   9.230
   16CHTO  H109 6961   8.143   5.624   9.233
   16CHTO   C61 6962   8.240   5.490   9.016
   16CHTO  H118 6963   8.166   5.543   8.953
   16CHTO   O40 6964   8.333   5.427   8.930
   16CHTO   C68 6965   8.467   5.418   8.983
   16CHTO  H125 6966   8.522   5.509   8.955
   16CHTO   C72 6967   8.539   5.299   8.915
   16CHTO   O48 6968   8.677   5.291   8.950
   16CHTO  H105 6969   8.719   5.220   8.904
   16CHTO   O38 6970   8.174   5.388   9.095
   16CHTO   C55 6971   8.077   5.319   9.016
   16CHTO  H112 6972   8.111   5.312   8.911
   16CHTO   C56 6973   7.936   5.385   9.026
   16CHTO  H113 6974   7.905   5.380   9.132
   16CHTO   O42 6975   7.938   5.525   8.991
   16CHTO  H100 6976   7.854   5.566   9.009
   16CHTO   C57 6977   7.836   5.309   8.937
   16CHTO  H114 6978   7.868   5.317   8.832
   16CHTO   N10 6979   7.700   5.365   8.950
   16CHTO  H106 6980   7.626   5.292   8.922
   16CHTO  H107 6981   7.689   5.453   8.890
   16CHTO   C58 6982   7.836   5.162   8.978
   16CHTO  H115 6983   7.792   5.153   9.080
   16CHTO   O37 6984   7.968   5.105   8.977
   16CHTO   C59 6985   8.057   5.174   9.066
   16CHTO  H116 6986   8.018   5.172   9.168
   16CHTO   C70 6987   8.191   5.098   9.059
   16CHTO   O46 6988   8.172   4.959   9.089
   16CHTO  H103 6989   8.255   4.915   9.090
   16CHTO   O39 6990   7.753   5.093   8.883
   16CHTO   C60 6991   7.760   4.951   8.890
   16CHTO  H117 6992   7.863   4.918   8.869
   16CHTO   C62 6993   7.715   4.896   9.026
   16CHTO  H119 6994   7.791   4.925   9.101
   16CHTO   O43 6995   7.589   4.954   9.060
   16CHTO  H101 6996   7.562   4.931   9.149
   16CHTO   C66 6997   7.709   4.741   9.017
   16CHTO  H123 6998   7.810   4.702   8.997
   16CHTO   N12 6999   7.662   4.682   9.142
   16CHTO  H110 7000   7.556   4.701   9.156
   16CHTO  H111 7001   7.720   4.718   9.224
   16CHTO   C69 7002   7.615   4.701   8.902
   16CHTO  H126 7003   7.514   4.742   8.920
   16CHTO   O41 7004   7.670   4.749   8.779
   16CHTO   C64 7005   7.672   4.893   8.777
   16CHTO  H121 7006   7.568   4.932   8.790
   16CHTO   C71 7007   7.723   4.942   8.640
   16CHTO   O47 7008   7.641   4.881   8.539
   16CHTO  H104 7009   7.669   4.909   8.452
   16CHTO   O34 7010   7.611   4.557   8.907
   16CHTO   C49 7011   7.495   4.497   8.843
   16CHTO   H91 7012   7.405   4.537   8.890
   16CHTO   C47 7013   7.508   4.347   8.870
   16CHTO   H89 7014   7.423   4.297   8.819
   16CHTO   O33 7015   7.505   4.314   9.010
   16CHTO   H70 7016   7.422   4.341   9.047
   16CHTO   C45 7017   7.644   4.298   8.812
   16CHTO   H87 7018   7.723   4.305   8.887
   16CHTO    N8 7019   7.630   4.157   8.771
   16CHTO   H75 7020   7.591   4.100   8.855
   16CHTO   H76 7021   7.725   4.116   8.740
   16CHTO   C43 7022   7.686   4.385   8.690
   16CHTO   H85 7023   7.739   4.472   8.728
   16CHTO   O29 7024   7.568   4.419   8.618
   16CHTO   C50 7025   7.490   4.516   8.690
   16CHTO   H92 7026   7.527   4.617   8.666
   16CHTO   C54 7027   7.344   4.515   8.639
   16CHTO   O36 7028   7.344   4.546   8.498
   16CHTO   H72 7029   7.255   4.548   8.466
   16CHTO   O27 7030   7.776   4.310   8.607
   16CHTO   C37 7031   7.810   4.373   8.482
   16CHTO   H79 7032   7.720   4.392   8.422
   16CHTO   C38 7033   7.880   4.509   8.504
   16CHTO   H80 7034   7.961   4.497   8.579
   16CHTO   O31 7035   7.785   4.605   8.549
   16CHTO   H68 7036   7.824   4.690   8.564
   16CHTO   C39 7037   7.939   4.562   8.371
   16CHTO   H81 7038   7.855   4.583   8.303
   16CHTO    N7 7039   8.013   4.688   8.393
   16CHTO   H73 7040   8.041   4.731   8.299
   16CHTO   H74 7041   8.101   4.670   8.453
   16CHTO   C40 7042   8.030   4.458   8.303
   16CHTO   H82 7043   8.117   4.436   8.368
   16CHTO   O26 7044   7.950   4.341   8.280
   16CHTO   C41 7045   7.905   4.281   8.404
   16CHTO   H83 7046   7.993   4.256   8.466
   16CHTO   C52 7047   7.834   4.150   8.364
   16CHTO   O35 7048   7.920   4.065   8.285
   16CHTO   H71 7049   7.880   3.980   8.271
   16CHTO   O28 7050   8.077   4.509   8.177
   16CHTO   C42 7051   8.169   4.425   8.105
   16CHTO   H84 7052   8.185   4.477   8.009
   16CHTO   C44 7053   8.117   4.285   8.068
   16CHTO   H86 7054   8.109   4.224   8.158
   16CHTO   O32 7055   7.988   4.295   8.006
   16CHTO   H69 7056   7.952   4.208   7.990
   16CHTO   C48 7057   8.220   4.218   7.973
   16CHTO   H90 7058   8.232   4.279   7.883
   16CHTO    N9 7059   8.172   4.084   7.930
   16CHTO   H77 7060   8.174   4.015   8.013
   16CHTO   H78 7061   8.232   4.047   7.848
   16CHTO   C51 7062   8.356   4.210   8.049
   16CHTO   H93 7063   8.341   4.149   8.139
   16CHTO   O30 7064   8.397   4.342   8.080
   16CHTO   C46 7065   8.308   4.409   8.171
   16CHTO   H88 7066   8.299   4.351   8.264
   16CHTO   C53 7067   8.371   4.548   8.198
   16CHTO   O72 7068   8.292   4.620   8.294
   16CHTO  H199 7069   8.330   4.705   8.312
   16CHTO   O22 7070   8.452   4.151   7.960
   16CHTO   C31 7071   8.584   4.124   8.016
   16CHTO   H59 7072   8.644   4.084   7.933
   16CHTO   C29 7073   8.659   4.247   8.072
   16CHTO   H57 7074   8.607   4.286   8.161
   16CHTO   O21 7075   8.663   4.352   7.976
   16CHTO   H37 7076   8.708   4.322   7.897
   16CHTO   C27 7077   8.801   4.203   8.111
   16CHTO   H55 7078   8.854   4.169   8.020
   16CHTO    N5 7079   8.875   4.316   8.170
   16CHTO   H43 7080   8.826   4.355   8.258
   16CHTO   H44 7081   8.888   4.396   8.098
   16CHTO   C25 7082   8.792   4.089   8.213
   16CHTO   H53 7083   8.742   4.127   8.303
   16CHTO   O17 7084   8.717   3.978   8.160
   16CHTO   C32 7085   8.583   4.014   8.126
   16CHTO   H60 7086   8.530   4.053   8.214
   16CHTO   C36 7087   8.512   3.887   8.075
   16CHTO   O25 7088   8.506   3.792   8.181
   16CHTO   H40 7089   8.459   3.714   8.153
   16CHTO   O15 7090   8.927   4.049   8.246
   16CHTO   C19 7091   8.936   3.950   8.352
   16CHTO   H47 7092   9.045   3.931   8.359
   16CHTO   C20 7093   8.889   3.998   8.490
   16CHTO   H48 7094   8.781   4.017   8.492
   16CHTO   O19 7095   8.959   4.119   8.522
   16CHTO   H35 7096   8.933   4.151   8.608
   16CHTO   C21 7097   8.923   3.890   8.594
   16CHTO   H49 7098   9.032   3.876   8.598
   16CHTO    N4 7099   8.878   3.929   8.728
   16CHTO   H41 7100   8.908   3.854   8.800
   16CHTO   H42 7101   8.770   3.939   8.730
   16CHTO   C22 7102   8.856   3.758   8.551
   16CHTO   H50 7103   8.748   3.773   8.549
   16CHTO   O14 7104   8.905   3.718   8.422
   16CHTO   C23 7105   8.871   3.813   8.320
   16CHTO   H51 7106   8.761   3.820   8.316
   16CHTO   C34 7107   8.923   3.758   8.187
   16CHTO   O23 7108   8.859   3.633   8.161
   16CHTO   H38 7109   8.894   3.592   8.082
   16CHTO   O16 7110   8.893   3.659   8.646
   16CHTO   C24 7111   8.812   3.541   8.635
   16CHTO   H52 7112   8.782   3.522   8.531
   16CHTO   C26 7113   8.687   3.553   8.724
   16CHTO   H54 7114   8.718   3.583   8.826
   16CHTO   O20 7115   8.593   3.650   8.673
   16CHTO   H36 7116   8.520   3.659   8.734
   16CHTO   C30 7117   8.617   3.417   8.733
   16CHTO   H58 7118   8.579   3.386   8.636
   16CHTO    N6 7119   8.502   3.425   8.826
   16CHTO   H45 7120   8.538   3.438   8.926
   16CHTO   H46 7121   8.448   3.332   8.820
   16CHTO   C33 7122   8.719   3.312   8.781
   16CHTO   H61 7123   8.761   3.340   8.879
   16CHTO   O18 7124   8.825   3.302   8.687
   16CHTO   C28 7125   8.901   3.424   8.678
   16CHTO   H56 7126   8.948   3.447   8.775
   16CHTO   C35 7127   9.012   3.400   8.573
   16CHTO   O24 7128   9.103   3.298   8.615
   16CHTO   H39 7129   9.171   3.288   8.550
   16CHTO    O9 7130   8.654   3.186   8.802
   16CHTO   C13 7131   8.746   3.077   8.823
   16CHTO   H26 7132   8.836   3.112   8.875
   16CHTO   C11 7133   8.779   3.015   8.684
   16CHTO   H24 7134   8.862   3.070   8.636
   16CHTO    O8 7135   8.661   3.029   8.605
   16CHTO    H3 7136   8.673   2.997   8.517
   16CHTO    C9 7137   8.819   2.868   8.702
   16CHTO   H22 7138   8.902   2.869   8.773
   16CHTO    N2 7139   8.870   2.807   8.578
   16CHTO   H10 7140   8.951   2.868   8.537
   16CHTO   H11 7141   8.792   2.794   8.504
   16CHTO    C7 7142   8.699   2.788   8.760
   16CHTO   H20 7143   8.746   2.717   8.830
   16CHTO    O4 7144   8.608   2.873   8.830
   16CHTO   C14 7145   8.675   2.970   8.911
   16CHTO   H27 7146   8.750   2.919   8.975
   16CHTO   C18 7147   8.572   3.036   9.005
   16CHTO   O13 7148   8.637   3.139   9.081
   16CHTO    H7 7149   8.576   3.181   9.141
   16CHTO    O2 7150   8.628   2.717   8.657
   16CHTO    C1 7151   8.513   2.644   8.704
   16CHTO   H14 7152   8.440   2.714   8.749
   16CHTO    C2 7153   8.547   2.533   8.807
   16CHTO   H15 7154   8.629   2.471   8.767
   16CHTO    O6 7155   8.584   2.589   8.934
   16CHTO    H1 7156   8.605   2.521   8.996
   16CHTO    C3 7157   8.421   2.446   8.835
   16CHTO   H16 7158   8.343   2.508   8.883
   16CHTO    N1 7159   8.454   2.336   8.926
   16CHTO    H8 7160   8.528   2.272   8.880
   16CHTO    H9 7161   8.366   2.277   8.949
   16CHTO    C4 7162   8.358   2.397   8.702
   16CHTO   H17 7163   8.427   2.324   8.655
   16CHTO    O1 7164   8.332   2.507   8.614
   16CHTO    C5 7165   8.449   2.580   8.579
   16CHTO   H18 7166   8.522   2.513   8.533
   16CHTO   C16 7167   8.406   2.687   8.476
   16CHTO   O11 7168   8.331   2.621   8.374
   16CHTO    H5 7169   8.306   2.684   8.307
   16CHTO    O3 7170   8.233   2.335   8.733
   16CHTO    C6 7171   8.164   2.283   8.618
   16CHTO   H19 7172   8.180   2.344   8.527
   16CHTO    C8 7173   8.203   2.137   8.590
   16CHTO   H21 7174   8.187   2.078   8.682
   16CHTO    O7 7175   8.340   2.131   8.549
   16CHTO    H2 7176   8.367   2.041   8.529
   16CHTO   C12 7177   8.115   2.082   8.477
   16CHTO   H25 7178   8.139   2.140   8.385
   16CHTO    N3 7179   8.152   1.941   8.453
   16CHTO   H12 7180   8.112   1.905   8.359
   16CHTO   H13 7181   8.120   1.879   8.534
   16CHTO   C15 7182   7.965   2.099   8.511
   16CHTO   H28 7183   7.937   2.039   8.597
   16CHTO   O10 7184   7.881   2.066   8.398
   16CHTO    H4 7185   7.887   1.973   8.377
   16CHTO    O5 7186   7.937   2.238   8.535
   16CHTO   C10 7187   8.012   2.286   8.647
   16CHTO   H23 7188   7.990   2.225   8.734
   16CHTO   C17 7189   7.965   2.430   8.677
   16CHTO   O12 7190   7.824   2.428   8.701
   16CHTO    H6 7191   7.791   2.517   8.717
   17CHTO  H203 7192   8.149   8.489   4.243
   17CHTO   O82 7193   8.106   8.420   4.293
   17CHTO  C123 7194   8.118   8.295   4.226
   17CHTO  H227 7195   8.225   8.270   4.215
   17CHTO   O77 7196   8.051   8.197   4.309
   17CHTO  C118 7197   8.065   8.065   4.257
   17CHTO  H222 7198   8.172   8.038   4.248
   17CHTO  C125 7199   7.997   7.963   4.353
   17CHTO   O84 7200   8.059   7.973   4.481
   17CHTO  H205 7201   8.016   7.916   4.544
   17CHTO  C114 7202   7.998   8.054   4.119
   17CHTO  H218 7203   7.890   8.071   4.131
   17CHTO  C116 7204   8.057   8.160   4.022
   17CHTO  H220 7205   8.162   8.137   3.999
   17CHTO   O79 7206   7.982   8.163   3.900
   17CHTO  H201 7207   8.016   8.229   3.841
   17CHTO  C120 7208   8.045   8.299   4.090
   17CHTO  H224 7209   7.937   8.321   4.103
   17CHTO   N21 7210   8.102   8.399   3.999
   17CHTO  H211 7211   8.210   8.393   4.001
   17CHTO  H212 7212   8.069   8.498   4.026
   17CHTO   O75 7213   8.023   7.920   4.078
   17CHTO  C112 7214   7.952   7.881   3.957
   17CHTO  H216 7215   7.990   7.937   3.871
   17CHTO   O73 7216   7.811   7.903   3.979
   17CHTO  C113 7217   7.733   7.859   3.868
   17CHTO  H217 7218   7.769   7.909   3.776
   17CHTO  C124 7219   7.588   7.900   3.891
   17CHTO   O83 7220   7.581   8.040   3.926
   17CHTO  H204 7221   7.491   8.064   3.945
   17CHTO  C109 7222   7.746   7.705   3.848
   17CHTO  H213 7223   7.713   7.658   3.943
   17CHTO  C110 7224   7.895   7.677   3.822
   17CHTO  H214 7225   7.927   7.725   3.729
   17CHTO   O78 7226   7.918   7.536   3.812
   17CHTO  H200 7227   8.010   7.518   3.798
   17CHTO  C111 7228   7.976   7.730   3.941
   17CHTO  H215 7229   7.945   7.677   4.033
   17CHTO   N19 7230   8.120   7.707   3.923
   17CHTO  H207 7231   8.172   7.736   4.012
   17CHTO  H208 7232   8.157   7.764   3.839
   17CHTO   O74 7233   7.661   7.658   3.741
   17CHTO  C115 7234   7.635   7.516   3.746
   17CHTO  H219 7235   7.703   7.465   3.813
   17CHTO   O76 7236   7.503   7.488   3.797
   17CHTO  C122 7237   7.402   7.566   3.730
   17CHTO  H226 7238   7.410   7.669   3.766
   17CHTO  C126 7239   7.261   7.516   3.771
   17CHTO   O85 7240   7.233   7.383   3.725
   17CHTO  H206 7241   7.298   7.321   3.755
   17CHTO  C121 7242   7.422   7.564   3.575
   17CHTO  H225 7243   7.324   7.549   3.525
   17CHTO   O81 7244   7.477   7.690   3.534
   17CHTO  H202 7245   7.419   7.762   3.554
   17CHTO  C119 7246   7.516   7.447   3.537
   17CHTO  H223 7247   7.470   7.360   3.583
   17CHTO  C117 7248   7.655   7.458   3.604
   17CHTO  H221 7249   7.728   7.520   3.551
   17CHTO   N20 7250   7.717   7.325   3.616
   17CHTO  H209 7251   7.726   7.280   3.518
   17CHTO  H210 7252   7.661   7.261   3.681
   17CHTO   O80 7253   7.522   7.409   3.398
   17CHTO  C103 7254   7.531   7.513   3.298
   17CHTO  H190 7255   7.448   7.585   3.308
   17CHTO  C101 7256   7.664   7.594   3.291
   17CHTO  H188 7257   7.751   7.526   3.286
   17CHTO   O68 7258   7.678   7.683   3.404
   17CHTO  H168 7259   7.765   7.722   3.408
   17CHTO   C99 7260   7.663   7.680   3.160
   17CHTO  H186 7261   7.578   7.751   3.163
   17CHTO   N17 7262   7.787   7.756   3.139
   17CHTO  H174 7263   7.872   7.690   3.148
   17CHTO  H175 7264   7.795   7.838   3.210
   17CHTO   C97 7265   7.641   7.592   3.036
   17CHTO  H184 7266   7.723   7.519   3.031
   17CHTO   O64 7267   7.514   7.528   3.051
   17CHTO  C104 7268   7.512   7.439   3.163
   17CHTO  H191 7269   7.590   7.364   3.152
   17CHTO  C108 7270   7.379   7.363   3.165
   17CHTO   O71 7271   7.360   7.301   3.037
   17CHTO  H171 7272   7.276   7.257   3.035
   17CHTO   O62 7273   7.640   7.675   2.920
   17CHTO   C91 7274   7.673   7.606   2.798
   17CHTO  H178 7275   7.775   7.565   2.809
   17CHTO   C92 7276   7.680   7.710   2.686
   17CHTO  H179 7277   7.750   7.792   2.713
   17CHTO   O66 7278   7.735   7.648   2.569
   17CHTO  H166 7279   7.747   7.711   2.499
   17CHTO   C93 7280   7.540   7.766   2.652
   17CHTO  H180 7281   7.544   7.812   2.552
   17CHTO   N16 7282   7.500   7.873   2.746
   17CHTO  H172 7283   7.489   7.834   2.845
   17CHTO  H173 7284   7.407   7.917   2.712
   17CHTO   C94 7285   7.436   7.651   2.652
   17CHTO  H181 7286   7.380   7.647   2.744
   17CHTO   O61 7287   7.506   7.527   2.634
   17CHTO   C95 7288   7.578   7.492   2.753
   17CHTO  H182 7289   7.506   7.470   2.833
   17CHTO  C106 7290   7.657   7.361   2.726
   17CHTO   O69 7291   7.560   7.261   2.692
   17CHTO  H169 7292   7.604   7.176   2.680
   17CHTO   O63 7293   7.350   7.677   2.538
   17CHTO   C96 7294   7.235   7.592   2.533
   17CHTO  H183 7295   7.186   7.595   2.631
   17CHTO   C98 7296   7.266   7.445   2.499
   17CHTO  H185 7297   7.329   7.398   2.576
   17CHTO   O67 7298   7.142   7.373   2.499
   17CHTO  H167 7299   7.160   7.281   2.486
   17CHTO  C102 7300   7.332   7.434   2.358
   17CHTO  H189 7301   7.315   7.331   2.324
   17CHTO   N18 7302   7.478   7.453   2.359
   17CHTO  H176 7303   7.525   7.383   2.428
   17CHTO  H177 7304   7.507   7.554   2.387
   17CHTO  C105 7305   7.265   7.532   2.261
   17CHTO  H192 7306   7.326   7.622   2.251
   17CHTO   O65 7307   7.134   7.569   2.308
   17CHTO  C100 7308   7.139   7.650   2.426
   17CHTO  H187 7309   7.176   7.750   2.397
   17CHTO  C107 7310   6.996   7.666   2.482
   17CHTO   O70 7311   6.952   7.543   2.537
   17CHTO  H170 7312   6.867   7.551   2.579
   17CHTO   O57 7313   7.261   7.458   2.137
   17CHTO   C85 7314   7.188   7.519   2.030
   17CHTO  H157 7315   7.081   7.526   2.057
   17CHTO   C83 7316   7.199   7.423   1.910
   17CHTO  H155 7317   7.163   7.322   1.938
   17CHTO   O56 7318   7.337   7.411   1.873
   17CHTO  H135 7319   7.389   7.377   1.945
   17CHTO   C81 7320   7.116   7.475   1.792
   17CHTO  H153 7321   7.009   7.462   1.814
   17CHTO   N14 7322   7.147   7.399   1.670
   17CHTO  H141 7323   7.120   7.296   1.686
   17CHTO  H142 7324   7.253   7.405   1.648
   17CHTO   C79 7325   7.143   7.626   1.769
   17CHTO  H151 7326   7.057   7.681   1.809
   17CHTO   O52 7327   7.262   7.668   1.840
   17CHTO   C86 7328   7.246   7.656   1.984
   17CHTO  H158 7329   7.349   7.669   2.023
   17CHTO   C90 7330   7.164   7.773   2.040
   17CHTO   O60 7331   7.201   7.892   1.970
   17CHTO  H138 7332   7.150   7.966   2.002
   17CHTO   O50 7333   7.156   7.654   1.629
   17CHTO   C73 7334   7.182   7.791   1.596
   17CHTO  H145 7335   7.268   7.830   1.652
   17CHTO   C74 7336   7.060   7.882   1.621
   17CHTO  H146 7337   7.037   7.885   1.729
   17CHTO   O54 7338   7.091   8.015   1.580
   17CHTO  H133 7339   7.016   8.071   1.597
   17CHTO   C75 7340   6.942   7.826   1.539
   17CHTO  H147 7341   6.921   7.722   1.571
   17CHTO   N13 7342   6.821   7.908   1.560
   17CHTO  H139 7343   6.793   7.907   1.664
   17CHTO  H140 7344   6.739   7.868   1.502
   17CHTO   C76 7345   6.984   7.827   1.390
   17CHTO  H148 7346   7.000   7.932   1.361
   17CHTO   O49 7347   7.103   7.749   1.368
   17CHTO   C77 7348   7.214   7.794   1.444
   17CHTO  H149 7349   7.241   7.896   1.415
   17CHTO   C88 7350   7.337   7.706   1.415
   17CHTO   O58 7351   7.369   7.713   1.274
   17CHTO  H136 7352   7.447   7.664   1.252
   17CHTO   O51 7353   6.877   7.765   1.314
   17CHTO   C78 7354   6.901   7.764   1.172
   17CHTO  H150 7355   7.007   7.747   1.149
   17CHTO   C80 7356   6.856   7.897   1.107
   17CHTO  H152 7357   6.751   7.918   1.137
   17CHTO   O55 7358   6.942   8.003   1.151
   17CHTO  H134 7359   6.912   8.087   1.118
   17CHTO   C84 7360   6.866   7.885   0.954
   17CHTO  H156 7361   6.971   7.873   0.926
   17CHTO   N15 7362   6.815   8.008   0.891
   17CHTO  H143 7363   6.712   8.021   0.917
   17CHTO  H144 7364   6.824   7.999   0.784
   17CHTO   C87 7365   6.786   7.763   0.906
   17CHTO  H159 7366   6.679   7.778   0.931
   17CHTO   O53 7367   6.837   7.645   0.970
   17CHTO   C82 7368   6.819   7.648   1.112
   17CHTO  H154 7369   6.713   7.659   1.137
   17CHTO   C89 7370   6.867   7.515   1.174
   17CHTO   O59 7371   6.793   7.408   1.113
   17CHTO  H137 7372   6.823   7.326   1.148
   17CHTO   O45 7373   6.802   7.752   0.763
   17CHTO   C67 7374   6.763   7.623   0.714
   17CHTO  H124 7375   6.827   7.545   0.756
   17CHTO   C65 7376   6.617   7.592   0.751
   17CHTO  H122 7377   6.561   7.686   0.749
   17CHTO   O44 7378   6.619   7.536   0.884
   17CHTO  H102 7379   6.531   7.522   0.919
   17CHTO   C63 7380   6.553   7.500   0.645
   17CHTO  H120 7381   6.511   7.561   0.564
   17CHTO   N11 7382   6.439   7.421   0.696
   17CHTO  H108 7383   6.365   7.487   0.738
   17CHTO  H109 7384   6.471   7.350   0.772
   17CHTO   C61 7385   6.661   7.406   0.585
   17CHTO  H118 7386   6.609   7.339   0.515
   17CHTO   O40 7387   6.757   7.481   0.511
   17CHTO   C68 7388   6.780   7.614   0.560
   17CHTO  H125 7389   6.708   7.682   0.512
   17CHTO   C72 7390   6.922   7.659   0.516
   17CHTO   O48 7391   6.948   7.796   0.547
   17CHTO  H105 7392   7.033   7.821   0.516
   17CHTO   O38 7393   6.731   7.329   0.685
   17CHTO   C55 7394   6.795   7.216   0.625
   17CHTO  H112 7395   6.829   7.241   0.524
   17CHTO   C56 7396   6.702   7.090   0.627
   17CHTO  H113 7397   6.681   7.066   0.732
   17CHTO   O42 7398   6.576   7.115   0.563
   17CHTO  H100 7399   6.517   7.041   0.575
   17CHTO   C57 7400   6.775   6.973   0.558
   17CHTO  H114 7401   6.794   6.998   0.453
   17CHTO   N10 7402   6.693   6.849   0.564
   17CHTO  H106 7403   6.755   6.762   0.554
   17CHTO  H107 7404   6.618   6.850   0.487
   17CHTO   C58 7405   6.908   6.949   0.630
   17CHTO  H115 7406   6.888   6.911   0.732
   17CHTO   O37 7407   6.988   7.068   0.635
   17CHTO   C59 7408   6.921   7.175   0.705
   17CHTO  H116 7409   6.895   7.143   0.807
   17CHTO   C70 7410   7.020   7.291   0.710
   17CHTO   O46 7411   7.144   7.250   0.770
   17CHTO  H103 7412   7.202   7.324   0.776
   17CHTO   O39 7413   6.977   6.849   0.553
   17CHTO   C60 7414   7.115   6.831   0.590
   17CHTO  H117 7415   7.169   6.924   0.573
   17CHTO   C62 7416   7.132   6.787   0.736
   17CHTO  H119 7417   7.103   6.872   0.800
   17CHTO   O43 7418   7.045   6.675   0.761
   17CHTO  H101 7419   7.045   6.651   0.853
   17CHTO   C66 7420   7.281   6.752   0.759
   17CHTO  H123 7421   7.341   6.843   0.745
   17CHTO   N12 7422   7.305   6.704   0.895
   17CHTO  H110 7423   7.263   6.605   0.909
   17CHTO  H111 7424   7.264   6.774   0.967
   17CHTO   C69 7425   7.325   6.644   0.658
   17CHTO  H126 7426   7.263   6.554   0.671
   17CHTO   O41 7427   7.314   6.699   0.526
   17CHTO   C64 7428   7.175   6.726   0.494
   17CHTO  H121 7429   7.116   6.632   0.502
   17CHTO   C71 7430   7.166   6.775   0.348
   17CHTO   O47 7431   7.229   6.677   0.265
   17CHTO  H104 7432   7.224   6.703   0.174
   17CHTO   O34 7433   7.462   6.615   0.694
   17CHTO   C49 7434   7.510   6.487   0.648
   17CHTO   H91 7435   7.445   6.409   0.687
   17CHTO   C47 7436   7.652   6.475   0.704
   17CHTO   H89 7437   7.694   6.379   0.668
   17CHTO   O33 7438   7.655   6.476   0.849
   17CHTO   H70 7439   7.606   6.402   0.882
   17CHTO   C45 7440   7.736   6.596   0.653
   17CHTO   H87 7441   7.730   6.680   0.723
   17CHTO    N8 7442   7.877   6.554   0.644
   17CHTO   H75 7443   7.908   6.511   0.738
   17CHTO   H76 7444   7.940   6.637   0.619
   17CHTO   C43 7445   7.685   6.644   0.515
   17CHTO   H85 7446   7.603   6.714   0.532
   17CHTO   O29 7447   7.644   6.528   0.441
   17CHTO   C50 7448   7.522   6.474   0.494
   17CHTO   H92 7449   7.436   6.527   0.448
   17CHTO   C54 7450   7.505   6.328   0.449
   17CHTO   O36 7451   7.503   6.323   0.305
   17CHTO   H72 7452   7.491   6.234   0.276
   17CHTO   O27 7453   7.790   6.713   0.447
   17CHTO   C37 7454   7.760   6.749   0.310
   17CHTO   H79 7455   7.738   6.659   0.250
   17CHTO   C38 7456   7.639   6.843   0.301
   17CHTO   H80 7457   7.651   6.925   0.374
   17CHTO   O31 7458   7.520   6.770   0.328
   17CHTO   H68 7459   7.442   6.824   0.324
   17CHTO   C39 7460   7.625   6.901   0.157
   17CHTO   H81 7461   7.603   6.817   0.089
   17CHTO    N7 7462   7.514   6.997   0.151
   17CHTO   H73 7463   7.496   7.026   0.048
   17CHTO   H74 7464   7.536   7.084   0.211
   17CHTO   C40 7465   7.756   6.967   0.110
   17CHTO   H82 7466   7.781   7.052   0.176
   17CHTO   O26 7467   7.858   6.866   0.114
   17CHTO   C41 7468   7.883   6.820   0.250
   17CHTO   H83 7469   7.911   6.906   0.313
   17CHTO   C52 7470   8.003   6.724   0.241
   17CHTO   O35 7471   8.117   6.788   0.179
   17CHTO   H71 7472   8.194   6.732   0.184
   17CHTO   O28 7473   7.741   7.013  -0.025
   17CHTO   C42 7474   7.853   7.083  -0.081
   17CHTO   H84 7475   7.825   7.101  -0.186
   17CHTO   C44 7476   7.986   7.004  -0.087
   17CHTO   H86 7477   8.025   6.992   0.015
   17CHTO   O32 7478   7.964   6.875  -0.144
   17CHTO   H69 7479   8.044   6.824  -0.141
   17CHTO   C48 7480   8.088   7.088  -0.168
   17CHTO   H90 7481   8.050   7.103  -0.270
   17CHTO    N9 7482   8.216   7.013  -0.181
   17CHTO   H77 7483   8.267   7.009  -0.086
   17CHTO   H78 7484   8.280   7.060  -0.255
   17CHTO   C51 7485   8.106   7.224  -0.097
   17CHTO   H93 7486   8.144   7.206   0.004
   17CHTO   O30 7487   7.981   7.291  -0.096
   17CHTO   C46 7488   7.882   7.221  -0.018
   17CHTO   H88 7489   7.917   7.209   0.086
   17CHTO   C53 7490   7.755   7.310  -0.022
   17CHTO   O72 7491   7.652   7.252   0.059
   17CHTO  H199 7492   7.573   7.305   0.057
   17CHTO   O22 7493   8.199   7.302  -0.175
   17CHTO   C31 7494   8.239   7.431  -0.118
   17CHTO   H59 7495   8.305   7.477  -0.193
   17CHTO   C29 7496   8.124   7.530  -0.092
   17CHTO   H57 7497   8.058   7.492  -0.012
   17CHTO   O21 7498   8.042   7.546  -0.208
   17CHTO   H37 7499   8.095   7.579  -0.280
   17CHTO   C27 7500   8.185   7.665  -0.049
   17CHTO   H55 7501   8.246   7.704  -0.133
   17CHTO    N5 7502   8.078   7.761  -0.018
   17CHTO   H43 7503   8.014   7.727   0.062
   17CHTO   H44 7504   8.018   7.784  -0.105
   17CHTO   C25 7505   8.273   7.643   0.075
   17CHTO   H53 7506   8.208   7.607   0.156
   17CHTO   O17 7507   8.376   7.546   0.048
   17CHTO   C32 7508   8.322   7.418   0.012
   17CHTO   H60 7509   8.258   7.380   0.092
   17CHTO   C36 7510   8.441   7.323  -0.009
   17CHTO   O25 7511   8.511   7.307   0.115
   17CHTO   H40 7512   8.582   7.245   0.105
   17CHTO   O15 7513   8.330   7.770   0.111
   17CHTO   C19 7514   8.406   7.770   0.235
   17CHTO   H47 7515   8.443   7.873   0.242
   17CHTO   C20 7516   8.323   7.742   0.361
   17CHTO   H48 7517   8.284   7.639   0.363
   17CHTO   O19 7518   8.213   7.834   0.365
   17CHTO   H35 7519   8.161   7.820   0.443
   17CHTO   C21 7520   8.413   7.763   0.485
   17CHTO   H49 7521   8.446   7.868   0.487
   17CHTO    N4 7522   8.339   7.736   0.608
   17CHTO   H41 7523   8.403   7.757   0.694
   17CHTO   H42 7524   8.309   7.631   0.612
   17CHTO   C22 7525   8.535   7.671   0.472
   17CHTO   H50 7526   8.501   7.567   0.470
   17CHTO   O14 7527   8.609   7.702   0.353
   17CHTO   C23 7528   8.531   7.679   0.234
   17CHTO   H51 7529   8.505   7.572   0.232
   17CHTO   C34 7530   8.621   7.711   0.114
   17CHTO   O23 7531   8.734   7.625   0.117
   17CHTO   H38 7532   8.795   7.646   0.047
   17CHTO   O16 7533   8.618   7.696   0.585
   17CHTO   C24 7534   8.719   7.595   0.601
   17CHTO   H52 7535   8.752   7.555   0.504
   17CHTO   C26 7536   8.666   7.481   0.689
   17CHTO   H54 7537   8.623   7.524   0.782
   17CHTO   O20 7538   8.565   7.402   0.622
   17CHTO   H36 7539   8.531   7.337   0.682
   17CHTO   C30 7540   8.782   7.389   0.729
   17CHTO   H58 7541   8.825   7.339   0.641
   17CHTO    N6 7542   8.735   7.284   0.822
   17CHTO   H45 7543   8.708   7.328   0.916
   17CHTO   H46 7544   8.814   7.214   0.837
   17CHTO   C33 7545   8.893   7.474   0.795
   17CHTO   H61 7546   8.854   7.526   0.883
   17CHTO   O18 7547   8.941   7.569   0.701
   17CHTO   C28 7548   8.840   7.665   0.664
   17CHTO   H56 7549   8.807   7.721   0.753
   17CHTO   C35 7550   8.905   7.762   0.563
   17CHTO   O24 7551   9.012   7.836   0.623
   17CHTO   H39 7552   9.047   7.896   0.559
   17CHTO    O9 7553   8.997   7.389   0.843
   17CHTO   C13 7554   9.116   7.461   0.884
   17CHTO   H26 7555   9.088   7.560   0.925
   17CHTO   C11 7556   9.209   7.473   0.760
   17CHTO   H24 7557   9.181   7.560   0.699
   17CHTO    O8 7558   9.189   7.354   0.683
   17CHTO    H3 7559   9.240   7.354   0.604
   17CHTO    C9 7560   9.354   7.487   0.807
   17CHTO   H22 7561   9.354   7.574   0.874
   17CHTO    N2 7562   9.447   7.518   0.696
   17CHTO   H10 7563   9.412   7.605   0.641
   17CHTO   H11 7564   9.460   7.434   0.630
   17CHTO    C7 7565   9.397   7.360   0.884
   17CHTO   H20 7566   9.460   7.398   0.966
   17CHTO    O4 7567   9.284   7.290   0.937
   17CHTO   C14 7568   9.188   7.379   0.994
   17CHTO   H27 7569   9.237   7.448   1.065
   17CHTO   C18 7570   9.086   7.296   1.076
   17CHTO   O13 7571   8.984   7.384   1.126
   17CHTO    H7 7572   8.920   7.335   1.178
   17CHTO    O2 7573   9.473   7.270   0.801
   17CHTO    C1 7574   9.511   7.147   0.866
   17CHTO   H14 7575   9.421   7.091   0.897
   17CHTO    C2 7576   9.604   7.168   0.989
   17CHTO   H15 7577   9.688   7.235   0.959
   17CHTO    O6 7578   9.532   7.223   1.099
   17CHTO    H1 7579   9.589   7.236   1.173
   17CHTO    C3 7580   9.658   7.031   1.037
   17CHTO   H16 7581   9.574   6.969   1.075
   17CHTO    N1 7582   9.752   7.050   1.148
   17CHTO    H8 7583   9.837   7.109   1.115
   17CHTO    H9 7584   9.788   6.955   1.186
   17CHTO    C4 7585   9.720   6.951   0.920
   17CHTO   H17 7586   9.813   7.002   0.887
   17CHTO    O1 7587   9.627   6.939   0.812
   17CHTO    C5 7588   9.586   7.064   0.759
   17CHTO   H18 7589   9.674   7.121   0.725
   17CHTO   C16 7590   9.495   7.034   0.637
   17CHTO   O11 7591   9.565   6.941   0.554
   17CHTO    H5 7592   9.514   6.923   0.476
   17CHTO    O3 7593   9.750   6.819   0.968
   17CHTO    C6 7594   9.810   6.734   0.868
   17CHTO   H19 7595   9.772   6.755   0.766
   17CHTO    C8 7596   9.964   6.745   0.870
   17CHTO   H21 7597  10.000   6.726   0.972
   17CHTO    O7 7598  10.004   6.875   0.827
   17CHTO    H2 7599  10.099   6.884   0.825
   17CHTO   C12 7600  10.023   6.640   0.774
   17CHTO   H25 7601   9.989   6.668   0.671
   17CHTO    N3 7602  10.170   6.651   0.778
   17CHTO   H12 7603  10.216   6.598   0.696
   17CHTO   H13 7604  10.208   6.614   0.872
   17CHTO   C15 7605   9.971   6.499   0.808
   17CHTO   H28 7606  10.007   6.467   0.906
   17CHTO   O10 7607  10.010   6.403   0.708
   17CHTO    H4 7608  10.104   6.390   0.707
   17CHTO    O5 7609   9.827   6.498   0.804
   17CHTO   C10 7610   9.773   6.588   0.901
   17CHTO   H23 7611   9.810   6.562   1.000
   17CHTO   C17 7612   9.620   6.569   0.902
   17CHTO   O12 7613   9.590   6.433   0.930
   17CHTO    H6 7614   9.496   6.417   0.928
   18CHTO  H203 7615   6.540   4.927  10.804
   18CHTO   O82 7616   6.447   4.935  10.785
   18CHTO  C123 7617   6.423   4.922  10.646
   18CHTO  H227 7618   6.458   4.822  10.612
   18CHTO   O77 7619   6.280   4.934  10.627
   18CHTO  C118 7620   6.242   4.913  10.491
   18CHTO  H222 7621   6.274   4.812  10.458
   18CHTO  C125 7622   6.087   4.922  10.477
   18CHTO   O84 7623   6.028   4.822  10.562
   18CHTO  H205 7624   5.934   4.829  10.561
   18CHTO  C114 7625   6.304   5.019  10.400
   18CHTO  H218 7626   6.264   5.118  10.428
   18CHTO  C116 7627   6.459   5.020  10.417
   18CHTO  H220 7628   6.503   4.927  10.377
   18CHTO   O79 7629   6.517   5.131  10.347
   18CHTO  H201 7630   6.611   5.134  10.358
   18CHTO  C120 7631   6.491   5.036  10.568
   18CHTO  H224 7632   6.453   5.135  10.600
   18CHTO   N21 7633   6.636   5.035  10.584
   18CHTO  H211 7634   6.675   4.934  10.573
   18CHTO  H212 7635   6.665   5.076  10.679
   18CHTO   O75 7636   6.263   4.983  10.269
   18CHTO  C112 7637   6.295   5.082  10.168
   18CHTO  H216 7638   6.404   5.088  10.153
   18CHTO   O73 7639   6.238   5.208  10.207
   18CHTO  C113 7640   6.257   5.309  10.108
   18CHTO  H217 7641   6.366   5.318  10.087
   18CHTO  C124 7642   6.209   5.443  10.164
   18CHTO   O83 7643   6.267   5.465  10.295
   18CHTO  H204 7644   6.233   5.546  10.331
   18CHTO  C109 7645   6.184   5.273   9.976
   18CHTO  H213 7646   6.076   5.261  10.002
   18CHTO  C110 7647   6.244   5.140   9.928
   18CHTO  H214 7648   6.350   5.152   9.904
   18CHTO   O78 7649   6.175   5.093   9.812
   18CHTO  H200 7650   6.209   5.010   9.783
   18CHTO  C111 7651   6.225   5.035  10.039
   18CHTO  H215 7652   6.117   5.021  10.058
   18CHTO   N19 7653   6.280   4.905  10.000
   18CHTO  H207 7654   6.256   4.832  10.075
   18CHTO  H208 7655   6.387   4.911   9.988
   18CHTO   O74 7656   6.196   5.378   9.877
   18CHTO  C115 7657   6.097   5.372   9.773
   18CHTO  H219 7658   6.047   5.276   9.771
   18CHTO   O76 7659   5.993   5.469   9.792
   18CHTO  C122 7660   6.047   5.600   9.816
   18CHTO  H226 7661   6.087   5.602   9.918
   18CHTO  C126 7662   5.933   5.706   9.813
   18CHTO   O85 7663   5.873   5.720   9.683
   18CHTO  H206 7664   5.841   5.638   9.650
   18CHTO  C121 7665   6.161   5.636   9.715
   18CHTO  H225 7666   6.148   5.739   9.679
   18CHTO   O81 7667   6.287   5.624   9.784
   18CHTO  H202 7668   6.294   5.685   9.855
   18CHTO  C119 7669   6.154   5.538   9.596
   18CHTO  H223 7670   6.052   5.547   9.560
   18CHTO  C117 7671   6.169   5.390   9.637
   18CHTO  H221 7672   6.272   5.354   9.647
   18CHTO   N20 7673   6.105   5.302   9.538
   18CHTO  H209 7674   6.149   5.319   9.440
   18CHTO  H210 7675   5.998   5.318   9.533
   18CHTO   O80 7676   6.230   5.573   9.478
   18CHTO  C103 7677   6.366   5.620   9.494
   18CHTO  H190 7678   6.369   5.707   9.561
   18CHTO  C101 7679   6.472   5.517   9.544
   18CHTO  H188 7680   6.468   5.425   9.483
   18CHTO   O68 7681   6.452   5.483   9.683
   18CHTO  H168 7682   6.507   5.410   9.710
   18CHTO   C99 7683   6.614   5.580   9.527
   18CHTO  H186 7684   6.622   5.671   9.590
   18CHTO   N17 7685   6.723   5.489   9.565
   18CHTO  H174 7686   6.711   5.395   9.514
   18CHTO  H175 7687   6.726   5.474   9.672
   18CHTO   C97 7688   6.638   5.625   9.383
   18CHTO  H184 7689   6.630   5.537   9.317
   18CHTO   O64 7690   6.539   5.724   9.350
   18CHTO  C104 7691   6.407   5.669   9.353
   18CHTO  H191 7692   6.401   5.586   9.283
   18CHTO  C108 7693   6.308   5.774   9.305
   18CHTO   O71 7694   6.352   5.824   9.177
   18CHTO  H171 7695   6.294   5.892   9.147
   18CHTO   O62 7696   6.769   5.683   9.373
   18CHTO   C91 7697   6.825   5.680   9.240
   18CHTO  H178 7698   6.833   5.575   9.210
   18CHTO   C92 7699   6.968   5.734   9.250
   18CHTO  H179 7700   7.026   5.677   9.326
   18CHTO   O66 7701   7.034   5.711   9.125
   18CHTO  H166 7702   7.125   5.737   9.128
   18CHTO   C93 7703   6.970   5.885   9.281
   18CHTO  H180 7704   7.069   5.925   9.252
   18CHTO   N16 7705   6.954   5.911   9.426
   18CHTO  H172 7706   6.857   5.879   9.459
   18CHTO  H173 7707   6.967   6.017   9.444
   18CHTO   C94 7708   6.860   5.957   9.199
   18CHTO  H181 7709   6.771   5.976   9.258
   18CHTO   O61 7710   6.826   5.874   9.087
   18CHTO   C95 7711   6.750   5.760   9.131
   18CHTO  H182 7712   6.653   5.794   9.169
   18CHTO  C106 7713   6.721   5.671   9.007
   18CHTO   O69 7714   6.647   5.750   8.914
   18CHTO  H169 7715   6.621   5.697   8.839
   18CHTO   O63 7716   6.921   6.080   9.153
   18CHTO   C96 7717   6.828   6.171   9.091
   18CHTO  H183 7718   6.743   6.183   9.159
   18CHTO   C98 7719   6.775   6.124   8.954
   18CHTO  H185 7720   6.718   6.030   8.962
   18CHTO   O67 7721   6.683   6.222   8.908
   18CHTO  H167 7722   6.644   6.192   8.827
   18CHTO  C102 7723   6.893   6.109   8.852
   18CHTO  H189 7724   6.848   6.116   8.752
   18CHTO   N18 7725   6.961   5.979   8.858
   18CHTO  H176 7726   6.889   5.898   8.844
   18CHTO  H177 7727   7.013   5.963   8.952
   18CHTO  C105 7728   6.993   6.224   8.871
   18CHTO  H192 7729   7.078   6.190   8.930
   18CHTO   O65 7730   6.931   6.335   8.938
   18CHTO  C100 7731   6.899   6.306   9.075
   18CHTO  H187 7732   6.995   6.303   9.131
   18CHTO  C107 7733   6.815   6.422   9.132
   18CHTO   O70 7734   6.685   6.419   9.075
   18CHTO  H170 7735   6.627   6.484   9.113
   18CHTO   O57 7736   7.033   6.255   8.736
   18CHTO   C85 7737   7.115   6.371   8.720
   18CHTO  H157 7738   7.058   6.461   8.750
   18CHTO   C83 7739   7.145   6.383   8.570
   18CHTO  H155 7740   7.051   6.386   8.512
   18CHTO   O56 7741   7.218   6.266   8.528
   18CHTO  H135 7742   7.168   6.188   8.544
   18CHTO   C81 7743   7.226   6.510   8.541
   18CHTO  H153 7744   7.160   6.598   8.551
   18CHTO   N14 7745   7.277   6.508   8.403
   18CHTO  H141 7746   7.193   6.506   8.335
   18CHTO  H142 7747   7.338   6.420   8.386
   18CHTO   C79 7748   7.343   6.524   8.641
   18CHTO  H151 7749   7.315   6.600   8.715
   18CHTO   O52 7750   7.366   6.399   8.710
   18CHTO   C86 7751   7.252   6.361   8.794
   18CHTO  H158 7752   7.274   6.257   8.821
   18CHTO   C90 7753   7.252   6.441   8.924
   18CHTO   O60 7754   7.387   6.455   8.969
   18CHTO  H138 7755   7.389   6.506   9.050
   18CHTO   O50 7756   7.463   6.566   8.573
   18CHTO   C73 7757   7.578   6.581   8.657
   18CHTO  H145 7758   7.597   6.491   8.716
   18CHTO   C74 7759   7.567   6.703   8.750
   18CHTO  H146 7760   7.485   6.688   8.822
   18CHTO   O54 7761   7.688   6.716   8.826
   18CHTO  H133 7762   7.680   6.790   8.884
   18CHTO   C75 7763   7.544   6.828   8.663
   18CHTO  H147 7764   7.452   6.815   8.604
   18CHTO   N13 7765   7.532   6.949   8.748
   18CHTO  H139 7766   7.448   6.938   8.814
   18CHTO  H140 7767   7.516   7.035   8.685
   18CHTO   C76 7768   7.665   6.841   8.567
   18CHTO  H148 7769   7.755   6.857   8.629
   18CHTO   O49 7770   7.680   6.723   8.485
   18CHTO   C77 7771   7.698   6.604   8.561
   18CHTO  H149 7772   7.790   6.610   8.619
   18CHTO   C88 7773   7.714   6.484   8.466
   18CHTO   O58 7774   7.829   6.504   8.381
   18CHTO  H136 7775   7.845   6.430   8.324
   18CHTO   O51 7776   7.639   6.952   8.479
   18CHTO   C78 7777   7.746   6.979   8.387
   18CHTO  H150 7778   7.794   6.886   8.351
   18CHTO   C80 7779   7.853   7.069   8.451
   18CHTO  H152 7780   7.804   7.159   8.493
   18CHTO   O55 7781   7.920   6.997   8.555
   18CHTO  H134 7782   7.982   7.053   8.601
   18CHTO   C84 7783   7.957   7.110   8.344
   18CHTO  H156 7784   8.010   7.021   8.310
   18CHTO   N15 7785   8.054   7.203   8.403
   18CHTO  H143 7786   8.003   7.292   8.436
   18CHTO  H144 7787   8.126   7.231   8.327
   18CHTO   C87 7788   7.884   7.176   8.225
   18CHTO  H159 7789   7.835   7.268   8.259
   18CHTO   O53 7790   7.789   7.082   8.171
   18CHTO   C82 7791   7.686   7.051   8.265
   18CHTO  H154 7792   7.633   7.142   8.295
   18CHTO   C89 7793   7.581   6.958   8.198
   18CHTO   O59 7794   7.530   7.026   8.081
   18CHTO  H137 7795   7.468   6.970   8.038
   18CHTO   O45 7796   7.984   7.207   8.125
   18CHTO   C67 7797   7.925   7.234   7.997
   18CHTO  H124 7798   7.874   7.145   7.959
   18CHTO   C65 7799   7.823   7.349   8.006
   18CHTO  H122 7800   7.859   7.420   8.081
   18CHTO   O44 7801   7.698   7.290   8.046
   18CHTO  H102 7802   7.631   7.356   8.064
   18CHTO   C63 7803   7.816   7.425   7.872
   18CHTO  H120 7804   7.893   7.504   7.871
   18CHTO   N11 7805   7.688   7.497   7.851
   18CHTO  H108 7806   7.670   7.564   7.933
   18CHTO  H109 7807   7.606   7.427   7.842
   18CHTO   C61 7808   7.844   7.328   7.755
   18CHTO  H118 7809   7.832   7.386   7.662
   18CHTO   O40 7810   7.978   7.281   7.759
   18CHTO   C68 7811   8.033   7.270   7.892
   18CHTO  H125 7812   8.079   7.366   7.919
   18CHTO   C72 7813   8.147   7.164   7.889
   18CHTO   O48 7814   8.217   7.157   8.013
   18CHTO  H105 7815   8.289   7.094   8.007
   18CHTO   O38 7816   7.756   7.214   7.754
   18CHTO   C55 7817   7.754   7.153   7.624
   18CHTO  H112 7818   7.853   7.161   7.577
   18CHTO   C56 7819   7.641   7.212   7.534
   18CHTO  H113 7820   7.545   7.190   7.584
   18CHTO   O42 7821   7.650   7.354   7.522
   18CHTO  H100 7822   7.575   7.389   7.476
   18CHTO   C57 7823   7.646   7.145   7.395
   18CHTO  H114 7824   7.742   7.168   7.347
   18CHTO   N10 7825   7.536   7.193   7.309
   18CHTO  H106 7826   7.515   7.122   7.232
   18CHTO  H107 7827   7.560   7.288   7.266
   18CHTO   C58 7828   7.635   6.994   7.414
   18CHTO  H115 7829   7.533   6.969   7.450
   18CHTO   O37 7830   7.734   6.943   7.504
   18CHTO   C59 7831   7.723   7.002   7.635
   18CHTO  H116 7832   7.623   6.984   7.676
   18CHTO   C70 7833   7.829   6.932   7.721
   18CHTO   O46 7834   7.812   6.790   7.719
   18CHTO  H103 7835   7.875   6.749   7.777
   18CHTO   O39 7836   7.655   6.936   7.283
   18CHTO   C60 7837   7.673   6.794   7.284
   18CHTO  H117 7838   7.762   6.768   7.341
   18CHTO   C62 7839   7.551   6.719   7.341
   18CHTO  H119 7840   7.546   6.741   7.449
   18CHTO   O43 7841   7.433   6.767   7.276
   18CHTO  H101 7842   7.354   6.731   7.316
   18CHTO   C66 7843   7.573   6.567   7.319
   18CHTO  H123 7844   7.661   6.535   7.376
   18CHTO   N12 7845   7.459   6.489   7.366
   18CHTO  H110 7846   7.373   6.502   7.301
   18CHTO  H111 7847   7.435   6.515   7.468
   18CHTO   C69 7848   7.596   6.539   7.169
   18CHTO  H126 7849   7.508   6.573   7.111
   18CHTO   O41 7850   7.716   6.606   7.128
   18CHTO   C64 7851   7.699   6.749   7.138
   18CHTO  H121 7852   7.614   6.782   7.075
   18CHTO   C71 7853   7.827   6.819   7.085
   18CHTO   O47 7854   7.851   6.769   6.952
   18CHTO  H104 7855   7.928   6.810   6.915
   18CHTO   O34 7856   7.607   6.396   7.160
   18CHTO   C49 7857   7.581   6.341   7.029
   18CHTO   H91 7858   7.481   6.371   6.998
   18CHTO   C47 7859   7.590   6.189   7.046
   18CHTO   H89 7860   7.574   6.144   6.946
   18CHTO   O33 7861   7.492   6.138   7.138
   18CHTO   H70 7862   7.405   6.156   7.105
   18CHTO   C45 7863   7.731   6.154   7.101
   18CHTO   H87 7864   7.731   6.153   7.211
   18CHTO    N8 7865   7.768   6.020   7.053
   18CHTO   H75 7866   7.689   5.950   7.078
   18CHTO   H76 7867   7.861   5.988   7.098
   18CHTO   C43 7868   7.836   6.259   7.054
   18CHTO   H85 7869   7.834   6.342   7.124
   18CHTO   O29 7870   7.802   6.298   6.921
   18CHTO   C50 7871   7.685   6.381   6.921
   18CHTO   H92 7872   7.715   6.486   6.938
   18CHTO   C54 7873   7.621   6.382   6.780
   18CHTO   O36 7874   7.718   6.432   6.686
   18CHTO   H72 7875   7.680   6.435   6.599
   18CHTO   O27 7876   7.967   6.200   7.058
   18CHTO   C37 7877   8.071   6.281   7.001
   18CHTO   H79 7878   8.050   6.304   6.895
   18CHTO   C38 7879   8.087   6.415   7.076
   18CHTO   H80 7880   8.090   6.395   7.185
   18CHTO   O31 7881   7.977   6.500   7.044
   18CHTO   H68 7882   7.982   6.583   7.089
   18CHTO   C39 7883   8.216   6.488   7.031
   18CHTO   H81 7884   8.204   6.515   6.925
   18CHTO    N7 7885   8.235   6.612   7.108
   18CHTO   H73 7886   8.316   6.669   7.067
   18CHTO   H74 7887   8.254   6.589   7.212
   18CHTO   C40 7888   8.340   6.397   7.043
   18CHTO   H82 7889   8.356   6.370   7.149
   18CHTO   O26 7890   8.316   6.282   6.961
   18CHTO   C41 7891   8.204   6.203   7.009
   18CHTO   H83 7892   8.224   6.174   7.114
   18CHTO   C52 7893   8.200   6.077   6.922
   18CHTO   O35 7894   8.327   6.007   6.924
   18CHTO   H71 7895   8.320   5.923   6.880
   18CHTO   O28 7896   8.456   6.468   6.995
   18CHTO   C42 7897   8.581   6.398   7.006
   18CHTO   H84 7898   8.654   6.464   6.956
   18CHTO   C44 7899   8.590   6.262   6.933
   18CHTO   H86 7900   8.527   6.189   6.985
   18CHTO   O32 7901   8.544   6.276   6.798
   18CHTO   H69 7902   8.542   6.191   6.755
   18CHTO   C48 7903   8.737   6.213   6.939
   18CHTO   H90 7904   8.802   6.287   6.889
   18CHTO    N9 7905   8.751   6.085   6.865
   18CHTO   H77 7906   8.703   6.005   6.918
   18CHTO   H78 7907   8.856   6.062   6.850
   18CHTO   C51 7908   8.777   6.200   7.088
   18CHTO   H93 7909   8.710   6.127   7.135
   18CHTO   O30 7910   8.767   6.328   7.148
   18CHTO   C46 7911   8.632   6.378   7.151
   18CHTO   H88 7912   8.566   6.308   7.204
   18CHTO   C53 7913   8.638   6.514   7.225
   18CHTO   O72 7914   8.506   6.569   7.238
   18CHTO  H199 7915   8.509   6.652   7.283
   18CHTO   O22 7916   8.914   6.157   7.093
   18CHTO   C31 7917   8.968   6.128   7.226
   18CHTO   H59 7918   9.074   6.102   7.210
   18CHTO   C29 7919   8.964   6.244   7.326
   18CHTO   H57 7920   8.860   6.269   7.352
   18CHTO   O21 7921   9.023   6.362   7.270
   18CHTO   H37 7922   9.113   6.345   7.247
   18CHTO   C27 7923   9.040   6.201   7.453
   18CHTO   H55 7924   9.146   6.182   7.426
   18CHTO    N5 7925   9.034   6.307   7.554
   18CHTO   H43 7926   8.933   6.332   7.582
   18CHTO   H44 7927   9.085   6.397   7.521
   18CHTO   C25 7928   8.975   6.073   7.509
   18CHTO   H53 7929   8.871   6.097   7.537
   18CHTO   O17 7930   8.976   5.969   7.410
   18CHTO   C32 7931   8.903   6.004   7.292
   18CHTO   H60 7932   8.799   6.028   7.318
   18CHTO   C36 7933   8.907   5.882   7.198
   18CHTO   O25 7934   8.839   5.773   7.259
   18CHTO   H40 7935   8.836   5.699   7.200
   18CHTO   O15 7936   9.049   6.034   7.627
   18CHTO   C19 7937   8.992   5.922   7.699
   18CHTO   H47 7938   9.065   5.906   7.781
   18CHTO   C20 7939   8.855   5.949   7.763
   18CHTO   H48 7940   8.777   5.963   7.687
   18CHTO   O19 7941   8.865   6.067   7.844
   18CHTO   H35 7942   8.781   6.085   7.886
   18CHTO   C21 7943   8.818   5.828   7.851
   18CHTO   H49 7944   8.892   5.818   7.932
   18CHTO    N4 7945   8.686   5.848   7.913
   18CHTO   H41 7946   8.665   5.764   7.979
   18CHTO   H42 7947   8.609   5.853   7.837
   18CHTO   C22 7948   8.819   5.702   7.764
   18CHTO   H50 7949   8.744   5.713   7.685
   18CHTO   O14 7950   8.950   5.682   7.708
   18CHTO   C23 7951   8.988   5.789   7.620
   18CHTO   H51 7952   8.914   5.792   7.538
   18CHTO   C34 7953   9.126   5.755   7.563
   18CHTO   O23 7954   9.116   5.633   7.491
   18CHTO   H38 7955   9.202   5.604   7.459
   18CHTO   O16 7956   8.789   5.592   7.849
   18CHTO   C24 7957   8.756   5.474   7.775
   18CHTO   H52 7958   8.812   5.468   7.680
   18CHTO   C26 7959   8.605   5.469   7.746
   18CHTO   H54 7960   8.550   5.485   7.841
   18CHTO   O20 7961   8.565   5.568   7.650
   18CHTO   H36 7962   8.470   5.565   7.639
   18CHTO   C30 7963   8.568   5.330   7.693
   18CHTO   H58 7964   8.615   5.311   7.596
   18CHTO    N6 7965   8.421   5.320   7.673
   18CHTO   H45 7966   8.373   5.321   7.769
   18CHTO   H46 7967   8.400   5.228   7.624
   18CHTO   C33 7968   8.617   5.223   7.792
   18CHTO   H61 7969   8.572   5.239   7.891
   18CHTO   O18 7970   8.758   5.230   7.803
   18CHTO   C28 7971   8.802   5.355   7.861
   18CHTO   H56 7972   8.762   5.366   7.963
   18CHTO   C35 7973   8.956   5.350   7.868
   18CHTO   O24 7974   9.002   5.247   7.956
   18CHTO   H39 7975   9.096   5.249   7.959
   18CHTO    O9 7976   8.573   5.094   7.751
   18CHTO   C13 7977   8.635   4.985   7.824
   18CHTO   H26 7978   8.655   5.017   7.928
   18CHTO   C11 7979   8.765   4.945   7.749
   18CHTO   H24 7980   8.849   5.009   7.780
   18CHTO    O8 7981   8.739   4.965   7.610
   18CHTO    H3 7982   8.814   4.946   7.556
   18CHTO    C9 7983   8.798   4.798   7.780
   18CHTO   H22 7984   8.804   4.793   7.889
   18CHTO    N2 7985   8.930   4.757   7.728
   18CHTO   H10 7986   9.007   4.826   7.763
   18CHTO   H11 7987   8.931   4.752   7.620
   18CHTO    C7 7988   8.684   4.707   7.728
   18CHTO   H20 7989   8.676   4.629   7.804
   18CHTO    O4 7990   8.561   4.778   7.715
   18CHTO   C14 7991   8.537   4.865   7.826
   18CHTO   H27 7992   8.549   4.809   7.921
   18CHTO   C18 7993   8.391   4.913   7.820
   18CHTO   O13 7994   8.368   5.007   7.926
   18CHTO    H7 7995   8.278   5.038   7.926
   18CHTO    O2 7996   8.718   4.648   7.601
   18CHTO    C1 7997   8.614   4.565   7.544
   18CHTO   H14 7998   8.523   4.626   7.527
   18CHTO    C2 7999   8.578   4.442   7.632
   18CHTO   H15 8000   8.671   4.389   7.659
   18CHTO    O6 8001   8.506   4.482   7.749
   18CHTO    H1 8002   8.485   4.406   7.802
   18CHTO    C3 8003   8.483   4.348   7.553
   18CHTO   H16 8004   8.386   4.400   7.534
   18CHTO    N1 8005   8.454   4.227   7.632
   18CHTO    H8 8006   8.546   4.174   7.651
   18CHTO    H9 8007   8.385   4.163   7.580
   18CHTO    C4 8008   8.541   4.315   7.413
   18CHTO   H17 8009   8.631   4.252   7.426
   18CHTO    O1 8010   8.572   4.435   7.342
   18CHTO    C5 8011   8.668   4.516   7.408
   18CHTO   H18 8012   8.760   4.460   7.424
   18CHTO   C16 8013   8.699   4.636   7.314
   18CHTO   O11 8014   8.728   4.581   7.184
   18CHTO    H5 8015   8.751   4.652   7.124
   18CHTO    O3 8016   8.440   4.245   7.340
   18CHTO    C6 8017   8.482   4.207   7.207
   18CHTO   H19 8018   8.550   4.281   7.162
   18CHTO    C8 8019   8.547   4.067   7.207
   18CHTO   H21 8020   8.478   3.995   7.254
   18CHTO    O7 8021   8.671   4.072   7.277
   18CHTO    H2 8022   8.715   3.987   7.277
   18CHTO   C12 8023   8.574   4.025   7.061
   18CHTO   H25 8024   8.649   4.097   7.020
   18CHTO    N3 8025   8.635   3.891   7.062
   18CHTO   H12 8026   8.679   3.866   6.967
   18CHTO   H13 8027   8.563   3.816   7.091
   18CHTO   C15 8028   8.445   4.032   6.977
   18CHTO   H28 8029   8.371   3.959   7.011
   18CHTO   O10 8030   8.472   4.011   6.837
   18CHTO    H4 8031   8.502   3.923   6.820
   18CHTO    O5 8032   8.390   4.165   6.983
   18CHTO   C10 8033   8.356   4.200   7.118
   18CHTO   H23 8034   8.286   4.126   7.157
   18CHTO   C17 8035   8.284   4.336   7.114
   18CHTO   O12 8036   8.170   4.326   7.028
   18CHTO    H6 8037   8.125   4.410   7.021
   19CHTO  H203 8038   9.795   3.360  10.047
   19CHTO   O82 8039   9.845   3.309  10.109
   19CHTO  C123 8040   9.914   3.203  10.044
   19CHTO  H227 8041   9.983   3.246   9.969
   19CHTO   O77 8042   9.987   3.132  10.146
   19CHTO  C118 8043  10.069   3.029  10.091
   19CHTO  H222 8044  10.141   3.072  10.017
   19CHTO  C125 8045  10.150   2.960  10.204
   19CHTO   O84 8046  10.231   3.058  10.268
   19CHTO  H205 8047  10.278   3.021  10.342
   19CHTO  C114 8048   9.983   2.923  10.021
   19CHTO  H218 8049   9.919   2.875  10.097
   19CHTO  C116 8050   9.893   2.989   9.913
   19CHTO  H220 8051   9.954   3.027   9.829
   19CHTO   O79 8052   9.799   2.894   9.861
   19CHTO  H201 8053   9.742   2.934   9.796
   19CHTO  C120 8054   9.814   3.105   9.979
   19CHTO  H224 8055   9.747   3.060  10.056
   19CHTO   N21 8056   9.731   3.168   9.877
   19CHTO  H211 8057   9.791   3.230   9.813
   19CHTO  H212 8058   9.652   3.226   9.923
   19CHTO   O75 8059  10.076   2.830   9.967
   19CHTO  C112 8060  10.015   2.710   9.913
   19CHTO  H216 8061   9.957   2.734   9.823
   19CHTO   O73 8062   9.936   2.649  10.016
   19CHTO  C113 8063   9.880   2.525   9.973
   19CHTO  H217 8064   9.821   2.542   9.881
   19CHTO  C124 8065   9.784   2.475  10.081
   19CHTO   O83 8066   9.692   2.580  10.118
   19CHTO  H204 8067   9.636   2.550  10.189
   19CHTO  C109 8068   9.991   2.420   9.943
   19CHTO  H213 8069  10.050   2.409  10.037
   19CHTO  C110 8070  10.078   2.480   9.831
   19CHTO  H214 8071  10.018   2.492   9.740
   19CHTO   O78 8072  10.189   2.395   9.803
   19CHTO  H200 8073  10.244   2.432   9.736
   19CHTO  C111 8074  10.132   2.615   9.879
   19CHTO  H215 8075  10.195   2.600   9.968
   19CHTO   N19 8076  10.216   2.679   9.776
   19CHTO  H207 8077  10.261   2.768   9.817
   19CHTO  H208 8078  10.157   2.704   9.689
   19CHTO   O74 8079   9.935   2.292   9.908
   19CHTO  C115 8080  10.028   2.182   9.921
   19CHTO  H219 8081  10.130   2.217   9.931
   19CHTO   O76 8082  10.002   2.105  10.040
   19CHTO  C122 8083   9.863   2.069  10.051
   19CHTO  H226 8084   9.808   2.158  10.079
   19CHTO  C126 8085   9.845   1.967  10.167
   19CHTO   O85 8086   9.908   1.841  10.142
   19CHTO  H206 8087  10.000   1.851  10.123
   19CHTO  C121 8088   9.808   2.013   9.916
   19CHTO  H225 8089   9.746   1.923   9.935
   19CHTO   O81 8090   9.726   2.115   9.855
   19CHTO  H202 8091   9.652   2.137   9.909
   19CHTO  C119 8092   9.926   1.976   9.824
   19CHTO  H223 8093   9.986   1.908   9.884
   19CHTO  C117 8094  10.019   2.095   9.794
   19CHTO  H221 8095   9.989   2.159   9.710
   19CHTO   N20 8096  10.154   2.048   9.760
   19CHTO  H209 8097  10.150   1.981   9.675
   19CHTO  H210 8098  10.201   1.998   9.843
   19CHTO   O80 8099   9.897   1.895   9.709
   19CHTO  C103 8100   9.782   1.928   9.627
   19CHTO  H190 8101   9.691   1.931   9.688
   19CHTO  C101 8102   9.788   2.060   9.544
   19CHTO  H188 8103   9.881   2.065   9.486
   19CHTO   O68 8104   9.779   2.176   9.630
   19CHTO  H168 8105   9.798   2.257   9.582
   19CHTO   C99 8106   9.668   2.062   9.445
   19CHTO  H186 8107   9.572   2.060   9.501
   19CHTO   N17 8108   9.667   2.180   9.357
   19CHTO  H174 8109   9.763   2.190   9.309
   19CHTO  H175 8110   9.642   2.270   9.411
   19CHTO   C97 8111   9.667   1.937   9.356
   19CHTO  H184 8112   9.762   1.935   9.299
   19CHTO   O64 8113   9.655   1.823   9.442
   19CHTO  C104 8114   9.768   1.809   9.528
   19CHTO  H191 8115   9.859   1.801   9.469
   19CHTO  C108 8116   9.756   1.679   9.607
   19CHTO   O71 8117   9.736   1.571   9.514
   19CHTO  H171 8118   9.724   1.490   9.562
   19CHTO   O62 8119   9.555   1.943   9.267
   19CHTO   C91 8120   9.570   1.865   9.147
   19CHTO  H178 8121   9.658   1.904   9.093
   19CHTO   C92 8122   9.449   1.892   9.058
   19CHTO  H179 8123   9.437   2.001   9.042
   19CHTO   O66 8124   9.472   1.834   8.930
   19CHTO  H166 8125   9.402   1.854   8.869
   19CHTO   C93 8126   9.320   1.832   9.119
   19CHTO  H180 8127   9.245   1.822   9.038
   19CHTO   N16 8128   9.261   1.919   9.222
   19CHTO  H172 8129   9.328   1.928   9.306
   19CHTO  H173 8130   9.166   1.878   9.253
   19CHTO   C94 8131   9.351   1.690   9.177
   19CHTO  H181 8132   9.365   1.693   9.284
   19CHTO   O61 8133   9.471   1.641   9.115
   19CHTO   C95 8134   9.585   1.711   9.165
   19CHTO  H182 8135   9.599   1.687   9.270
   19CHTO  C106 8136   9.711   1.659   9.090
   19CHTO   O69 8137   9.720   1.519   9.117
   19CHTO  H169 8138   9.800   1.483   9.078
   19CHTO   O63 8139   9.238   1.608   9.139
   19CHTO   C96 8140   9.238   1.479   9.201
   19CHTO  H183 8141   9.253   1.492   9.309
   19CHTO   C98 8142   9.348   1.384   9.149
   19CHTO  H185 8143   9.449   1.423   9.170
   19CHTO   O67 8144   9.336   1.261   9.221
   19CHTO  H167 8145   9.407   1.204   9.196
   19CHTO  C102 8146   9.329   1.357   8.996
   19CHTO  H189 8147   9.381   1.262   8.975
   19CHTO   N18 8148   9.391   1.459   8.910
   19CHTO  H176 8149   9.497   1.468   8.933
   19CHTO  H177 8150   9.344   1.555   8.920
   19CHTO  C105 8151   9.180   1.341   8.964
   19CHTO  H192 8152   9.141   1.435   8.923
   19CHTO   O65 8153   9.106   1.307   9.082
   19CHTO  C100 8154   9.100   1.415   9.177
   19CHTO  H187 8155   9.033   1.492   9.135
   19CHTO  C107 8156   9.037   1.363   9.308
   19CHTO   O70 8157   9.129   1.277   9.373
   19CHTO  H170 8158   9.097   1.249   9.458
   19CHTO   O57 8159   9.179   1.236   8.865
   19CHTO   C85 8160   9.049   1.189   8.826
   19CHTO  H157 8161   9.000   1.140   8.913
   19CHTO   C83 8162   9.073   1.079   8.721
   19CHTO  H155 8163   9.141   1.001   8.760
   19CHTO   O56 8164   9.138   1.139   8.607
   19CHTO  H135 8165   9.221   1.178   8.632
   19CHTO   C81 8166   8.941   1.015   8.679
   19CHTO  H153 8167   8.905   0.950   8.761
   19CHTO   N14 8168   8.960   0.930   8.560
   19CHTO  H141 8169   9.029   0.851   8.584
   19CHTO  H142 8170   9.001   0.989   8.478
   19CHTO   C79 8171   8.834   1.123   8.650
   19CHTO  H151 8172   8.766   1.125   8.737
   19CHTO   O52 8173   8.896   1.253   8.637
   19CHTO   C86 8174   8.959   1.297   8.761
   19CHTO  H158 8175   9.019   1.384   8.730
   19CHTO   C90 8176   8.854   1.350   8.860
   19CHTO   O60 8177   8.755   1.423   8.786
   19CHTO  H138 8178   8.689   1.455   8.846
   19CHTO   O50 8179   8.760   1.090   8.532
   19CHTO   C73 8180   8.657   1.185   8.496
   19CHTO  H145 8181   8.698   1.287   8.490
   19CHTO   C74 8182   8.538   1.183   8.594
   19CHTO  H146 8183   8.571   1.217   8.694
   19CHTO   O54 8184   8.438   1.275   8.548
   19CHTO  H133 8185   8.366   1.274   8.609
   19CHTO   C75 8186   8.482   1.039   8.598
   19CHTO  H147 8187   8.562   0.970   8.631
   19CHTO   N13 8188   8.368   1.031   8.691
   19CHTO  H139 8189   8.400   1.057   8.790
   19CHTO  H140 8190   8.330   0.929   8.692
   19CHTO   C76 8191   8.438   1.002   8.453
   19CHTO  H148 8192   8.357   1.071   8.425
   19CHTO   O49 8193   8.549   1.012   8.361
   19CHTO   C77 8194   8.606   1.142   8.356
   19CHTO  H149 8195   8.533   1.215   8.321
   19CHTO   C88 8196   8.722   1.144   8.255
   19CHTO   O58 8197   8.672   1.109   8.124
   19CHTO  H136 8198   8.740   1.114   8.057
   19CHTO   O51 8199   8.396   0.864   8.455
   19CHTO   C78 8200   8.347   0.818   8.328
   19CHTO  H150 8201   8.405   0.860   8.244
   19CHTO   C80 8202   8.198   0.853   8.309
   19CHTO  H152 8203   8.142   0.816   8.397
   19CHTO   O55 8204   8.184   0.995   8.297
   19CHTO  H134 8205   8.092   1.020   8.292
   19CHTO   C84 8206   8.146   0.786   8.180
   19CHTO  H156 8207   8.197   0.829   8.095
   19CHTO   N15 8208   8.002   0.812   8.166
   19CHTO  H143 8209   7.950   0.769   8.250
   19CHTO  H144 8210   7.966   0.765   8.076
   19CHTO   C87 8211   8.174   0.634   8.186
   19CHTO  H159 8212   8.118   0.591   8.270
   19CHTO   O53 8213   8.315   0.613   8.201
   19CHTO   C82 8214   8.364   0.665   8.325
   19CHTO  H154 8215   8.312   0.618   8.409
   19CHTO   C89 8216   8.515   0.630   8.339
   19CHTO   O59 8217   8.528   0.487   8.331
   19CHTO  H137 8218   8.619   0.464   8.338
   19CHTO   O45 8219   8.128   0.577   8.061
   19CHTO   C67 8220   8.181   0.445   8.040
   19CHTO  H124 8221   8.290   0.449   8.032
   19CHTO   C65 8222   8.144   0.352   8.158
   19CHTO  H122 8223   8.045   0.380   8.194
   19CHTO   O44 8224   8.244   0.371   8.259
   19CHTO  H102 8225   8.224   0.324   8.339
   19CHTO   C63 8226   8.133   0.206   8.108
   19CHTO  H120 8227   8.031   0.188   8.072
   19CHTO   N11 8228   8.153   0.105   8.214
   19CHTO  H108 8229   8.085   0.123   8.295
   19CHTO  H109 8230   8.255   0.109   8.252
   19CHTO   C61 8231   8.232   0.183   7.991
   19CHTO  H118 8232   8.224   0.076   7.963
   19CHTO   O40 8233   8.195   0.259   7.877
   19CHTO   C68 8234   8.130   0.384   7.908
   19CHTO  H125 8235   8.021   0.366   7.916
   19CHTO   C72 8236   8.151   0.482   7.789
   19CHTO   O48 8237   8.078   0.603   7.804
   19CHTO  H105 8238   8.090   0.658   7.728
   19CHTO   O38 8239   8.368   0.215   8.025
   19CHTO   C55 8240   8.459   0.152   7.934
   19CHTO  H112 8241   8.414   0.146   7.834
   19CHTO   C56 8242   8.504   0.012   7.985
   19CHTO  H113 8243   8.556   0.027   8.081
   19CHTO   O42 8244   8.393  -0.075   8.013
   19CHTO  H100 8245   8.422  -0.155   8.054
   19CHTO   C57 8246   8.598  -0.053   7.882
   19CHTO  H114 8247   8.545  -0.069   7.788
   19CHTO   N10 8248   8.649  -0.183   7.931
   19CHTO  H106 8249   8.741  -0.208   7.882
   19CHTO  H107 8250   8.577  -0.261   7.915
   19CHTO   C58 8251   8.716   0.042   7.858
   19CHTO  H115 8252   8.778   0.047   7.950
   19CHTO   O37 8253   8.672   0.173   7.819
   19CHTO   C59 8254   8.589   0.234   7.920
   19CHTO  H116 8255   8.643   0.240   8.015
   19CHTO   C70 8256   8.557   0.375   7.868
   19CHTO   O46 8257   8.678   0.447   7.839
   19CHTO  H103 8258   8.656   0.535   7.812
   19CHTO   O39 8259   8.792  -0.016   7.750
   19CHTO   C60 8260   8.893   0.070   7.696
   19CHTO  H117 8261   8.845   0.159   7.653
   19CHTO   C62 8262   8.998   0.112   7.800
   19CHTO  H119 8263   8.948   0.180   7.872
   19CHTO   O43 8264   9.046  -0.005   7.867
   19CHTO  H101 8265   9.103   0.018   7.940
   19CHTO   C66 8266   9.111   0.189   7.727
   19CHTO  H123 8267   9.069   0.281   7.683
   19CHTO   N12 8268   9.218   0.228   7.819
   19CHTO  H110 8269   9.275   0.142   7.851
   19CHTO  H111 8270   9.176   0.281   7.903
   19CHTO   C69 8271   9.169   0.100   7.615
   19CHTO  H126 8272   9.209   0.007   7.659
   19CHTO   O41 8273   9.066   0.074   7.520
   19CHTO   C64 8274   8.961  -0.005   7.579
   19CHTO  H121 8275   9.002  -0.101   7.618
   19CHTO   C71 8276   8.856  -0.039   7.471
   19CHTO   O47 8277   8.925  -0.103   7.362
   19CHTO  H104 8278   8.864  -0.126   7.293
   19CHTO   O34 8279   9.277   0.178   7.560
   19CHTO   C49 8280   9.377   0.101   7.488
   19CHTO   H91 8281   9.418   0.026   7.556
   19CHTO   C47 8282   9.484   0.203   7.447
   19CHTO   H89 8283   9.561   0.148   7.389
   19CHTO   O33 8284   9.547   0.266   7.561
   19CHTO   H70 8285   9.591   0.200   7.613
   19CHTO   C45 8286   9.417   0.313   7.361
   19CHTO   H87 8287   9.381   0.396   7.424
   19CHTO    N8 8288   9.516   0.365   7.266
   19CHTO   H75 8289   9.605   0.396   7.321
   19CHTO   H76 8290   9.477   0.450   7.212
   19CHTO   C43 8291   9.294   0.256   7.284
   19CHTO   H85 8292   9.208   0.261   7.350
   19CHTO   O29 8293   9.326   0.122   7.245
   19CHTO   C50 8294   9.325   0.034   7.359
   19CHTO   H92 8295   9.222  -0.002   7.376
   19CHTO   C54 8296   9.405  -0.094   7.327
   19CHTO   O36 8297   9.345  -0.159   7.213
   19CHTO   H72 8298   9.392  -0.239   7.193
   19CHTO   O27 8299   9.269   0.338   7.169
   19CHTO   C37 8300   9.168   0.286   7.080
   19CHTO   H79 8301   9.196   0.186   7.042
   19CHTO   C38 8302   9.031   0.272   7.150
   19CHTO   H80 8303   9.009   0.366   7.205
   19CHTO   O31 8304   9.035   0.162   7.240
   19CHTO   H68 8305   8.953   0.151   7.286
   19CHTO   C39 8306   8.919   0.242   7.047
   19CHTO   H81 8307   8.940   0.144   7.002
   19CHTO    N7 8308   8.788   0.238   7.112
   19CHTO   H73 8309   8.713   0.203   7.043
   19CHTO   H74 8310   8.761   0.335   7.151
   19CHTO   C40 8311   8.918   0.346   6.932
   19CHTO   H82 8312   8.896   0.447   6.973
   19CHTO   O26 8313   9.047   0.341   6.870
   19CHTO   C41 8314   9.153   0.382   6.961
   19CHTO   H83 8315   9.131   0.484   6.997
   19CHTO   C52 8316   9.282   0.387   6.877
   19CHTO   O35 8317   9.267   0.472   6.761
   19CHTO   H71 8318   9.350   0.483   6.717
   19CHTO   O28 8319   8.817   0.311   6.837
   19CHTO   C42 8320   8.800   0.403   6.727
   19CHTO   H84 8321   8.726   0.353   6.661
   19CHTO   C44 8322   8.924   0.427   6.639
   19CHTO   H86 8323   8.998   0.486   6.696
   19CHTO   O32 8324   8.983   0.302   6.600
   19CHTO   H69 8325   9.064   0.317   6.552
   19CHTO   C48 8326   8.881   0.510   6.516
   19CHTO   H90 8327   8.805   0.455   6.458
   19CHTO    N9 8328   8.997   0.533   6.425
   19CHTO   H77 8329   9.067   0.600   6.470
   19CHTO   H78 8330   8.963   0.571   6.330
   19CHTO   C51 8331   8.821   0.644   6.567
   19CHTO   H93 8332   8.898   0.697   6.623
   19CHTO   O30 8333   8.707   0.613   6.646
   19CHTO   C46 8334   8.741   0.540   6.765
   19CHTO   H88 8335   8.813   0.596   6.826
   19CHTO   C53 8336   8.608   0.522   6.843
   19CHTO   O72 8337   8.632   0.454   6.967
   19CHTO  H199 8338   8.551   0.442   7.015
   19CHTO   O22 8339   8.778   0.720   6.452
   19CHTO   C31 8340   8.728   0.854   6.479
   19CHTO   H59 8341   8.696   0.894   6.381
   19CHTO   C29 8342   8.607   0.863   6.573
   19CHTO   H57 8343   8.635   0.832   6.675
   19CHTO   O21 8344   8.502   0.775   6.531
   19CHTO   H37 8345   8.474   0.799   6.443
   19CHTO   C27 8346   8.558   1.009   6.576
   19CHTO   H55 8347   8.524   1.037   6.474
   19CHTO    N5 8348   8.445   1.023   6.669
   19CHTO   H43 8349   8.472   0.995   6.770
   19CHTO   H44 8350   8.359   0.965   6.637
   19CHTO   C25 8351   8.674   1.100   6.621
   19CHTO   H53 8352   8.702   1.071   6.723
   19CHTO   O17 8353   8.787   1.085   6.533
   19CHTO   C32 8354   8.837   0.951   6.531
   19CHTO   H60 8355   8.867   0.920   6.632
   19CHTO   C36 8356   8.960   0.950   6.439
   19CHTO   O25 8357   9.062   1.034   6.495
   19CHTO   H40 8358   9.140   1.030   6.441
   19CHTO   O15 8359   8.625   1.236   6.620
   19CHTO   C19 8360   8.719   1.333   6.673
   19CHTO   H47 8361   8.665   1.429   6.660
   19CHTO   C20 8362   8.751   1.318   6.822
   19CHTO   H48 8363   8.807   1.226   6.843
   19CHTO   O19 8364   8.627   1.316   6.895
   19CHTO   H35 8365   8.645   1.308   6.989
   19CHTO   C21 8366   8.836   1.439   6.867
   19CHTO   H49 8367   8.777   1.531   6.853
   19CHTO    N4 8368   8.871   1.429   7.009
   19CHTO   H41 8369   8.926   1.517   7.039
   19CHTO   H42 8370   8.934   1.341   7.025
   19CHTO   C22 8371   8.961   1.445   6.779
   19CHTO   H50 8372   9.019   1.354   6.794
   19CHTO   O14 8373   8.925   1.460   6.641
   19CHTO   C23 8374   8.850   1.348   6.592
   19CHTO   H51 8375   8.915   1.258   6.603
   19CHTO   C34 8376   8.821   1.372   6.444
   19CHTO   O23 8377   8.945   1.383   6.375
   19CHTO   H38 8378   8.931   1.406   6.282
   19CHTO   O16 8379   9.035   1.560   6.819
   19CHTO   C24 8380   9.169   1.559   6.767
   19CHTO   H52 8381   9.174   1.511   6.668
   19CHTO   C26 8382   9.264   1.488   6.865
   19CHTO   H54 8383   9.250   1.530   6.966
   19CHTO   O20 8384   9.240   1.346   6.869
   19CHTO   H36 8385   9.297   1.306   6.935
   19CHTO   C30 8386   9.409   1.513   6.822
   19CHTO   H58 8387   9.430   1.467   6.725
   19CHTO    N6 8388   9.502   1.452   6.920
   19CHTO   H45 8389   9.496   1.506   7.013
   19CHTO   H46 8390   9.602   1.460   6.882
   19CHTO   C33 8391   9.433   1.665   6.811
   19CHTO   H61 8392   9.412   1.714   6.907
   19CHTO   O18 8393   9.347   1.718   6.711
   19CHTO   C28 8394   9.208   1.707   6.747
   19CHTO   H56 8395   9.188   1.762   6.840
   19CHTO   C35 8396   9.126   1.769   6.632
   19CHTO   O24 8397   9.152   1.909   6.618
   19CHTO   H39 8398   9.099   1.943   6.548
   19CHTO    O9 8399   9.570   1.691   6.783
   19CHTO   C13 8400   9.596   1.829   6.747
   19CHTO   H26 8401   9.527   1.896   6.800
   19CHTO   C11 8402   9.582   1.841   6.592
   19CHTO   H24 8403   9.477   1.857   6.564
   19CHTO    O8 8404   9.627   1.715   6.538
   19CHTO    H3 8405   9.618   1.713   6.445
   19CHTO    C9 8406   9.668   1.958   6.542
   19CHTO   H22 8407   9.633   2.045   6.599
   19CHTO    N2 8408   9.645   1.988   6.400
   19CHTO   H10 8409   9.539   2.002   6.381
   19CHTO   H11 8410   9.685   1.910   6.335
   19CHTO    C7 8411   9.817   1.930   6.573
   19CHTO   H20 8412   9.857   2.028   6.601
   19CHTO    O4 8413   9.833   1.837   6.680
   19CHTO   C14 8414   9.742   1.863   6.788
   19CHTO   H27 8415   9.748   1.970   6.817
   19CHTO   C18 8416   9.786   1.781   6.911
   19CHTO   O13 8417   9.690   1.799   7.016
   19CHTO    H7 8418   9.715   1.750   7.094
   19CHTO    O2 8419   9.886   1.880   6.457
   19CHTO    C1 8420  10.025   1.847   6.480
   19CHTO   H14 8421  10.033   1.768   6.557
   19CHTO    C2 8422  10.111   1.970   6.522
   19CHTO   H15 8423  10.093   2.053   6.452
   19CHTO    O6 8424  10.081   2.010   6.657
   19CHTO    H1 8425  10.133   2.085   6.681
   19CHTO    C3 8426  10.262   1.930   6.523
   19CHTO   H16 8427  10.280   1.853   6.601
   19CHTO    N1 8428  10.344   2.047   6.555
   19CHTO    H8 8429  10.331   2.123   6.480
   19CHTO    H9 8430  10.449   2.020   6.560
   19CHTO    C4 8431  10.301   1.864   6.388
   19CHTO   H17 8432  10.298   1.941   6.309
   19CHTO    O1 8433  10.215   1.754   6.358
   19CHTO    C5 8434  10.079   1.792   6.346
   19CHTO   H18 8435  10.067   1.868   6.269
   19CHTO   C16 8436  10.001   1.665   6.303
   19CHTO   O11 8437  10.069   1.609   6.191
   19CHTO    H5 8438  10.022   1.533   6.159
   19CHTO    O3 8439  10.435   1.814   6.403
   19CHTO    C6 8440  10.485   1.750   6.284
   19CHTO   H19 8441  10.406   1.698   6.227
   19CHTO    C8 8442  10.558   1.851   6.193
   19CHTO   H21 8443  10.635   1.903   6.252
   19CHTO    O7 8444  10.464   1.945   6.140
   19CHTO    H2 8445  10.506   2.008   6.082
   19CHTO   C12 8446  10.624   1.775   6.076
   19CHTO   H25 8447  10.542   1.730   6.016
   19CHTO    N3 8448  10.695   1.873   5.992
   19CHTO   H12 8449  10.722   1.830   5.896
   19CHTO   H13 8450  10.782   1.911   6.042
   19CHTO   C15 8451  10.716   1.663   6.129
   19CHTO   H28 8452  10.801   1.704   6.184
   19CHTO   O10 8453  10.763   1.579   6.022
   19CHTO    H4 8454  10.821   1.627   5.963
   19CHTO    O5 8455  10.641   1.574   6.213
   19CHTO   C10 8456  10.587   1.643   6.327
   19CHTO   H23 8457  10.669   1.689   6.381
   19CHTO   C17 8458  10.522   1.538   6.419
   19CHTO   O12 8459  10.620   1.440   6.454
   19CHTO    H6 8460  10.581   1.371   6.508
   20GLOH   H03 8461   0.725   3.714   8.224
   20GLOH    O1 8462   0.774   3.667   8.153
   20GLOH    C1 8463   0.790   3.757   8.043
   20GLOH   H02 8464   0.694   3.805   8.016
   20GLOH   H08 8465   0.823   3.696   7.959
   20GLOH    C2 8466   0.895   3.863   8.076
   20GLOH   H04 8467   0.855   3.935   8.148
   20GLOH    O2 8468   1.010   3.798   8.131
   20GLOH   H05 8469   0.975   3.721   8.179
   20GLOH    C3 8470   0.943   3.939   7.952
   20GLOH   H06 8471   1.011   4.019   7.983
   20GLOH   H07 8472   0.859   3.984   7.899
   20GLOH    O3 8473   1.009   3.851   7.860
   20GLOH   H01 8474   1.068   3.797   7.916
   21GLOH   H03 8475   1.315   4.828   3.546
   21GLOH    O1 8476   1.285   4.804   3.456
   21GLOH    C1 8477   1.260   4.925   3.384
   21GLOH   H02 8478   1.196   4.994   3.441
   21GLOH   H08 8479   1.206   4.895   3.294
   21GLOH    C2 8480   1.392   4.992   3.346
   21GLOH   H04 8481   1.438   5.038   3.435
   21GLOH    O2 8482   1.480   4.894   3.290
   21GLOH   H05 8483   1.457   4.811   3.336
   21GLOH    C3 8484   1.374   5.100   3.239
   21GLOH   H06 8485   1.470   5.152   3.223
   21GLOH   H07 8486   1.301   5.175   3.271
   21GLOH    O3 8487   1.327   5.044   3.116
   21GLOH   H01 8488   1.382   4.965   3.103
   22GLOH   H03 8489   1.986   9.559   0.715
   22GLOH    O1 8490   2.080   9.563   0.690
   22GLOH    C1 8491   2.086   9.559   0.546
   22GLOH   H02 8492   2.025   9.476   0.506
   22GLOH   H08 8493   2.190   9.540   0.521
   22GLOH    C2 8494   2.041   9.693   0.488
   22GLOH   H04 8495   1.932   9.704   0.498
   22GLOH    O2 8496   2.108   9.798   0.558
   22GLOH   H05 8497   2.119   9.765   0.649
   22GLOH    C3 8498   2.080   9.708   0.340
   22GLOH   H06 8499   2.037   9.802   0.301
   22GLOH   H07 8500   2.039   9.626   0.281
   22GLOH    O3 8501   2.222   9.708   0.324
   22GLOH   H01 8502   2.255   9.767   0.394
   23GLOH   H03 8503   1.646   6.028   0.398
   23GLOH    O1 8504   1.613   5.946   0.357
   23GLOH    C1 8505   1.530   5.984   0.246
   23GLOH   H02 8506   1.456   6.060   0.275
   23GLOH   H08 8507   1.477   5.893   0.216
   23GLOH    C2 8508   1.617   6.034   0.130
   23GLOH   H04 8509   1.656   6.134   0.154
   23GLOH    O2 8510   1.724   5.942   0.109
   23GLOH   H05 8511   1.744   5.907   0.198
   23GLOH    C3 8512   1.539   6.041  -0.002
   23GLOH   H06 8513   1.603   6.087  -0.079
   23GLOH   H07 8514   1.450   6.103   0.009
   23GLOH    O3 8515   1.497   5.911  -0.044
   23GLOH   H01 8516   1.575   5.854  -0.030
   24GLOH   H03 8517   7.205   1.589   9.703
   24GLOH    O1 8518   7.118   1.571   9.662
   24GLOH    C1 8519   7.058   1.698   9.632
   24GLOH   H02 8520   7.060   1.766   9.719
   24GLOH   H08 8521   6.954   1.677   9.607
   24GLOH    C2 8522   7.128   1.762   9.511
   24GLOH   H04 8523   7.227   1.800   9.541
   24GLOH    O2 8524   7.141   1.664   9.408
   24GLOH   H05 8525   7.153   1.580   9.455
   24GLOH    C3 8526   7.047   1.878   9.452
   24GLOH   H06 8527   7.106   1.926   9.372
   24GLOH   H07 8528   7.025   1.953   9.528
   24GLOH    O3 8529   6.922   1.831   9.399
   24GLOH   H01 8530   6.945   1.751   9.350
   25GLOH   H03 8531   2.456   2.265   6.905
   25GLOH    O1 8532   2.501   2.200   6.848
   25GLOH    C1 8533   2.401   2.136   6.767
   25GLOH   H02 8534   2.317   2.099   6.828
   25GLOH   H08 8535   2.451   2.050   6.722
   25GLOH    C2 8536   2.352   2.231   6.658
   25GLOH   H04 8537   2.287   2.308   6.703
   25GLOH    O2 8538   2.465   2.292   6.595
   25GLOH   H05 8539   2.532   2.299   6.666
   25GLOH    C3 8540   2.274   2.159   6.548
   25GLOH   H06 8541   2.233   2.234   6.478
   25GLOH   H07 8542   2.191   2.103   6.590
   25GLOH    O3 8543   2.358   2.066   6.478
   25GLOH   H01 8544   2.440   2.115   6.462
   26GLOH   H03 8545   7.995   0.619   2.242
   26GLOH    O1 8546   7.988   0.667   2.327
   26GLOH    C1 8547   8.075   0.602   2.420
   26GLOH   H02 8548   8.060   0.493   2.422
   26GLOH   H08 8549   8.049   0.642   2.518
   26GLOH    C2 8550   8.221   0.635   2.388
   26GLOH   H04 8551   8.253   0.580   2.298
   26GLOH    O2 8552   8.233   0.777   2.367
   26GLOH   H05 8553   8.148   0.803   2.328
   26GLOH    C3 8554   8.316   0.601   2.503
   26GLOH   H06 8555   8.420   0.618   2.471
   26GLOH   H07 8556   8.306   0.496   2.531
   26GLOH    O3 8557   8.287   0.680   2.619
   26GLOH   H01 8558   8.275   0.770   2.585
   27GLOH   H03 8559   2.585   4.916   8.904
   27GLOH    O1 8560   2.654   4.855   8.933
   27GLOH    C1 8561   2.682   4.765   8.825
   27GLOH   H02 8562   2.589   4.720   8.785
   27GLOH   H08 8563   2.742   4.684   8.868
   27GLOH    C2 8564   2.760   4.836   8.715
   27GLOH   H04 8565   2.693   4.905   8.660
   27GLOH    O2 8566   2.868   4.909   8.775
   27GLOH   H05 8567   2.834   4.937   8.862
   27GLOH    C3 8568   2.823   4.739   8.615
   27GLOH   H06 8569   2.870   4.796   8.533
   27GLOH   H07 8570   2.748   4.674   8.572
   27GLOH    O3 8571   2.921   4.656   8.679
   27GLOH   H01 8572   2.973   4.717   8.734
   28GLOH   H03 8573   1.694   2.085   1.063
   28GLOH    O1 8574   1.776   2.135   1.080
   28GLOH    C1 8575   1.871   2.098   0.979
   28GLOH   H02 8576   1.880   1.988   0.970
   28GLOH   H08 8577   1.967   2.137   1.013
   28GLOH    C2 8578   1.834   2.161   0.844
   28GLOH   H04 8579   1.747   2.108   0.802
   28GLOH    O2 8580   1.804   2.299   0.865
   28GLOH   H05 8581   1.765   2.303   0.954
   28GLOH    C3 8582   1.949   2.156   0.743
   28GLOH   H06 8583   1.913   2.193   0.646
   28GLOH   H07 8584   1.983   2.053   0.729
   28GLOH    O3 8585   2.060   2.233   0.788
   28GLOH   H01 8586   2.021   2.316   0.821
   29GLOH   H03 8587   2.290   2.678   3.286
   29GLOH    O1 8588   2.302   2.590   3.245
   29GLOH    C1 8589   2.417   2.529   3.304
   29GLOH   H02 8590   2.503   2.598   3.304
   29GLOH   H08 8591   2.441   2.444   3.241
   29GLOH    C2 8592   2.385   2.483   3.447
   29GLOH   H04 8593   2.378   2.570   3.514
   29GLOH    O2 8594   2.261   2.411   3.445
   29GLOH   H05 8595   2.208   2.454   3.375
   29GLOH    C3 8596   2.490   2.386   3.502
   29GLOH   H06 8597   2.467   2.363   3.607
   29GLOH   H07 8598   2.589   2.430   3.498
   29GLOH    O3 8599   2.493   2.265   3.425
   29GLOH   H01 8600   2.400   2.241   3.412
   30GLOH   H03 8601   9.613   4.980   2.891
   30GLOH    O1 8602   9.631   4.912   2.958
   30GLOH    C1 8603   9.527   4.813   2.950
   30GLOH   H02 8604   9.427   4.860   2.951
   30GLOH   H08 8605   9.537   4.752   3.040
   30GLOH    C2 8606   9.546   4.727   2.825
   30GLOH   H04 8607   9.518   4.785   2.735
   30GLOH    O2 8608   9.682   4.686   2.818
   30GLOH   H05 8609   9.733   4.759   2.856
   30GLOH    C3 8610   9.462   4.599   2.829
   30GLOH   H06 8611   9.471   4.546   2.733
   30GLOH   H07 8612   9.356   4.623   2.844
   30GLOH    O3 8613   9.502   4.514   2.937
   30GLOH   H01 8614   9.599   4.514   2.933
   31GLOH   H03 8615   8.067   2.272   5.484
   31GLOH    O1 8616   8.003   2.298   5.552
   31GLOH    C1 8617   8.076   2.328   5.672
   31GLOH   H02 8618   8.146   2.247   5.697
   31GLOH   H08 8619   8.001   2.335   5.751
   31GLOH    C2 8620   8.150   2.462   5.657
   31GLOH   H04 8621   8.236   2.449   5.590
   31GLOH    O2 8622   8.059   2.559   5.604
   31GLOH   H05 8623   7.999   2.508   5.546
   31GLOH    C3 8624   8.198   2.517   5.791
   31GLOH   H06 8625   8.259   2.607   5.773
   31GLOH   H07 8626   8.262   2.443   5.842
   31GLOH    O3 8627   8.088   2.546   5.878
   31GLOH   H01 8628   8.025   2.593   5.821
   32GLOH   H03 8629   6.356   1.258   1.722
   32GLOH    O1 8630   6.327   1.229   1.633
   32GLOH    C1 8631   6.208   1.151   1.649
   32GLOH   H02 8632   6.221   1.073   1.726
   32GLOH   H08 8633   6.192   1.102   1.553
   32GLOH    C2 8634   6.089   1.241   1.683
   32GLOH   H04 8635   6.098   1.276   1.787
   32GLOH    O2 8636   6.089   1.352   1.592
   32GLOH   H05 8637   6.182   1.369   1.573
   32GLOH    C3 8638   5.955   1.170   1.665
   32GLOH   H06 8639   5.874   1.236   1.700
   32GLOH   H07 8640   5.952   1.078   1.725
   32GLOH    O3 8641   5.934   1.133   1.528
   32GLOH   H01 8642   5.959   1.212   1.478
   33GLOH   H03 8643   6.711   4.332   5.804
   33GLOH    O1 8644   6.774   4.405   5.814
   33GLOH    C1 8645   6.743   4.473   5.936
   33GLOH   H02 8646   6.636   4.497   5.943
   33GLOH   H08 8647   6.800   4.567   5.934
   33GLOH    C2 8648   6.788   4.389   6.056
   33GLOH   H04 8649   6.720   4.303   6.069
   33GLOH    O2 8650   6.921   4.342   6.033
   33GLOH   H05 8651   6.927   4.330   5.936
   33GLOH    C3 8652   6.792   4.469   6.186
   33GLOH   H06 8653   6.815   4.401   6.270
   33GLOH   H07 8654   6.695   4.515   6.206
   33GLOH    O3 8655   6.889   4.574   6.179
   33GLOH   H01 8656   6.968   4.532   6.140
   34GLOH   H03 8657   3.514   6.982   0.012
   34GLOH    O1 8658   3.575   7.025   0.075
   34GLOH    C1 8659   3.665   6.925   0.124
   34GLOH   H02 8660   3.611   6.836   0.159
   34GLOH   H08 8661   3.716   6.970   0.210
   34GLOH    C2 8662   3.767   6.888   0.016
   34GLOH   H04 8663   3.719   6.827  -0.061
   34GLOH    O2 8664   3.820   7.008  -0.041
   34GLOH   H05 8665   3.747   7.072  -0.037
   34GLOH    C3 8666   3.887   6.811   0.073
   34GLOH   H06 8667   3.951   6.778  -0.011
   34GLOH   H07 8668   3.853   6.721   0.126
   34GLOH    O3 8669   3.961   6.891   0.165
   34GLOH   H01 8670   3.969   6.977   0.122
   35GLOH   H03 8671   1.974   5.375   3.322
   35GLOH    O1 8672   1.880   5.384   3.299
   35GLOH    C1 8673   1.828   5.498   3.371
   35GLOH   H02 8674   1.855   5.494   3.477
   35GLOH   H08 8675   1.720   5.492   3.361
   35GLOH    C2 8676   1.879   5.628   3.307
   35GLOH   H04 8677   1.986   5.642   3.332
   35GLOH    O2 8678   1.862   5.620   3.165
   35GLOH   H05 8679   1.873   5.526   3.144
   35GLOH    C3 8680   1.800   5.750   3.354
   35GLOH   H06 8681   1.848   5.841   3.313
   35GLOH   H07 8682   1.802   5.758   3.463
   35GLOH    O3 8683   1.664   5.742   3.313
   35GLOH   H01 8684   1.667   5.714   3.220
   36GLOH   H03 8685   4.317   5.223   4.413
   36GLOH    O1 8686   4.358   5.292   4.468
   36GLOH    C1 8687   4.391   5.233   4.595
   36GLOH   H02 8688   4.306   5.178   4.637
   36GLOH   H08 8689   4.415   5.316   4.661
   36GLOH    C2 8690   4.513   5.141   4.580
   36GLOH   H04 8691   4.484   5.049   4.527
   36GLOH    O2 8692   4.614   5.211   4.505
   36GLOH   H05 8693   4.565   5.268   4.444
   36GLOH    C3 8694   4.576   5.105   4.714
   36GLOH   H06 8695   4.657   5.031   4.698
   36GLOH   H07 8696   4.502   5.059   4.780
   36GLOH    O3 8697   4.627   5.221   4.781
   36GLOH   H01 8698   4.675   5.270   4.711
   37GLOH   H03 8699   1.281   5.507   5.639
   37GLOH    O1 8700   1.316   5.598   5.628
   37GLOH    C1 8701   1.281   5.641   5.496
   37GLOH   H02 8702   1.309   5.566   5.420
   37GLOH   H08 8703   1.340   5.732   5.478
   37GLOH    C2 8704   1.132   5.674   5.488
   37GLOH   H04 8705   1.074   5.580   5.489
   37GLOH    O2 8706   1.097   5.755   5.601
   37GLOH   H05 8707   1.155   5.725   5.672
   37GLOH    C3 8708   1.096   5.754   5.363
   37GLOH   H06 8709   0.986   5.766   5.358
   37GLOH   H07 8710   1.128   5.702   5.273
   37GLOH    O3 8711   1.159   5.882   5.364
   37GLOH   H01 8712   1.146   5.916   5.455
   38GLOH   H03 8713   0.214   3.037   2.250
   38GLOH    O1 8714   0.270   2.975   2.200
   38GLOH    C1 8715   0.302   3.038   2.075
   38GLOH   H02 8716   0.212   3.076   2.025
   38GLOH   H08 8717   0.346   2.959   2.013
   38GLOH    C2 8718   0.405   3.150   2.097
   38GLOH   H04 8719   0.356   3.236   2.144
   38GLOH    O2 8720   0.510   3.100   2.180
   38GLOH   H05 8721   0.467   3.036   2.239
   38GLOH    C3 8722   0.470   3.195   1.966
   38GLOH   H06 8723   0.535   3.282   1.987
   38GLOH   H07 8724   0.394   3.226   1.894
   38GLOH    O3 8725   0.546   3.090   1.907
   38GLOH   H01 8726   0.596   3.051   1.981
   39GLOH   H03 8727   8.125   9.630   2.385
   39GLOH    O1 8728   8.110   9.666   2.296
   39GLOH    C1 8729   7.997   9.597   2.240
   39GLOH   H02 8730   8.007   9.488   2.250
   39GLOH   H08 8731   7.997   9.622   2.134
   39GLOH    C2 8732   7.868   9.647   2.305
   39GLOH   H04 8733   7.860   9.607   2.407
   39GLOH    O2 8734   7.869   9.790   2.308
   39GLOH   H05 8735   7.963   9.814   2.318
   39GLOH    C3 8736   7.743   9.606   2.226
   39GLOH   H06 8737   7.653   9.636   2.283
   39GLOH   H07 8738   7.740   9.498   2.213
   39GLOH    O3 8739   7.742   9.666   2.097
   39GLOH   H01 8740   7.767   9.759   2.113
   40GLOH   H03 8741   9.834   1.315   7.231
   40GLOH    O1 8742   9.823   1.219   7.243
   40GLOH    C1 8743   9.704   1.181   7.172
   40GLOH   H02 8744   9.619   1.246   7.197
   40GLOH   H08 8745   9.681   1.079   7.206
   40GLOH    C2 8746   9.730   1.181   7.021
   40GLOH   H04 8747   9.736   1.285   6.985
   40GLOH    O2 8748   9.854   1.113   6.995
   40GLOH   H05 8749   9.909   1.131   7.073
   40GLOH    C3 8750   9.622   1.107   6.943
   40GLOH   H06 8751   9.641   1.119   6.835
   40GLOH   H07 8752   9.523   1.148   6.964
   40GLOH    O3 8753   9.619   0.968   6.977
   40GLOH   H01 8754   9.713   0.941   6.978
   41GLOH   H03 8755   1.583   0.034   2.496
   41GLOH    O1 8756   1.595   0.129   2.482
   41GLOH    C1 8757   1.511   0.198   2.576
   41GLOH   H02 8758   1.408   0.158   2.575
   41GLOH   H08 8759   1.508   0.302   2.543
   41GLOH    C2 8760   1.570   0.189   2.717
   41GLOH   H04 8761   1.557   0.087   2.756
   41GLOH    O2 8762   1.710   0.221   2.710
   41GLOH   H05 8763   1.738   0.190   2.623
   41GLOH    C3 8764   1.507   0.288   2.814
   41GLOH   H06 8765   1.547   0.271   2.915
   41GLOH   H07 8766   1.399   0.275   2.818
   41GLOH    O3 8767   1.532   0.423   2.773
   41GLOH   H01 8768   1.627   0.424   2.750
   42GLOH   H03 8769   0.183   2.740   7.854
   42GLOH    O1 8770   0.156   2.659   7.807
   42GLOH    C1 8771   0.102   2.699   7.680
   42GLOH   H02 8772   0.027   2.778   7.691
   42GLOH   H08 8773   0.053   2.610   7.640
   42GLOH    C2 8774   0.215   2.743   7.586
   42GLOH   H04 8775   0.253   2.841   7.617
   42GLOH    O2 8776   0.320   2.646   7.591
   42GLOH   H05 8777   0.318   2.612   7.682
   42GLOH    C3 8778   0.170   2.750   7.440
   42GLOH   H06 8779   0.252   2.792   7.379
   42GLOH   H07 8780   0.083   2.817   7.430
   42GLOH    O3 8781   0.132   2.622   7.391
   42GLOH   H01 8782   0.202   2.562   7.422
   43GLOH   H03 8783   5.328   2.945   3.847
   43GLOH    O1 8784   5.398   2.976   3.787
   43GLOH    C1 8785   5.472   2.862   3.744
   43GLOH   H02 8786   5.503   2.799   3.829
   43GLOH   H08 8787   5.562   2.901   3.696
   43GLOH    C2 8788   5.391   2.780   3.644
   43GLOH   H04 8789   5.310   2.726   3.696
   43GLOH    O2 8790   5.335   2.869   3.546
   43GLOH   H05 8791   5.319   2.952   3.594
   43GLOH    C3 8792   5.476   2.679   3.567
   43GLOH   H06 8793   5.411   2.617   3.504
   43GLOH   H07 8794   5.529   2.613   3.636
   43GLOH    O3 8795   5.575   2.745   3.487
   43GLOH   H01 8796   5.527   2.817   3.444
   44GLOH   H03 8797   5.621   4.390   1.824
   44GLOH    O1 8798   5.702   4.439   1.802
   44GLOH    C1 8799   5.759   4.486   1.925
   44GLOH   H02 8800   5.684   4.537   1.988
   44GLOH   H08 8801   5.835   4.559   1.896
   44GLOH    C2 8802   5.824   4.370   2.001
   44GLOH   H04 8803   5.746   4.306   2.044
   44GLOH    O2 8804   5.905   4.295   1.909
   44GLOH   H05 8805   5.860   4.302   1.824
   44GLOH    C3 8806   5.917   4.418   2.112
   44GLOH   H06 8807   5.953   4.330   2.169
   44GLOH   H07 8808   5.864   4.483   2.181
   44GLOH    O3 8809   6.028   4.491   2.059
   44GLOH   H01 8810   6.058   4.438   1.983
   45GLOH   H03 8811   9.008   3.309   0.250
   45GLOH    O1 8812   9.048   3.385   0.204
   45GLOH    C1 8813   9.149   3.334   0.116
   45GLOH   H02 8814   9.217   3.264   0.168
   45GLOH   H08 8815   9.207   3.420   0.084
   45GLOH    C2 8816   9.085   3.266  -0.005
   45GLOH   H04 8817   9.041   3.169   0.025
   45GLOH    O2 8818   8.983   3.352  -0.057
   45GLOH   H05 8819   8.947   3.399   0.020
   45GLOH    C3 8820   9.184   3.243  -0.119
   45GLOH   H06 8821   9.135   3.185  -0.199
   45GLOH   H07 8822   9.270   3.184  -0.084
   45GLOH    O3 8823   9.234   3.366  -0.171
   45GLOH   H01 8824   9.155   3.423  -0.179
   46GLOH   H03 8825   0.976   6.186   3.893
   46GLOH    O1 8826   0.912   6.251   3.858
   46GLOH    C1 8827   0.795   6.179   3.816
   46GLOH   H02 8828   0.822   6.094   3.751
   46GLOH   H08 8829   0.736   6.250   3.757
   46GLOH    C2 8830   0.715   6.132   3.937
   46GLOH   H04 8831   0.767   6.048   3.986
   46GLOH    O2 8832   0.701   6.242   4.029
   46GLOH   H05 8833   0.783   6.293   4.018
   46GLOH    C3 8834   0.573   6.088   3.900
   46GLOH   H06 8835   0.524   6.046   3.990
   46GLOH   H07 8836   0.576   6.010   3.824
   46GLOH    O3 8837   0.497   6.197   3.848
   46GLOH   H01 8838   0.516   6.271   3.908
   47GLOH   H03 8839   8.728   9.751   5.642
   47GLOH    O1 8840   8.701   9.817   5.576
   47GLOH    C1 8841   8.751   9.945   5.619
   47GLOH   H02 8842   8.726   9.965   5.724
   47GLOH   H08 8843   8.701  10.019   5.557
   47GLOH    C2 8844   8.903   9.952   5.597
   47GLOH   H04 8845   8.954   9.890   5.672
   47GLOH    O2 8846   8.933   9.905   5.465
   47GLOH   H05 8847   8.865   9.837   5.447
   47GLOH    C3 8848   8.956  10.095   5.606
   47GLOH   H06 8849   9.066  10.093   5.599
   47GLOH   H07 8850   8.929  10.141   5.701
   47GLOH    O3 8851   8.902  10.177   5.502
   47GLOH   H01 8852   8.908  10.122   5.422
   48GLOH   H03 8853   8.412   9.698   8.937
   48GLOH    O1 8854   8.390   9.779   8.986
   48GLOH    C1 8855   8.493   9.802   9.083
   48GLOH   H02 8856   8.513   9.711   9.142
   48GLOH   H08 8857   8.454   9.879   9.150
   48GLOH    C2 8858   8.620   9.852   9.014
   48GLOH   H04 8859   8.668   9.768   8.960
   48GLOH    O2 8860   8.585   9.956   8.922
   48GLOH   H05 8861   8.496   9.932   8.890
   48GLOH    C3 8862   8.720   9.912   9.112
   48GLOH   H06 8863   8.813   9.937   9.059
   48GLOH   H07 8864   8.745   9.840   9.191
   48GLOH    O3 8865   8.666  10.029   9.175
   48GLOH   H01 8866   8.626  10.079   9.103
   49GLOH   H03 8867   2.566   0.803   8.233
   49GLOH    O1 8868   2.622   0.819   8.156
   49GLOH    C1 8869   2.583   0.727   8.053
   49GLOH   H02 8870   2.578   0.624   8.091
   49GLOH   H08 8871   2.662   0.732   7.977
   49GLOH    C2 8872   2.449   0.769   7.992
   49GLOH   H04 8873   2.368   0.747   8.063
   49GLOH    O2 8874   2.454   0.909   7.963
   49GLOH   H05 8875   2.511   0.947   8.032
   49GLOH    C3 8876   2.420   0.698   7.860
   49GLOH   H06 8877   2.318   0.724   7.826
   49GLOH   H07 8878   2.424   0.589   7.873
   49GLOH    O3 8879   2.516   0.733   7.760
   49GLOH   H01 8880   2.525   0.829   7.768
   50GLOH   H03 8881   6.178   2.451   4.142
   50GLOH    O1 8882   6.192   2.517   4.212
   50GLOH    C1 8883   6.120   2.473   4.328
   50GLOH   H02 8884   6.016   2.446   4.303
   50GLOH   H08 8885   6.118   2.558   4.396
   50GLOH    C2 8886   6.192   2.355   4.393
   50GLOH   H04 8887   6.178   2.264   4.332
   50GLOH    O2 8888   6.331   2.386   4.405
   50GLOH   H05 8889   6.350   2.442   4.328
   50GLOH    C3 8890   6.142   2.327   4.535
   50GLOH   H06 8891   6.190   2.235   4.573
   50GLOH   H07 8892   6.034   2.310   4.535
   50GLOH    O3 8893   6.169   2.437   4.622
   50GLOH   H01 8894   6.261   2.462   4.602
   51GLOH   H03 8895   3.280   7.252   2.539
   51GLOH    O1 8896   3.241   7.335   2.572
   51GLOH    C1 8897   3.159   7.303   2.685
   51GLOH   H02 8898   3.090   7.219   2.662
   51GLOH   H08 8899   3.100   7.392   2.705
   51GLOH    C2 8900   3.247   7.269   2.806
   51GLOH   H04 8901   3.293   7.170   2.792
   51GLOH    O2 8902   3.348   7.370   2.819
   51GLOH   H05 8903   3.367   7.397   2.727
   51GLOH    C3 8904   3.168   7.270   2.937
   51GLOH   H06 8905   3.234   7.236   3.019
   51GLOH   H07 8906   3.083   7.201   2.931
   51GLOH    O3 8907   3.117   7.400   2.966
   51GLOH   H01 8908   3.191   7.460   2.948
   52GLOH   H03 8909   8.310   6.843   6.350
   52GLOH    O1 8910   8.370   6.889   6.412
   52GLOH    C1 8911   8.478   6.799   6.443
   52GLOH   H02 8912   8.441   6.700   6.472
   52GLOH   H08 8913   8.530   6.843   6.528
   52GLOH    C2 8914   8.573   6.789   6.323
   52GLOH   H04 8915   8.526   6.729   6.243
   52GLOH    O2 8916   8.602   6.920   6.275
   52GLOH   H05 8917   8.521   6.972   6.292
   52GLOH    C3 8918   8.707   6.725   6.360
   52GLOH   H06 8919   8.767   6.711   6.269
   52GLOH   H07 8920   8.692   6.627   6.406
   52GLOH    O3 8921   8.778   6.806   6.454
   52GLOH   H01 8922   8.770   6.897   6.420
   53GLOH   H03 8923   9.949   8.603   8.493
   53GLOH    O1 8924   9.881   8.547   8.451
   53GLOH    C1 8925   9.861   8.595   8.317
   53GLOH   H02 8926   9.844   8.704   8.316
   53GLOH   H08 8927   9.770   8.546   8.282
   53GLOH    C2 8928   9.980   8.558   8.228
   53GLOH   H04 8929  10.066   8.620   8.253
   53GLOH    O2 8930  10.011   8.419   8.249
   53GLOH   H05 8931   9.989   8.403   8.342
   53GLOH    C3 8932   9.948   8.573   8.079
   53GLOH   H06 8933  10.040   8.554   8.021
   53GLOH   H07 8934   9.915   8.675   8.057
   53GLOH    O3 8935   9.844   8.484   8.039
   53GLOH   H01 8936   9.867   8.399   8.080
   54GLOH   H03 8937   4.011   0.074   8.848
   54GLOH    O1 8938   4.074   0.027   8.906
   54GLOH    C1 8939   4.094   0.108   9.023
   54GLOH   H02 8940   4.117   0.212   8.996
   54GLOH   H08 8941   4.180   0.065   9.074
   54GLOH    C2 8942   3.970   0.102   9.113
   54GLOH   H04 8943   3.889   0.160   9.069
   54GLOH    O2 8944   3.931  -0.035   9.128
   54GLOH   H05 8945   3.955  -0.077   9.044
   54GLOH    C3 8946   3.998   0.154   9.254
   54GLOH   H06 8947   3.904   0.157   9.311
   54GLOH   H07 8948   4.037   0.256   9.250
   54GLOH    O3 8949   4.095   0.073   9.321
   54GLOH   H01 8950   4.068  -0.018   9.303
   55GLOH   H03 8951   3.311   2.185   5.917
   55GLOH    O1 8952   3.359   2.259   5.958
   55GLOH    C1 8953   3.294   2.289   6.082
   55GLOH   H02 8954   3.185   2.300   6.069
   55GLOH   H08 8955   3.334   2.385   6.115
   55GLOH    C2 8956   3.325   2.181   6.186
   55GLOH   H04 8957   3.270   2.089   6.162
   55GLOH    O2 8958   3.466   2.156   6.185
   55GLOH   H05 8959   3.493   2.170   6.092
   55GLOH    C3 8960   3.290   2.224   6.329
   55GLOH   H06 8961   3.306   2.139   6.397
   55GLOH   H07 8962   3.185   2.254   6.335
   55GLOH    O3 8963   3.370   2.336   6.369
   55GLOH   H01 8964   3.460   2.314   6.341
   56GLOH   H03 8965   0.247   6.878   4.902
   56GLOH    O1 8966   0.197   6.801   4.870
   56GLOH    C1 8967   0.266   6.748   4.757
   56GLOH   H02 8968   0.290   6.826   4.683
   56GLOH   H08 8969   0.198   6.677   4.710
   56GLOH    C2 8970   0.393   6.675   4.802
   56GLOH   H04 8971   0.469   6.748   4.833
   56GLOH    O2 8972   0.361   6.589   4.911
   56GLOH   H05 8973   0.289   6.634   4.959
   56GLOH    C3 8974   0.452   6.586   4.692
   56GLOH   H06 8975   0.548   6.544   4.727
   56GLOH   H07 8976   0.471   6.644   4.602
   56GLOH    O3 8977   0.362   6.480   4.658
   56GLOH   H01 8978   0.330   6.446   4.743
   57GLOH   H03 8979   3.405   1.671   7.977
   57GLOH    O1 8980   3.386   1.641   8.068
   57GLOH    C1 8981   3.327   1.751   8.139
   57GLOH   H02 8982   3.387   1.843   8.127
   57GLOH   H08 8983   3.328   1.723   8.244
   57GLOH    C2 8984   3.183   1.773   8.092
   57GLOH   H04 8985   3.183   1.818   7.992
   57GLOH    O2 8986   3.116   1.647   8.090
   57GLOH   H05 8987   3.184   1.582   8.067
   57GLOH    C3 8988   3.104   1.863   8.187
   57GLOH   H06 8989   3.005   1.884   8.143
   57GLOH   H07 8990   3.155   1.959   8.201
   57GLOH    O3 8991   3.090   1.803   8.316
   57GLOH   H01 8992   3.066   1.711   8.297
   58GLOH   H03 8993   2.355   8.409   5.185
   58GLOH    O1 8994   2.368   8.498   5.221
   58GLOH    C1 8995   2.267   8.520   5.321
   58GLOH   H02 8996   2.167   8.494   5.282
   58GLOH   H08 8997   2.270   8.627   5.343
   58GLOH    C2 8998   2.299   8.439   5.447
   58GLOH   H04 8999   2.279   8.333   5.429
   58GLOH    O2 9000   2.437   8.460   5.481
   58GLOH   H05 9001   2.482   8.471   5.396
   58GLOH    C3 9002   2.217   8.485   5.568
   58GLOH   H06 9003   2.237   8.418   5.653
   58GLOH   H07 9004   2.110   8.481   5.546
   58GLOH    O3 9005   2.249   8.620   5.603
   58GLOH   H01 9006   2.346   8.625   5.600
   59GLOH   H03 9007   1.642   3.900   5.423
   59GLOH    O1 9008   1.694   3.940   5.495
   59GLOH    C1 9009   1.670   3.864   5.614
   59GLOH   H02 9010   1.562   3.851   5.632
   59GLOH   H08 9011   1.711   3.924   5.696
   59GLOH    C2 9012   1.741   3.729   5.607
   59GLOH   H04 9013   1.688   3.663   5.536
   59GLOH    O2 9014   1.876   3.750   5.563
   59GLOH   H05 9015   1.871   3.827   5.504
   59GLOH    C3 9016   1.749   3.660   5.743
   59GLOH   H06 9017   1.793   3.559   5.729
   59GLOH   H07 9018   1.650   3.648   5.786
   59GLOH    O3 9019   1.828   3.736   5.835
   59GLOH   H01 9020   1.907   3.762   5.783
   60GLOH   H03 9021   2.694   0.569   1.423
   60GLOH    O1 9022   2.754   0.636   1.387
   60GLOH    C1 9023   2.674   0.733   1.318
   60GLOH   H02 9024   2.604   0.685   1.248
   60GLOH   H08 9025   2.744   0.794   1.260
   60GLOH    C2 9026   2.598   0.821   1.418
   60GLOH   H04 9027   2.515   0.763   1.463
   60GLOH    O2 9028   2.689   0.865   1.519
   60GLOH   H05 9029   2.753   0.792   1.529
   60GLOH    C3 9030   2.541   0.947   1.353
   60GLOH   H06 9031   2.479   1.001   1.427
   60GLOH   H07 9032   2.476   0.921   1.268
   60GLOH    O3 9033   2.645   1.032   1.304
   60GLOH   H01 9034   2.711   1.034   1.376
   61GLOH   H03 9035   5.232   4.034   9.305
   61GLOH    O1 9036   5.175   4.114   9.305
   61GLOH    C1 9037   5.050   4.078   9.245
   61GLOH   H02 9038   5.065   4.027   9.149
   61GLOH   H08 9039   4.998   4.172   9.226
   61GLOH    C2 9040   4.968   3.991   9.340
   61GLOH   H04 9041   5.011   3.890   9.345
   61GLOH    O2 9042   4.968   4.052   9.470
   61GLOH   H05 9043   5.055   4.095   9.477
   61GLOH    C3 9044   4.821   3.980   9.298
   61GLOH   H06 9045   4.769   3.909   9.364
   61GLOH   H07 9046   4.813   3.943   9.196
   61GLOH    O3 9047   4.757   4.108   9.302
   61GLOH   H01 9048   4.785   4.147   9.387
   62GLOH   H03 9049   6.962   8.335   7.167
   62GLOH    O1 9050   6.886   8.304   7.115
   62GLOH    C1 9051   6.841   8.413   7.033
   62GLOH   H02 9052   6.827   8.504   7.093
   62GLOH   H08 9053   6.744   8.383   6.993
   62GLOH    C2 9054   6.940   8.438   6.919
   62GLOH   H04 9055   7.031   8.485   6.958
   62GLOH    O2 9056   6.971   8.312   6.857
   62GLOH   H05 9057   6.967   8.247   6.929
   62GLOH    C3 9058   6.881   8.527   6.809
   62GLOH   H06 9059   6.960   8.549   6.735
   62GLOH   H07 9060   6.847   8.622   6.851
   62GLOH    O3 9061   6.769   8.464   6.746
   62GLOH   H01 9062   6.798   8.372   6.731
   63GLOH   H03 9063   0.098   7.401   6.691
   63GLOH    O1 9064   0.093   7.409   6.594
   63GLOH    C1 9065   0.135   7.284   6.538
   63GLOH   H02 9066   0.231   7.251   6.582
   63GLOH   H08 9067   0.150   7.303   6.432
   63GLOH    C2 9068   0.027   7.177   6.559
   63GLOH   H04 9069   0.025   7.146   6.664
   63GLOH    O2 9070  -0.099   7.232   6.520
   63GLOH   H05 9071  -0.093   7.327   6.543
   63GLOH    C3 9072   0.050   7.054   6.471
   63GLOH   H06 9073  -0.025   6.977   6.497
   63GLOH   H07 9074   0.149   7.012   6.488
   63GLOH    O3 9075   0.041   7.087   6.332
   63GLOH   H01 9076  -0.038   7.144   6.325
   64GLOH   H03 9077   8.282   2.468   1.894
   64GLOH    O1 9078   8.189   2.495   1.894
   64GLOH    C1 9079   8.172   2.595   1.793
   64GLOH   H02 9080   8.247   2.675   1.802
   64GLOH   H08 9081   8.073   2.639   1.811
   64GLOH    C2 9082   8.176   2.531   1.654
   64GLOH   H04 9083   8.280   2.503   1.629
   64GLOH    O2 9084   8.092   2.416   1.654
   64GLOH   H05 9085   8.098   2.380   1.744
   64GLOH    C3 9086   8.123   2.625   1.545
   64GLOH   H06 9087   8.137   2.577   1.447
   64GLOH   H07 9088   8.177   2.720   1.545
   64GLOH    O3 9089   7.984   2.654   1.566
   64GLOH   H01 9090   7.944   2.568   1.587
   65GLOH   H03 9091   0.646   0.844   1.079
   65GLOH    O1 9092   0.649   0.938   1.057
   65GLOH    C1 9093   0.714   0.952   0.930
   65GLOH   H02 9094   0.808   0.895   0.926
   65GLOH   H08 9095   0.736   1.058   0.919
   65GLOH    C2 9096   0.619   0.906   0.818
   65GLOH   H04 9097   0.610   0.797   0.819
   65GLOH    O2 9098   0.491   0.967   0.839
   65GLOH   H05 9099   0.482   0.974   0.935
   65GLOH    C3 9100   0.666   0.951   0.680
   65GLOH   H06 9101   0.600   0.908   0.603
   65GLOH   H07 9102   0.768   0.916   0.660
   65GLOH    O3 9103   0.667   1.094   0.669
   65GLOH   H01 9104   0.583   1.122   0.708
   66GLOH   H03 9105   7.350   8.677   8.446
   66GLOH    O1 9106   7.321   8.597   8.492
   66GLOH    C1 9107   7.405   8.488   8.451
   66GLOH   H02 9108   7.413   8.483   8.341
   66GLOH   H08 9109   7.356   8.398   8.486
   66GLOH    C2 9110   7.543   8.502   8.515
   66GLOH   H04 9111   7.599   8.583   8.466
   66GLOH    O2 9112   7.527   8.529   8.655
   66GLOH   H05 9113   7.445   8.581   8.660
   66GLOH    C3 9114   7.625   8.373   8.505
   66GLOH   H06 9115   7.727   8.391   8.544
   66GLOH   H07 9116   7.634   8.341   8.401
   66GLOH    O3 9117   7.563   8.267   8.578
   66GLOH   H01 9118   7.537   8.307   8.663
   67GLOH   H03 9119   2.584   8.304   1.385
   67GLOH    O1 9120   2.496   8.300   1.425
   67GLOH    C1 9121   2.510   8.242   1.556
   67GLOH   H02 9122   2.568   8.149   1.552
   67GLOH   H08 9123   2.408   8.218   1.589
   67GLOH    C2 9124   2.573   8.343   1.652
   67GLOH   H04 9125   2.681   8.353   1.629
   67GLOH    O2 9126   2.507   8.469   1.638
   67GLOH   H05 9127   2.481   8.473   1.544
   67GLOH    C3 9128   2.558   8.301   1.799
   67GLOH   H06 9129   2.614   8.372   1.862
   67GLOH   H07 9130   2.599   8.202   1.815
   67GLOH    O3 9131   2.420   8.299   1.837
   67GLOH   H01 9132   2.383   8.381   1.800
   68GLOH   H03 9133   1.412   5.348   3.193
   68GLOH    O1 9134   1.368   5.403   3.125
   68GLOH    C1 9135   1.316   5.520   3.189
   68GLOH   H02 9136   1.258   5.494   3.279
   68GLOH   H08 9137   1.249   5.566   3.117
   68GLOH    C2 9138   1.430   5.616   3.224
   68GLOH   H04 9139   1.487   5.576   3.310
   68GLOH    O2 9140   1.515   5.630   3.110
   68GLOH   H05 9141   1.511   5.544   3.065
   68GLOH    C3 9142   1.380   5.756   3.259
   68GLOH   H06 9143   1.465   5.818   3.293
   68GLOH   H07 9144   1.307   5.752   3.341
   68GLOH    O3 9145   1.316   5.817   3.147
   68GLOH   H01 9146   1.375   5.799   3.072
   69GLOH   H03 9147   4.498   3.592   4.420
   69GLOH    O1 9148   4.533   3.670   4.467
   69GLOH    C1 9149   4.466   3.677   4.594
   69GLOH   H02 9150   4.357   3.670   4.583
   69GLOH   H08 9151   4.490   3.776   4.634
   69GLOH    C2 9152   4.519   3.569   4.688
   69GLOH   H04 9153   4.480   3.471   4.657
   69GLOH    O2 9154   4.662   3.569   4.683
   69GLOH   H05 9155   4.684   3.595   4.592
   69GLOH    C3 9156   4.480   3.594   4.834
   69GLOH   H06 9157   4.512   3.507   4.895
   69GLOH   H07 9158   4.372   3.603   4.844
   69GLOH    O3 9159   4.539   3.714   4.883
   69GLOH   H01 9160   4.632   3.711   4.852
   70GLOH   H03 9161   3.586   6.398   1.577
   70GLOH    O1 9162   3.595   6.324   1.514
   70GLOH    C1 9163   3.525   6.359   1.394
   70GLOH   H02 9164   3.423   6.395   1.416
   70GLOH   H08 9165   3.518   6.267   1.336
   70GLOH    C2 9166   3.604   6.465   1.316
   70GLOH   H04 9167   3.596   6.562   1.367
   70GLOH    O2 9168   3.741   6.424   1.308
   70GLOH   H05 9169   3.757   6.376   1.391
   70GLOH    C3 9170   3.554   6.480   1.172
   70GLOH   H06 9171   3.608   6.564   1.124
   70GLOH   H07 9172   3.448   6.503   1.170
   70GLOH    O3 9173   3.574   6.360   1.098
   70GLOH   H01 9174   3.665   6.331   1.121
   71GLOH   H03 9175   6.885   6.241   4.542
   71GLOH    O1 9176   6.800   6.215   4.503
   71GLOH    C1 9177   6.798   6.260   4.367
   71GLOH   H02 9178   6.827   6.366   4.359
   71GLOH   H08 9179   6.695   6.249   4.333
   71GLOH    C2 9180   6.891   6.173   4.281
   71GLOH   H04 9181   6.996   6.198   4.304
   71GLOH    O2 9182   6.865   6.036   4.310
   71GLOH   H05 9183   6.839   6.034   4.403
   71GLOH    C3 9184   6.867   6.192   4.131
   71GLOH   H06 9185   6.943   6.135   4.075
   71GLOH   H07 9186   6.877   6.298   4.104
   71GLOH    O3 9187   6.736   6.150   4.094
   71GLOH   H01 9188   6.723   6.065   4.140
   72GLOH   H03 9189   9.379   1.527   4.178
   72GLOH    O1 9190   9.463   1.546   4.225
   72GLOH    C1 9191   9.429   1.600   4.354
   72GLOH   H02 9192   9.355   1.681   4.346
   72GLOH   H08 9193   9.522   1.641   4.394
   72GLOH    C2 9194   9.377   1.489   4.445
   72GLOH   H04 9195   9.275   1.460   4.415
   72GLOH    O2 9196   9.465   1.377   4.437
   72GLOH   H05 9197   9.499   1.378   4.345
   72GLOH    C3 9198   9.374   1.531   4.593
   72GLOH   H06 9199   9.327   1.451   4.652
   72GLOH   H07 9200   9.315   1.622   4.605
   72GLOH    O3 9201   9.506   1.557   4.641
   72GLOH   H01 9202   9.560   1.484   4.608
   73GLOH   H03 9203   7.387   9.488   9.449
   73GLOH    O1 9204   7.327   9.562   9.468
   73GLOH    C1 9205   7.299   9.628   9.344
   73GLOH   H02 9206   7.391   9.650   9.288
   73GLOH   H08 9207   7.251   9.722   9.370
   73GLOH    C2 9208   7.203   9.543   9.260
   73GLOH   H04 9209   7.257   9.456   9.219
   73GLOH    O2 9210   7.095   9.499   9.344
   73GLOH   H05 9211   7.134   9.489   9.432
   73GLOH    C3 9212   7.140   9.621   9.145
   73GLOH   H06 9213   7.080   9.553   9.083
   73GLOH   H07 9214   7.217   9.665   9.082
   73GLOH    O3 9215   7.058   9.728   9.194
   73GLOH   H01 9216   7.006   9.688   9.266
   74GLOH   H03 9217   0.358   9.006   3.569
   74GLOH    O1 9218   0.366   9.079   3.634
   74GLOH    C1 9219   0.341   9.024   3.764
   74GLOH   H02 9220   0.249   8.964   3.766
   74GLOH   H08 9221   0.328   9.110   3.830
   74GLOH    C2 9222   0.461   8.941   3.810
   74GLOH   H04 9223   0.463   8.846   3.755
   74GLOH    O2 9224   0.581   9.015   3.787
   74GLOH   H05 9225   0.562   9.068   3.707
   74GLOH    C3 9226   0.457   8.911   3.960
   74GLOH   H06 9227   0.540   8.843   3.985
   74GLOH   H07 9228   0.364   8.861   3.987
   74GLOH    O3 9229   0.467   9.031   4.037
   74GLOH   H01 9230   0.538   9.082   3.995
   75GLOH   H03 9231  10.034   7.640   7.561
   75GLOH    O1 9232   9.940   7.612   7.562
   75GLOH    C1 9233   9.890   7.634   7.694
   75GLOH   H02 9234   9.956   7.590   7.770
   75GLOH   H08 9235   9.794   7.582   7.698
   75GLOH    C2 9236   9.869   7.783   7.719
   75GLOH   H04 9237   9.966   7.832   7.733
   75GLOH    O2 9238   9.800   7.840   7.607
   75GLOH   H05 9239   9.830   7.789   7.531
   75GLOH    C3 9240   9.782   7.810   7.842
   75GLOH   H06 9241   9.779   7.919   7.861
   75GLOH   H07 9242   9.824   7.762   7.931
   75GLOH    O3 9243   9.650   7.759   7.824
   75GLOH   H01 9244   9.625   7.787   7.734
   76GLOH   H03 9245   0.778   2.930   0.619
   76GLOH    O1 9246   0.710   2.959   0.555
   76GLOH    C1 9247   0.627   2.846   0.525
   76GLOH   H02 9248   0.688   2.758   0.499
   76GLOH   H08 9249   0.568   2.874   0.438
   76GLOH    C2 9250   0.535   2.815   0.643
   76GLOH   H04 9251   0.593   2.769   0.725
   76GLOH    O2 9252   0.474   2.936   0.688
   76GLOH   H05 9253   0.541   3.005   0.671
   76GLOH    C3 9254   0.421   2.720   0.605
   76GLOH   H06 9255   0.364   2.694   0.696
   76GLOH   H07 9256   0.460   2.628   0.562
   76GLOH    O3 9257   0.334   2.780   0.508
   76GLOH   H01 9258   0.320   2.871   0.541
   77GLOH   H03 9259   8.440   3.387   5.991
   77GLOH    O1 9260   8.370   3.446   5.959
   77GLOH    C1 9261   8.360   3.429   5.817
   77GLOH   H02 9262   8.458   3.437   5.768
   77GLOH   H08 9263   8.297   3.512   5.782
   77GLOH    C2 9264   8.293   3.295   5.784
   77GLOH   H04 9265   8.364   3.213   5.803
   77GLOH    O2 9266   8.176   3.281   5.865
   77GLOH   H05 9267   8.198   3.326   5.948
   77GLOH    C3 9268   8.247   3.288   5.638
   77GLOH   H06 9269   8.209   3.186   5.618
   77GLOH   H07 9270   8.330   3.307   5.570
   77GLOH    O3 9271   8.145   3.385   5.611
   77GLOH   H01 9272   8.085   3.379   5.687
   78GLOH   H03 9273   6.660   2.414   8.609
   78GLOH    O1 9274   6.748   2.440   8.640
   78GLOH    C1 9275   6.755   2.583   8.640
   78GLOH   H02 9276   6.721   2.624   8.543
   78GLOH   H08 9277   6.861   2.608   8.653
   78GLOH    C2 9278   6.673   2.641   8.755
   78GLOH   H04 9279   6.566   2.631   8.733
   78GLOH    O2 9280   6.706   2.569   8.875
   78GLOH   H05 9281   6.726   2.479   8.845
   78GLOH    C3 9282   6.705   2.788   8.782
   78GLOH   H06 9283   6.636   2.826   8.859
   78GLOH   H07 9284   6.691   2.847   8.692
   78GLOH    O3 9285   6.841   2.804   8.824
   78GLOH   H01 9286   6.855   2.734   8.889
   79GLOH   H03 9287   2.403   2.685   8.390
   79GLOH    O1 9288   2.483   2.651   8.433
   79GLOH    C1 9289   2.526   2.750   8.528
   79GLOH   H02 9290   2.531   2.850   8.482
   79GLOH   H08 9291   2.627   2.721   8.557
   79GLOH    C2 9292   2.434   2.750   8.650
   79GLOH   H04 9293   2.337   2.796   8.623
   79GLOH    O2 9294   2.415   2.614   8.693
   79GLOH   H05 9295   2.418   2.562   8.611
   79GLOH    C3 9296   2.494   2.825   8.769
   79GLOH   H06 9297   2.419   2.830   8.850
   79GLOH   H07 9298   2.520   2.927   8.740
   79GLOH    O3 9299   2.613   2.761   8.815
   79GLOH   H01 9300   2.592   2.667   8.817
   80GLOH   H03 9301   7.201   0.562   8.723
   80GLOH    O1 9302   7.279   0.505   8.730
   80GLOH    C1 9303   7.390   0.586   8.772
   80GLOH   H02 9304   7.399   0.677   8.710
   80GLOH   H08 9305   7.479   0.525   8.757
   80GLOH    C2 9306   7.376   0.623   8.920
   80GLOH   H04 9307   7.296   0.698   8.932
   80GLOH    O2 9308   7.343   0.505   8.994
   80GLOH   H05 9309   7.290   0.451   8.933
   80GLOH    C3 9310   7.506   0.678   8.979
   80GLOH   H06 9311   7.487   0.711   9.083
   80GLOH   H07 9312   7.541   0.764   8.922
   80GLOH    O3 9313   7.609   0.579   8.978
   80GLOH   H01 9314   7.565   0.497   9.009
   81GLOH   H03 9315   1.111   9.839   1.994
   81GLOH    O1 9316   1.167   9.854   1.916
   81GLOH    C1 9317   1.281   9.931   1.959
   81GLOH   H02 9318   1.250  10.019   2.018
   81GLOH   H08 9319   1.330   9.965   1.868
   81GLOH    C2 9320   1.377   9.842   2.040
   81GLOH   H04 9321   1.334   9.822   2.139
   81GLOH    O2 9322   1.397   9.720   1.969
   81GLOH   H05 9323   1.313   9.703   1.923
   81GLOH    C3 9324   1.515   9.906   2.057
   81GLOH   H06 9325   1.575   9.843   2.124
   81GLOH   H07 9326   1.506  10.005   2.103
   81GLOH    O3 9327   1.580   9.922   1.931
   81GLOH   H01 9328   1.566   9.838   1.885
   82GLOH   H03 9329   6.260   9.506   5.542
   82GLOH    O1 9330   6.344   9.469   5.510
   82GLOH    C1 9331   6.335   9.456   5.367
   82GLOH   H02 9332   6.242   9.405   5.337
   82GLOH   H08 9333   6.420   9.394   5.337
   82GLOH    C2 9334   6.345   9.594   5.301
   82GLOH   H04 9335   6.251   9.649   5.317
   82GLOH    O2 9336   6.455   9.665   5.359
   82GLOH   H05 9337   6.459   9.634   5.451
   82GLOH    C3 9338   6.373   9.585   5.151
   82GLOH   H06 9339   6.369   9.686   5.107
   82GLOH   H07 9340   6.297   9.524   5.101
   82GLOH    O3 9341   6.500   9.525   5.125
   82GLOH   H01 9342   6.560   9.567   5.188
   83GLOH   H03 9343   8.597   2.788   6.902
   83GLOH    O1 9344   8.567   2.709   6.855
   83GLOH    C1 9345   8.423   2.706   6.863
   83GLOH   H02 9346   8.389   2.720   6.966
   83GLOH   H08 9347   8.394   2.607   6.829
   83GLOH    C2 9348   8.363   2.813   6.771
   83GLOH   H04 9349   8.378   2.913   6.814
   83GLOH    O2 9350   8.427   2.804   6.643
   83GLOH   H05 9351   8.518   2.776   6.662
   83GLOH    C3 9352   8.213   2.791   6.747
   83GLOH   H06 9353   8.174   2.876   6.688
   83GLOH   H07 9354   8.159   2.788   6.841
   83GLOH    O3 9355   8.189   2.668   6.678
   83GLOH   H01 9356   8.256   2.666   6.607
   84GLOH   H03 9357   0.540   2.231   2.906
   84GLOH    O1 9358   0.505   2.320   2.924
   84GLOH    C1 9359   0.400   2.346   2.830
   84GLOH   H02 9360   0.432   2.324   2.727
   84GLOH   H08 9361   0.379   2.452   2.837
   84GLOH    C2 9362   0.275   2.265   2.866
   84GLOH   H04 9363   0.291   2.159   2.841
   84GLOH    O2 9364   0.249   2.280   3.006
   84GLOH   H05 9365   0.337   2.289   3.046
   84GLOH    C3 9366   0.150   2.314   2.792
   84GLOH   H06 9367   0.066   2.247   2.814
   84GLOH   H07 9368   0.166   2.314   2.684
   84GLOH    O3 9369   0.118   2.448   2.831
   84GLOH   H01 9370   0.126   2.449   2.928
   85GLOH   H03 9371   2.134   6.531   8.825
   85GLOH    O1 9372   2.065   6.496   8.766
   85GLOH    C1 9373   2.086   6.354   8.755
   85GLOH   H02 9374   2.191   6.330   8.732
   85GLOH   H08 9375   2.023   6.321   8.672
   85GLOH    C2 9376   2.042   6.284   8.885
   85GLOH   H04 9377   2.116   6.304   8.964
   85GLOH    O2 9378   1.913   6.334   8.922
   85GLOH   H05 9379   1.913   6.427   8.892
   85GLOH    C3 9380   2.027   6.133   8.867
   85GLOH   H06 9381   2.005   6.088   8.965
   85GLOH   H07 9382   2.120   6.089   8.830
   85GLOH    O3 9383   1.923   6.102   8.774
   85GLOH   H01 9384   1.850   6.161   8.799
   86GLOH   H03 9385   6.587   1.558   5.020
   86GLOH    O1 9386   6.619   1.484   5.075
   86GLOH    C1 9387   6.759   1.505   5.100
   86GLOH   H02 9388   6.814   1.527   5.007
   86GLOH   H08 9389   6.796   1.411   5.141
   86GLOH    C2 9390   6.778   1.618   5.202
   86GLOH   H04 9391   6.757   1.715   5.154
   86GLOH    O2 9392   6.689   1.596   5.312
   86GLOH   H05 9393   6.611   1.554   5.272
   86GLOH    C3 9394   6.919   1.621   5.260
   86GLOH   H06 9395   6.929   1.710   5.325
   86GLOH   H07 9396   6.993   1.629   5.180
   86GLOH    O3 9397   6.947   1.502   5.334
   86GLOH   H01 9398   6.867   1.488   5.388
   87GLOH   H03 9399   2.653   4.341   7.248
   87GLOH    O1 9400   2.749   4.341   7.232
   87GLOH    C1 9401   2.813   4.391   7.350
   87GLOH   H02 9402   2.767   4.485   7.384
   87GLOH   H08 9403   2.916   4.410   7.322
   87GLOH    C2 9404   2.808   4.285   7.461
   87GLOH   H04 9405   2.705   4.279   7.502
   87GLOH    O2 9406   2.848   4.159   7.407
   87GLOH   H05 9407   2.818   4.161   7.315
   87GLOH    C3 9408   2.904   4.317   7.576
   87GLOH   H06 9409   2.889   4.244   7.657
   87GLOH   H07 9410   2.885   4.417   7.616
   87GLOH    O3 9411   3.040   4.314   7.531
   87GLOH   H01 9412   3.046   4.234   7.477
   88GLOH   H03 9413   3.348   9.801   9.649
   88GLOH    O1 9414   3.441   9.810   9.623
   88GLOH    C1 9415   3.462   9.728   9.507
   88GLOH   H02 9416   3.423   9.626   9.522
   88GLOH   H08 9417   3.570   9.722   9.494
   88GLOH    C2 9418   3.397   9.794   9.384
   88GLOH   H04 9419   3.288   9.784   9.390
   88GLOH    O2 9420   3.435   9.932   9.381
   88GLOH   H05 9421   3.443   9.958   9.474
   88GLOH    C3 9422   3.446   9.732   9.253
   88GLOH   H06 9423   3.389   9.776   9.169
   88GLOH   H07 9424   3.429   9.624   9.252
   88GLOH    O3 9425   3.586   9.754   9.235
   88GLOH   H01 9426   3.600   9.847   9.258
   89GLOH   H03 9427   7.162   4.716   7.374
   89GLOH    O1 9428   7.216   4.746   7.449
   89GLOH    C1 9429   7.353   4.718   7.416
   89GLOH   H02 9430   7.366   4.614   7.382
   89GLOH   H08 9431   7.409   4.731   7.509
   89GLOH    C2 9432   7.404   4.816   7.311
   89GLOH   H04 9433   7.360   4.791   7.213
   89GLOH    O2 9434   7.366   4.949   7.350
   89GLOH   H05 9435   7.282   4.938   7.396
   89GLOH    C3 9436   7.556   4.816   7.299
   89GLOH   H06 9437   7.586   4.881   7.215
   89GLOH   H07 9438   7.593   4.715   7.278
   89GLOH    O3 9439   7.618   4.860   7.420
   89GLOH   H01 9440   7.567   4.938   7.446
   90GLOH   H03 9441   8.104   0.844   3.434
   90GLOH    O1 9442   8.101   0.757   3.478
   90GLOH    C1 9443   8.133   0.776   3.616
   90GLOH   H02 9444   8.225   0.836   3.629
   90GLOH   H08 9445   8.151   0.677   3.657
   90GLOH    C2 9446   8.015   0.842   3.689
   90GLOH   H04 9447   8.008   0.948   3.661
   90GLOH    O2 9448   7.895   0.773   3.654
   90GLOH   H05 9449   7.909   0.744   3.562
   90GLOH    C3 9450   8.028   0.832   3.841
   90GLOH   H06 9451   7.946   0.889   3.888
   90GLOH   H07 9452   8.122   0.875   3.875
   90GLOH    O3 9453   8.024   0.695   3.884
   90GLOH   H01 9454   7.951   0.656   3.834
   91GLOH   H03 9455   8.703   5.222   5.725
   91GLOH    O1 9456   8.650   5.154   5.771
   91GLOH    C1 9457   8.703   5.141   5.904
   91GLOH   H02 9458   8.813   5.128   5.903
   91GLOH   H08 9459   8.658   5.050   5.945
   91GLOH    C2 9460   8.664   5.262   5.989
   91GLOH   H04 9461   8.722   5.350   5.958
   91GLOH    O2 9462   8.524   5.287   5.971
   91GLOH   H05 9463   8.505   5.261   5.879
   91GLOH    C3 9464   8.685   5.238   6.139
   91GLOH   H06 9465   8.664   5.332   6.193
   91GLOH   H07 9466   8.788   5.210   6.159
   91GLOH    O3 9467   8.600   5.133   6.186
   91GLOH   H01 9468   8.513   5.151   6.147
   92GLOH   H03 9469   2.864   9.169   7.293
   92GLOH    O1 9470   2.941   9.125   7.251
   92GLOH    C1 9471   2.974   9.010   7.329
   92GLOH   H02 9472   2.982   9.034   7.436
   92GLOH   H08 9473   3.071   8.977   7.294
   92GLOH    C2 9474   2.870   8.899   7.307
   92GLOH   H04 9475   2.776   8.925   7.358
   92GLOH    O2 9476   2.847   8.885   7.166
   92GLOH   H05 9477   2.859   8.975   7.130
   92GLOH    C3 9478   2.918   8.763   7.357
   92GLOH   H06 9479   2.836   8.690   7.347
   92GLOH   H07 9480   2.945   8.768   7.463
   92GLOH    O3 9481   3.033   8.718   7.284
   92GLOH   H01 9482   3.011   8.736   7.191
   93GLOH   H03 9483   2.456   0.950   2.618
   93GLOH    O1 9484   2.443   0.855   2.637
   93GLOH    C1 9485   2.315   0.817   2.585
   93GLOH   H02 9486   2.236   0.887   2.617
   93GLOH   H08 9487   2.293   0.719   2.627
   93GLOH    C2 9488   2.320   0.809   2.432
   93GLOH   H04 9489   2.323   0.910   2.389
   93GLOH    O2 9490   2.436   0.734   2.394
   93GLOH   H05 9491   2.502   0.755   2.462
   93GLOH    C3 9492   2.200   0.734   2.373
   93GLOH   H06 9493   2.204   0.740   2.263
   93GLOH   H07 9494   2.106   0.780   2.406
   93GLOH    O3 9495   2.198   0.598   2.416
   93GLOH   H01 9496   2.289   0.567   2.406
   94GLOH   H03 9497   6.662   9.988   0.724
   94GLOH    O1 9498   6.697  10.038   0.648
   94GLOH    C1 9499   6.705   9.947   0.536
   94GLOH   H02 9500   6.756   9.854   0.564
   94GLOH   H08 9501   6.765   9.998   0.461
   94GLOH    C2 9502   6.565   9.919   0.482
   94GLOH   H04 9503   6.511   9.853   0.551
   94GLOH    O2 9504   6.495  10.043   0.467
   94GLOH   H05 9505   6.529  10.099   0.539
   94GLOH    C3 9506   6.568   9.854   0.343
   94GLOH   H06 9507   6.465   9.827   0.313
   94GLOH   H07 9508   6.628   9.763   0.345
   94GLOH    O3 9509   6.626   9.942   0.246
   94GLOH   H01 9510   6.585  10.029   0.264
   95GLOH   H03 9511   4.521   4.820   0.491
   95GLOH    O1 9512   4.529   4.853   0.582
   95GLOH    C1 9513   4.453   4.974   0.592
   95GLOH   H02 9514   4.478   5.044   0.511
   95GLOH   H08 9515   4.482   5.020   0.687
   95GLOH    C2 9516   4.303   4.942   0.593
   95GLOH   H04 9517   4.271   4.913   0.492
   95GLOH    O2 9518   4.279   4.836   0.686
   95GLOH   H05 9519   4.359   4.781   0.683
   95GLOH    C3 9520   4.219   5.061   0.640
   95GLOH   H06 9521   4.112   5.036   0.629
   95GLOH   H07 9522   4.239   5.149   0.578
   95GLOH    O3 9523   4.248   5.095   0.775
   95GLOH   H01 9524   4.251   5.010   0.822
   96GLOH   H03 9525   0.756   0.720   2.231
   96GLOH    O1 9526   0.819   0.790   2.257
   96GLOH    C1 9527   0.815   0.802   2.400
   96GLOH   H02 9528   0.711   0.811   2.436
   96GLOH   H08 9529   0.868   0.894   2.423
   96GLOH    C2 9530   0.885   0.683   2.465
   96GLOH   H04 9531   0.822   0.593   2.456
   96GLOH    O2 9532   1.011   0.662   2.399
   96GLOH   H05 9533   0.996   0.689   2.307
   96GLOH    C3 9534   0.916   0.707   2.613
   96GLOH   H06 9535   0.958   0.615   2.656
   96GLOH   H07 9536   0.825   0.732   2.667
   96GLOH    O3 9537   1.008   0.815   2.629
   96GLOH   H01 9538   1.077   0.800   2.562
   97GLOH   H03 9539   9.519   7.064  -0.108
   97GLOH    O1 9540   9.436   7.015  -0.115
   97GLOH    C1 9541   9.466   6.876  -0.100
   97GLOH   H02 9542   9.548   6.845  -0.166
   97GLOH   H08 9543   9.375   6.822  -0.131
   97GLOH    C2 9544   9.498   6.844   0.046
   97GLOH   H04 9545   9.598   6.883   0.071
   97GLOH    O2 9546   9.398   6.904   0.129
   97GLOH   H05 9547   9.372   6.985   0.083
   97GLOH    C3 9548   9.495   6.694   0.075
   97GLOH   H06 9549   9.528   6.676   0.179
   97GLOH   H07 9550   9.563   6.640   0.009
   97GLOH    O3 9551   9.363   6.640   0.056
   97GLOH   H01 9552   9.304   6.704   0.099
   98GLOH   H03 9553   8.169   2.911   7.539
   98GLOH    O1 9554   8.215   2.986   7.581
   98GLOH    C1 9555   8.154   3.106   7.533
   98GLOH   H02 9556   8.147   3.107   7.423
   98GLOH   H08 9557   8.221   3.187   7.564
   98GLOH    C2 9558   8.016   3.126   7.597
   98GLOH   H04 9559   7.945   3.055   7.552
   98GLOH    O2 9560   8.027   3.104   7.738
   98GLOH   H05 9561   8.096   3.036   7.747
   98GLOH    C3 9562   7.963   3.268   7.579
   98GLOH   H06 9563   7.860   3.273   7.618
   98GLOH   H07 9564   7.960   3.295   7.473
   98GLOH    O3 9565   8.046   3.363   7.646
   98GLOH   H01 9566   8.064   3.323   7.733
   99GLOH   H03 9567   7.085   4.890   3.431
   99GLOH    O1 9568   7.169   4.884   3.384
   99GLOH    C1 9569   7.144   4.823   3.257
   99GLOH   H02 9570   7.086   4.730   3.268
   99GLOH   H08 9571   7.242   4.797   3.216
   99GLOH    C2 9572   7.072   4.921   3.163
   99GLOH   H04 9573   6.968   4.933   3.195
   99GLOH    O2 9574   7.140   5.047   3.168
   99GLOH   H05 9575   7.174   5.053   3.259
   99GLOH    C3 9576   7.075   4.875   3.017
   99GLOH   H06 9577   7.014   4.944   2.957
   99GLOH   H07 9578   7.033   4.775   3.007
   99GLOH    O3 9579   7.209   4.871   2.967
   99GLOH   H01 9580   7.250   4.954   2.998
  100GLOH   H03 9581   0.978   8.354   9.368
  100GLOH    O1 9582   0.897   8.350   9.313
  100GLOH    C1 9583   0.785   8.366   9.401
  100GLOH   H02 9584   0.791   8.298   9.487
  100GLOH   H08 9585   0.697   8.339   9.342
  100GLOH    C2 9586   0.774   8.511   9.448
  100GLOH   H04 9587   0.853   8.533   9.521
  100GLOH    O2 9588   0.787   8.598   9.334
  100GLOH   H05 9589   0.848   8.551   9.274
  100GLOH    C3 9590   0.638   8.543   9.511
  100GLOH   H06 9591   0.639   8.645   9.551
  100GLOH   H07 9592   0.617   8.474   9.593
  100GLOH    O3 9593   0.532   8.529   9.415
  100GLOH   H01 9594   0.566   8.573   9.335
  101GLOH   H03 9595   2.425   7.770   2.308
  101GLOH    O1 9596   2.513   7.740   2.339
  101GLOH    C1 9597   2.571   7.847   2.415
  101GLOH   H02 9598   2.566   7.943   2.361
  101GLOH   H08 9599   2.676   7.820   2.429
  101GLOH    C2 9600   2.501   7.859   2.551
  101GLOH   H04 9601   2.401   7.903   2.538
  101GLOH    O2 9602   2.491   7.728   2.609
  101GLOH   H05 9603   2.480   7.668   2.533
  101GLOH    C3 9604   2.580   7.944   2.650
  101GLOH   H06 9605   2.521   7.957   2.742
  101GLOH   H07 9606   2.600   8.043   2.609
  101GLOH    O3 9607   2.707   7.884   2.681
  101GLOH   H01 9608   2.686   7.790   2.695
  102GLOH   H03 9609   5.791   6.242   0.344
  102GLOH    O1 9610   5.796   6.339   0.353
  102GLOH    C1 9611   5.864   6.389   0.237
  102GLOH   H02 9612   5.958   6.335   0.219
  102GLOH   H08 9613   5.888   6.493   0.260
  102GLOH    C2 9614   5.773   6.382   0.114
  102GLOH   H04 9615   5.763   6.277   0.081
  102GLOH    O2 9616   5.644   6.434   0.149
  102GLOH   H05 9617   5.632   6.412   0.243
  102GLOH    C3 9618   5.824   6.466  -0.002
  102GLOH   H06 9619   5.760   6.449  -0.091
  102GLOH   H07 9620   5.926   6.437  -0.029
  102GLOH    O3 9621   5.826   6.605   0.031
  102GLOH   H01 9622   5.741   6.621   0.075
  103GLOH   H03 9623   7.550   2.478   8.504
  103GLOH    O1 9624   7.526   2.413   8.435
  103GLOH    C1 9625   7.465   2.485   8.327
  103GLOH   H02 9626   7.386   2.552   8.363
  103GLOH   H08 9627   7.420   2.409   8.263
  103GLOH    C2 9628   7.571   2.563   8.248
  103GLOH   H04 9629   7.604   2.650   8.307
  103GLOH    O2 9630   7.682   2.476   8.222
  103GLOH   H05 9631   7.686   2.417   8.298
  103GLOH    C3 9632   7.519   2.611   8.112
  103GLOH   H06 9633   7.596   2.675   8.065
  103GLOH   H07 9634   7.429   2.671   8.125
  103GLOH    O3 9635   7.487   2.500   8.028
  103GLOH   H01 9636   7.562   2.439   8.038
  104GLOH   H03 9637   0.753   9.210   5.540
  104GLOH    O1 9638   0.830   9.177   5.490
  104GLOH    C1 9639   0.838   9.251   5.367
  104GLOH   H02 9640   0.741   9.254   5.315
  104GLOH   H08 9641   0.909   9.197   5.304
  104GLOH    C2 9642   0.889   9.392   5.394
  104GLOH   H04 9643   0.810   9.452   5.442
  104GLOH    O2 9644   1.004   9.384   5.479
  104GLOH   H05 9645   0.988   9.307   5.536
  104GLOH    C3 9646   0.934   9.464   5.266
  104GLOH   H06 9647   0.961   9.568   5.291
  104GLOH   H07 9648   0.854   9.466   5.193
  104GLOH    O3 9649   1.046   9.397   5.207
  104GLOH   H01 9650   1.105   9.377   5.281
  105GLOH   H03 9651   0.675   9.767   3.350
  105GLOH    O1 9652   0.591   9.816   3.350
  105GLOH    C1 9653   0.486   9.722   3.326
  105GLOH   H02 9654   0.508   9.659   3.238
  105GLOH   H08 9655   0.397   9.781   3.304
  105GLOH    C2 9656   0.462   9.635   3.450
  105GLOH   H04 9657   0.544   9.563   3.461
  105GLOH    O2 9658   0.454   9.721   3.565
  105GLOH   H05 9659   0.514   9.794   3.545
  105GLOH    C3 9660   0.329   9.559   3.443
  105GLOH   H06 9661   0.322   9.492   3.530
  105GLOH   H07 9662   0.324   9.498   3.353
  105GLOH    O3 9663   0.218   9.649   3.441
  105GLOH   H01 9664   0.239   9.715   3.510
  106GLOH   H03 9665   1.440   7.602   4.628
  106GLOH    O1 9666   1.449   7.534   4.696
  106GLOH    C1 9667   1.442   7.599   4.824
  106GLOH   H02 9668   1.511   7.685   4.829
  106GLOH   H08 9669   1.475   7.525   4.897
  106GLOH    C2 9670   1.299   7.642   4.854
  106GLOH   H04 9671   1.272   7.729   4.792
  106GLOH    O2 9672   1.211   7.532   4.827
  106GLOH   H05 9673   1.253   7.485   4.753
  106GLOH    C3 9674   1.278   7.678   5.002
  106GLOH   H06 9675   1.176   7.718   5.015
  106GLOH   H07 9676   1.348   7.756   5.032
  106GLOH    O3 9677   1.299   7.565   5.086
  106GLOH   H01 9678   1.252   7.492   5.042
  107GLOH   H03 9679   8.988   3.591   7.511
  107GLOH    O1 9680   8.902   3.626   7.481
  107GLOH    C1 9681   8.895   3.610   7.339
  107GLOH   H02 9682   8.986   3.650   7.290
  107GLOH   H08 9683   8.810   3.669   7.306
  107GLOH    C2 9684   8.875   3.463   7.302
  107GLOH   H04 9685   8.968   3.407   7.319
  107GLOH    O2 9686   8.770   3.410   7.383
  107GLOH   H05 9687   8.777   3.458   7.468
  107GLOH    C3 9688   8.831   3.445   7.157
  107GLOH   H06 9689   8.827   3.337   7.133
  107GLOH   H07 9690   8.902   3.491   7.089
  107GLOH    O3 9691   8.703   3.505   7.133
  107GLOH   H01 9692   8.649   3.478   7.209
  108GLOH   H03 9693   6.925   9.791   5.272
  108GLOH    O1 9694   7.006   9.828   5.232
  108GLOH    C1 9695   7.107   9.831   5.334
  108GLOH   H02 9696   7.070   9.879   5.426
  108GLOH   H08 9697   7.188   9.893   5.294
  108GLOH    C2 9698   7.159   9.690   5.363
  108GLOH   H04 9699   7.083   9.634   5.419
  108GLOH    O2 9700   7.186   9.625   5.238
  108GLOH   H05 9701   7.121   9.661   5.176
  108GLOH    C3 9702   7.289   9.690   5.442
  108GLOH   H06 9703   7.316   9.586   5.468
  108GLOH   H07 9704   7.278   9.746   5.535
  108GLOH    O3 9705   7.395   9.751   5.367
  108GLOH   H01 9706   7.387   9.713   5.278
  109GLOH   H03 9707   8.850   2.712   6.748
  109GLOH    O1 9708   8.798   2.793   6.758
  109GLOH    C1 9709   8.875   2.902   6.705
  109GLOH   H02 9710   8.978   2.902   6.745
  109GLOH   H08 9711   8.825   2.993   6.738
  109GLOH    C2 9712   8.877   2.895   6.552
  109GLOH   H04 9713   8.942   2.813   6.519
  109GLOH    O2 9714   8.743   2.874   6.505
  109GLOH   H05 9715   8.701   2.821   6.574
  109GLOH    C3 9716   8.925   3.026   6.488
  109GLOH   H06 9717   8.933   3.012   6.379
  109GLOH   H07 9718   9.024   3.053   6.527
  109GLOH    O3 9719   8.836   3.134   6.518
  109GLOH   H01 9720   8.747   3.097   6.503
  110GLOH   H03 9721   1.637   9.047   9.021
  110GLOH    O1 9722   1.687   9.101   8.958
  110GLOH    C1 9723   1.697   9.028   8.835
  110GLOH   H02 9724   1.733   8.925   8.853
  110GLOH   H08 9725   1.772   9.080   8.775
  110GLOH    C2 9726   1.562   9.027   8.763
  110GLOH   H04 9727   1.493   8.959   8.814
  110GLOH    O2 9728   1.510   9.160   8.761
  110GLOH   H05 9729   1.542   9.200   8.843
  110GLOH    C3 9730   1.575   8.983   8.616
  110GLOH   H06 9731   1.474   8.975   8.573
  110GLOH   H07 9732   1.623   8.885   8.610
  110GLOH    O3 9733   1.655   9.075   8.542
  110GLOH   H01 9734   1.622   9.163   8.568
  111GLOH   H03 9735   2.640   0.239   0.592
  111GLOH    O1 9736   2.618   0.152   0.553
  111GLOH    C1 9737   2.592   0.173   0.413
  111GLOH   H02 9738   2.521   0.256   0.397
  111GLOH   H08 9739   2.546   0.081   0.377
  111GLOH    C2 9740   2.724   0.199   0.339
  111GLOH   H04 9741   2.761   0.300   0.363
  111GLOH    O2 9742   2.820   0.100   0.379
  111GLOH   H05 9743   2.798   0.081   0.472
  111GLOH    C3 9744   2.709   0.185   0.187
  111GLOH   H06 9745   2.803   0.214   0.139
  111GLOH   H07 9746   2.630   0.252   0.150
  111GLOH    O3 9747   2.673   0.052   0.151
  111GLOH   H01 9748   2.732  -0.005   0.204
  112GLOH   H03 9749   2.307   4.678   3.897
  112GLOH    O1 9750   2.248   4.740   3.850
  112GLOH    C1 9751   2.324   4.800   3.744
  112GLOH   H02 9752   2.420   4.839   3.780
  112GLOH   H08 9753   2.264   4.884   3.708
  112GLOH    C2 9754   2.346   4.699   3.630
  112GLOH   H04 9755   2.420   4.624   3.661
  112GLOH    O2 9756   2.221   4.635   3.601
  112GLOH   H05 9757   2.174   4.632   3.686
  112GLOH    C3 9758   2.392   4.766   3.501
  112GLOH   H06 9759   2.415   4.688   3.426
  112GLOH   H07 9760   2.483   4.824   3.518
  112GLOH    O3 9761   2.292   4.855   3.450
  112GLOH   H01 9762   2.209   4.805   3.457
  113GLOH   H03 9763   3.782   7.871   6.016
  113GLOH    O1 9764   3.877   7.851   6.024
  113GLOH    C1 9765   3.927   7.922   6.139
  113GLOH   H02 9766   3.898   8.028   6.137
  113GLOH   H08 9767   4.036   7.916   6.132
  113GLOH    C2 9768   3.879   7.854   6.267
  113GLOH   H04 9769   3.772   7.875   6.283
  113GLOH    O2 9770   3.901   7.713   6.256
  113GLOH   H05 9771   3.889   7.693   6.162
  113GLOH    C3 9772   3.957   7.900   6.391
  113GLOH   H06 9773   3.912   7.856   6.481
  113GLOH   H07 9774   3.952   8.009   6.401
  113GLOH    O3 9775   4.095   7.864   6.381
  113GLOH   H01 9776   4.094   7.771   6.350
  114GLOH   H03 9777   6.372   3.560   7.648
  114GLOH    O1 9778   6.375   3.645   7.600
  114GLOH    C1 9779   6.431   3.743   7.689
  114GLOH   H02 9780   6.381   3.742   7.787
  114GLOH   H08 9781   6.412   3.840   7.642
  114GLOH    C2 9782   6.581   3.721   7.704
  114GLOH   H04 9783   6.600   3.633   7.766
  114GLOH    O2 9784   6.639   3.703   7.574
  114GLOH   H05 9785   6.569   3.659   7.522
  114GLOH    C3 9786   6.652   3.842   7.766
  114GLOH   H06 9787   6.758   3.816   7.783
  114GLOH   H07 9788   6.608   3.867   7.862
  114GLOH    O3 9789   6.642   3.957   7.681
  114GLOH   H01 9790   6.662   3.924   7.592
  115GLOH   H03 9791   4.256   2.688   7.983
  115GLOH    O1 9792   4.231   2.782   7.982
  115GLOH    C1 9793   4.216   2.821   7.845
  115GLOH   H02 9794   4.302   2.791   7.784
  115GLOH   H08 9795   4.211   2.930   7.846
  115GLOH    C2 9796   4.086   2.763   7.787
  115GLOH   H04 9797   4.098   2.655   7.770
  115GLOH    O2 9798   3.979   2.788   7.879
  115GLOH   H05 9799   4.021   2.784   7.967
  115GLOH    C3 9800   4.046   2.831   7.655
  115GLOH   H06 9801   3.958   2.778   7.614
  115GLOH   H07 9802   4.126   2.824   7.582
  115GLOH    O3 9803   4.016   2.969   7.675
  115GLOH   H01 9804   3.961   2.971   7.755
  116GLOH   H03 9805   2.347   1.966   9.062
  116GLOH    O1 9806   2.271   1.994   9.116
  116GLOH    C1 9807   2.281   2.136   9.134
  116GLOH   H02 9808   2.381   2.166   9.168
  116GLOH   H08 9809   2.209   2.161   9.213
  116GLOH    C2 9810   2.244   2.208   9.004
  116GLOH   H04 9811   2.325   2.197   8.931
  116GLOH    O2 9812   2.122   2.152   8.953
  116GLOH   H05 9813   2.125   2.058   8.980
  116GLOH    C3 9814   2.216   2.357   9.026
  116GLOH   H06 9815   2.200   2.406   8.928
  116GLOH   H07 9816   2.302   2.406   9.073
  116GLOH    O3 9817   2.103   2.377   9.111
  116GLOH   H01 9818   2.036   2.315   9.078
  117GLOH   H03 9819   6.605   7.041   3.461
  117GLOH    O1 9820   6.540   7.016   3.393
  117GLOH    C1 9821   6.547   7.113   3.287
  117GLOH   H02 9822   6.543   7.216   3.326
  117GLOH   H08 9823   6.459   7.095   3.225
  117GLOH    C2 9824   6.675   7.092   3.205
  117GLOH   H04 9825   6.762   7.126   3.263
  117GLOH    O2 9826   6.687   6.952   3.174
  117GLOH   H05 9827   6.648   6.906   3.251
  117GLOH    C3 9828   6.671   7.166   3.071
  117GLOH   H06 9829   6.769   7.155   3.021
  117GLOH   H07 9830   6.653   7.272   3.087
  117GLOH    O3 9831   6.566   7.116   2.988
  117GLOH   H01 9832   6.573   7.019   2.995
  118GLOH   H03 9833   7.228   6.789   3.918
  118GLOH    O1 9834   7.281   6.852   3.970
  118GLOH    C1 9835   7.391   6.895   3.889
  118GLOH   H02 9836   7.444   6.809   3.844
  118GLOH   H08 9837   7.460   6.947   3.956
  118GLOH    C2 9838   7.342   6.991   3.780
  118GLOH   H04 9839   7.288   6.935   3.703
  118GLOH    O2 9840   7.257   7.089   3.840
  118GLOH   H05 9841   7.213   7.043   3.913
  118GLOH    C3 9842   7.457   7.068   3.714
  118GLOH   H06 9843   7.417   7.128   3.631
  118GLOH   H07 9844   7.532   6.999   3.674
  118GLOH    O3 9845   7.524   7.153   3.809
  118GLOH   H01 9846   7.452   7.196   3.858
  119GLOH   H03 9847   7.687   4.738   1.980
  119GLOH    O1 9848   7.641   4.698   2.056
  119GLOH    C1 9849   7.737   4.624   2.132
  119GLOH   H02 9850   7.796   4.556   2.067
  119GLOH   H08 9851   7.680   4.563   2.202
  119GLOH    C2 9852   7.829   4.719   2.209
  119GLOH   H04 9853   7.899   4.768   2.139
  119GLOH    O2 9854   7.748   4.818   2.274
  119GLOH   H05 9855   7.672   4.831   2.215
  119GLOH    C3 9856   7.909   4.649   2.318
  119GLOH   H06 9857   7.980   4.720   2.363
  119GLOH   H07 9858   7.966   4.566   2.276
  119GLOH    O3 9859   7.822   4.595   2.419
  119GLOH   H01 9860   7.758   4.666   2.437
  120ACOH    H4 9861   1.269   1.111   0.221
  120ACOH    O2 9862   1.313   1.189   0.258
  120ACOH    C2 9863   1.391   1.237   0.157
  120ACOH    O1 9864   1.386   1.198   0.042
  120ACOH    C1 9865   1.482   1.335   0.205
  120ACOH    H1 9866   1.584   1.296   0.198
  120ACOH    H2 9867   1.467   1.350   0.312
  120ACOH    H3 9868   1.481   1.428   0.147
  121ACOH    H4 9869   1.588   0.993   1.688
  121ACOH    O2 9870   1.591   0.951   1.776
  121ACOH    C2 9871   1.479   0.879   1.795
  121ACOH    O1 9872   1.388   0.862   1.716
  121ACOH    C1 9873   1.473   0.818   1.930
  121ACOH    H1 9874   1.443   0.898   1.997
  121ACOH    H2 9875   1.566   0.779   1.971
  121ACOH    H3 9876   1.393   0.744   1.930
  122ACOH    H4 9877   0.711   0.207   1.657
  122ACOH    O2 9878   0.681   0.292   1.621
  122ACOH    C2 9879   0.652   0.273   1.492
  122ACOH    O1 9880   0.644   0.166   1.430
  122ACOH    C1 9881   0.655   0.397   1.413
  122ACOH    H1 9882   0.628   0.376   1.310
  122ACOH    H2 9883   0.758   0.434   1.414
  122ACOH    H3 9884   0.596   0.472   1.465
  123ACOH    H4 9885   1.296   1.590   0.129
  123ACOH    O2 9886   1.343   1.634   0.202
  123ACOH    C2 9887   1.296   1.561   0.307
  123ACOH    O1 9888   1.179   1.529   0.321
  123ACOH    C1 9889   1.375   1.594   0.426
  123ACOH    H1 9890   1.476   1.623   0.398
  123ACOH    H2 9891   1.389   1.512   0.496
  123ACOH    H3 9892   1.316   1.666   0.483
  124ACOH    H4 9893   1.269   1.111   2.066
  124ACOH    O2 9894   1.313   1.189   2.103
  124ACOH    C2 9895   1.391   1.237   2.002
  124ACOH    O1 9896   1.386   1.198   1.887
  124ACOH    C1 9897   1.482   1.335   2.050
  124ACOH    H1 9898   1.584   1.296   2.043
  124ACOH    H2 9899   1.467   1.350   2.157
  124ACOH    H3 9900   1.481   1.428   1.992
  125ACOH    H4 9901   1.588   0.993   3.533
  125ACOH    O2 9902   1.591   0.951   3.621
  125ACOH    C2 9903   1.479   0.879   3.640
  125ACOH    O1 9904   1.388   0.862   3.561
  125ACOH    C1 9905   1.473   0.818   3.775
  125ACOH    H1 9906   1.443   0.898   3.842
  125ACOH    H2 9907   1.566   0.779   3.816
  125ACOH    H3 9908   1.393   0.744   3.775
  126ACOH    H4 9909   0.711   0.207   3.502
  126ACOH    O2 9910   0.681   0.292   3.466
  126ACOH    C2 9911   0.652   0.273   3.337
  126ACOH    O1 9912   0.644   0.166   3.275
  126ACOH    C1 9913   0.655   0.397   3.258
  126ACOH    H1 9914   0.628   0.376   3.155
  126ACOH    H2 9915   0.758   0.434   3.259
  126ACOH    H3 9916   0.596   0.472   3.310
  127ACOH    H4 9917   1.296   1.590   1.974
  127ACOH    O2 9918   1.343   1.634   2.047
  127ACOH    C2 9919   1.296   1.561   2.152
  127ACOH    O1 9920   1.179   1.529   2.166
  127ACOH    C1 9921   1.375   1.594   2.271
  127ACOH    H1 9922   1.476   1.623   2.243
  127ACOH    H2 9923   1.389   1.512   2.341
  127ACOH    H3 9924   1.316   1.666   2.328
  128ACOH    H4 9925   1.269   1.111   3.912
  128ACOH    O2 9926   1.313   1.189   3.949
  128ACOH    C2 9927   1.391   1.237   3.848
  128ACOH    O1 9928   1.386   1.198   3.733
  128ACOH    C1 9929   1.482   1.335   3.896
  128ACOH    H1 9930   1.584   1.296   3.889
  128ACOH    H2 9931   1.467   1.350   4.003
  128ACOH    H3 9932   1.481   1.428   3.838
  129ACOH    H4 9933   1.588   0.993   5.379
  129ACOH    O2 9934   1.591   0.951   5.467
  129ACOH    C2 9935   1.479   0.879   5.486
  129ACOH    O1 9936   1.388   0.862   5.407
  129ACOH    C1 9937   1.473   0.818   5.621
  129ACOH    H1 9938   1.443   0.898   5.688
  129ACOH    H2 9939   1.566   0.779   5.662
  129ACOH    H3 9940   1.393   0.744   5.621
  130ACOH    H4 9941   0.711   0.207   5.348
  130ACOH    O2 9942   0.681   0.292   5.312
  130ACOH    C2 9943   0.652   0.273   5.183
  130ACOH    O1 9944   0.644   0.166   5.121
  130ACOH    C1 9945   0.655   0.397   5.104
  130ACOH    H1 9946   0.628   0.376   5.001
  130ACOH    H2 9947   0.758   0.434   5.105
  130ACOH    H3 9948   0.596   0.472   5.156
  131ACOH    H4 9949   1.296   1.590   3.820
  131ACOH    O2 9950   1.343   1.634   3.893
  131ACOH    C2 9951   1.296   1.561   3.998
  131ACOH    O1 9952   1.179   1.529   4.012
  131ACOH    C1 9953   1.375   1.594   4.117
  131ACOH    H1 9954   1.476   1.623   4.089
  131ACOH    H2 9955   1.389   1.512   4.187
  131ACOH    H3 9956   1.316   1.666   4.174
  132ACOH    H4 9957   1.269   1.111   5.757
  132ACOH    O2 9958   1.313   1.189   5.794
  132ACOH    C2 9959   1.391   1.237   5.693
  132ACOH    O1 9960   1.386   1.198   5.578
  132ACOH    C1 9961   1.482   1.335   5.741
  132ACOH    H1 9962   1.584   1.296   5.734
  132ACOH    H2 9963   1.467   1.350   5.848
  132ACOH    H3 9964   1.481   1.428   5.683
  133ACOH    H4 9965   1.588   0.993   7.224
  133ACOH    O2 9966   1.591   0.951   7.312
  133ACOH    C2 9967   1.479   0.879   7.331
  133ACOH    O1 9968   1.388   0.862   7.252
  133ACOH    C1 9969   1.473   0.818   7.466
  133ACOH    H1 9970   1.443   0.898   7.533
  133ACOH    H2 9971   1.566   0.779   7.507
  133ACOH    H3 9972   1.393   0.744   7.466
  134ACOH    H4 9973   0.711   0.207   7.193
  134ACOH    O2 9974   0.681   0.292   7.157
  134ACOH    C2 9975   0.652   0.273   7.028
  134ACOH    O1 9976   0.644   0.166   6.966
  134ACOH    C1 9977   0.655   0.397   6.949
  134ACOH    H1 9978   0.628   0.376   6.846
  134ACOH    H2 9979   0.758   0.434   6.950
  134ACOH    H3 9980   0.596   0.472   7.001
  135ACOH    H4 9981   1.269   1.111   7.603
  135ACOH    O2 9982   1.313   1.189   7.640
  135ACOH    C2 9983   1.391   1.237   7.539
  135ACOH    O1 9984   1.386   1.198   7.424
  135ACOH    C1 9985   1.482   1.335   7.587
  135ACOH    H1 9986   1.584   1.296   7.580
  135ACOH    H2 9987   1.467   1.350   7.694
  135ACOH    H3 9988   1.481   1.428   7.529
  136ACOH    H4 9989   1.588   0.993   9.070
  136ACOH    O2 9990   1.591   0.951   9.158
  136ACOH    C2 9991   1.479   0.879   9.177
  136ACOH    O1 9992   1.388   0.862   9.098
  136ACOH    C1 9993   1.473   0.818   9.312
  136ACOH    H1 9994   1.443   0.898   9.379
  136ACOH    H2 9995   1.566   0.779   9.353
  136ACOH    H3 9996   1.393   0.744   9.312
  137ACOH    H4 9997   0.711   0.207   9.039
  137ACOH    O2 9998   0.681   0.292   9.003
  137ACOH    C2 9999   0.652   0.273   8.874
  137ACOH    O110000   0.644   0.166   8.812
  137ACOH    C110001   0.655   0.397   8.795
  137ACOH    H110002   0.628   0.376   8.692
  137ACOH    H210003   0.758   0.434   8.796
  137ACOH    H310004   0.596   0.472   8.847
  138ACOH    H410005   1.296   1.590   7.511
  138ACOH    O210006   1.343   1.634   7.584
  138ACOH    C210007   1.296   1.561   7.689
  138ACOH    O110008   1.179   1.529   7.703
  138ACOH    C110009   1.375   1.594   7.808
  138ACOH    H110010   1.476   1.623   7.780
  138ACOH    H210011   1.389   1.512   7.878
  138ACOH    H310012   1.316   1.666   7.865
  139ACOH    H410013   1.269   1.111   9.448
  139ACOH    O210014   1.313   1.189   9.485
  139ACOH    C210015   1.391   1.237   9.384
  139ACOH    O110016   1.386   1.198   9.269
  139ACOH    C110017   1.482   1.335   9.432
  139ACOH    H110018   1.584   1.296   9.425
  139ACOH    H210019   1.467   1.350   9.539
  139ACOH    H310020   1.481   1.428   9.374
  140ACOH    H410021   1.296   1.590   9.356
  140ACOH    O210022   1.343   1.634   9.429
  140ACOH    C210023   1.296   1.561   9.534
  140ACOH    O110024   1.179   1.529   9.548
  140ACOH    C110025   1.375   1.594   9.653
  140ACOH    H110026   1.476   1.623   9.625
  140ACOH    H210027   1.389   1.512   9.723
  140ACOH    H310028   1.316   1.666   9.710
  141ACOH    H410029   1.269   2.956   0.221
  141ACOH    O210030   1.313   3.034   0.258
  141ACOH    C210031   1.391   3.082   0.157
  141ACOH    O110032   1.386   3.043   0.042
  141ACOH    C110033   1.482   3.180   0.205
  141ACOH    H110034   1.584   3.141   0.198
  141ACOH    H210035   1.467   3.195   0.312
  141ACOH    H310036   1.481   3.273   0.147
  142ACOH    H410037   0.711   2.052   1.657
  142ACOH    O210038   0.681   2.137   1.621
  142ACOH    C210039   0.652   2.118   1.492
  142ACOH    O110040   0.644   2.011   1.430
  142ACOH    C110041   0.655   2.242   1.413
  142ACOH    H110042   0.628   2.221   1.310
  142ACOH    H210043   0.758   2.279   1.414
  142ACOH    H310044   0.596   2.317   1.465
  143ACOH    H410045   1.296   3.435   0.129
  143ACOH    O210046   1.343   3.479   0.202
  143ACOH    C210047   1.296   3.406   0.307
  143ACOH    O110048   1.179   3.374   0.321
  143ACOH    C110049   1.375   3.439   0.426
  143ACOH    H110050   1.476   3.468   0.398
  143ACOH    H210051   1.389   3.357   0.496
  143ACOH    H310052   1.316   3.511   0.483
  144ACOH    H410053   1.588   2.838   3.533
  144ACOH    O210054   1.591   2.796   3.621
  144ACOH    C210055   1.479   2.724   3.640
  144ACOH    O110056   1.388   2.707   3.561
  144ACOH    C110057   1.473   2.663   3.775
  144ACOH    H110058   1.443   2.743   3.842
  144ACOH    H210059   1.566   2.624   3.816
  144ACOH    H310060   1.393   2.589   3.775
  145ACOH    H410061   0.711   2.052   3.502
  145ACOH    O210062   0.681   2.137   3.466
  145ACOH    C210063   0.652   2.118   3.337
  145ACOH    O110064   0.644   2.011   3.275
  145ACOH    C110065   0.655   2.242   3.258
  145ACOH    H110066   0.628   2.221   3.155
  145ACOH    H210067   0.758   2.279   3.259
  145ACOH    H310068   0.596   2.317   3.310
  146ACOH    H410069   1.269   2.956   3.912
  146ACOH    O210070   1.313   3.034   3.949
  146ACOH    C210071   1.391   3.082   3.848
  146ACOH    O110072   1.386   3.043   3.733
  146ACOH    C110073   1.482   3.180   3.896
  146ACOH    H110074   1.584   3.141   3.889
  146ACOH    H210075   1.467   3.195   4.003
  146ACOH    H310076   1.481   3.273   3.838
  147ACOH    H410077   1.296   3.435   3.820
  147ACOH    O210078   1.343   3.479   3.893
  147ACOH    C210079   1.296   3.406   3.998
  147ACOH    O110080   1.179   3.374   4.012
  147ACOH    C110081   1.375   3.439   4.117
  147ACOH    H110082   1.476   3.468   4.089
  147ACOH    H210083   1.389   3.357   4.187
  147ACOH    H310084   1.316   3.511   4.174
  148ACOH    H410085   1.588   2.838   7.224
  148ACOH    O210086   1.591   2.796   7.312
  148ACOH    C210087   1.479   2.724   7.331
  148ACOH    O110088   1.388   2.707   7.252
  148ACOH    C110089   1.473   2.663   7.466
  148ACOH    H110090   1.443   2.743   7.533
  148ACOH    H210091   1.566   2.624   7.507
  148ACOH    H310092   1.393   2.589   7.466
  149ACOH    H410093   0.711   2.052   7.193
  149ACOH    O210094   0.681   2.137   7.157
  149ACOH    C210095   0.652   2.118   7.028
  149ACOH    O110096   0.644   2.011   6.966
  149ACOH    C110097   0.655   2.242   6.949
  149ACOH    H110098   0.628   2.221   6.846
  149ACOH    H210099   0.758   2.279   6.950
  149ACOH    H310100   0.596   2.317   7.001
  150ACOH    H410101   1.269   2.956   7.603
  150ACOH    O210102   1.313   3.034   7.640
  150ACOH    C210103   1.391   3.082   7.539
  150ACOH    O110104   1.386   3.043   7.424
  150ACOH    C110105   1.482   3.180   7.587
  150ACOH    H110106   1.584   3.141   7.580
  150ACOH    H210107   1.467   3.195   7.694
  150ACOH    H310108   1.481   3.273   7.529
  151ACOH    H410109   1.588   2.838   9.070
  151ACOH    O210110   1.591   2.796   9.158
  151ACOH    C210111   1.479   2.724   9.177
  151ACOH    O110112   1.388   2.707   9.098
  151ACOH    C110113   1.473   2.663   9.312
  151ACOH    H110114   1.443   2.743   9.379
  151ACOH    H210115   1.566   2.624   9.353
  151ACOH    H310116   1.393   2.589   9.312
  152ACOH    H410117   0.711   2.052   9.039
  152ACOH    O210118   0.681   2.137   9.003
  152ACOH    C210119   0.652   2.118   8.874
  152ACOH    O110120   0.644   2.011   8.812
  152ACOH    C110121   0.655   2.242   8.795
  152ACOH    H110122   0.628   2.221   8.692
  152ACOH    H210123   0.758   2.279   8.796
  152ACOH    H310124   0.596   2.317   8.847
  153ACOH    H410125   1.296   3.435   7.511
  153ACOH    O210126   1.343   3.479   7.584
  153ACOH    C210127   1.296   3.406   7.689
  153ACOH    O110128   1.179   3.374   7.703
  153ACOH    C110129   1.375   3.439   7.808
  153ACOH    H110130   1.476   3.468   7.780
  153ACOH    H210131   1.389   3.357   7.878
  153ACOH    H310132   1.316   3.511   7.865
  154ACOH    H410133   1.269   2.956   9.448
  154ACOH    O210134   1.313   3.034   9.485
  154ACOH    C210135   1.391   3.082   9.384
  154ACOH    O110136   1.386   3.043   9.269
  154ACOH    C110137   1.482   3.180   9.432
  154ACOH    H110138   1.584   3.141   9.425
  154ACOH    H210139   1.467   3.195   9.539
  154ACOH    H310140   1.481   3.273   9.374
  155ACOH    H410141   1.296   3.435   9.356
  155ACOH    O210142   1.343   3.479   9.429
  155ACOH    C210143   1.296   3.406   9.534
  155ACOH    O110144   1.179   3.374   9.548
  155ACOH    C110145   1.375   3.439   9.653
  155ACOH    H110146   1.476   3.468   9.625
  155ACOH    H210147   1.389   3.357   9.723
  155ACOH    H310148   1.316   3.511   9.710
  156ACOH    H410149   1.269   4.802   0.221
  156ACOH    O210150   1.313   4.880   0.258
  156ACOH    C210151   1.391   4.928   0.157
  156ACOH    O110152   1.386   4.889   0.042
  156ACOH    C110153   1.482   5.026   0.205
  156ACOH    H110154   1.584   4.987   0.198
  156ACOH    H210155   1.467   5.041   0.312
  156ACOH    H310156   1.481   5.119   0.147
  157ACOH    H410157   1.588   4.684   1.688
  157ACOH    O210158   1.591   4.642   1.776
  157ACOH    C210159   1.479   4.570   1.795
  157ACOH    O110160   1.388   4.553   1.716
  157ACOH    C110161   1.473   4.509   1.930
  157ACOH    H110162   1.443   4.589   1.997
  157ACOH    H210163   1.566   4.470   1.971
  157ACOH    H310164   1.393   4.435   1.930
  158ACOH    H410165   0.711   3.898   1.657
  158ACOH    O210166   0.681   3.983   1.621
  158ACOH    C210167   0.652   3.964   1.492
  158ACOH    O110168   0.644   3.857   1.430
  158ACOH    C110169   0.655   4.088   1.413
  158ACOH    H110170   0.628   4.067   1.310
  158ACOH    H210171   0.758   4.125   1.414
  158ACOH    H310172   0.596   4.163   1.465
  159ACOH    H410173   1.296   5.281   0.129
  159ACOH    O210174   1.343   5.325   0.202
  159ACOH    C210175   1.296   5.252   0.307
  159ACOH    O110176   1.179   5.220   0.321
  159ACOH    C110177   1.375   5.285   0.426
  159ACOH    H110178   1.476   5.314   0.398
  159ACOH    H210179   1.389   5.203   0.496
  159ACOH    H310180   1.316   5.357   0.483
  160ACOH    H410181   1.269   4.802   2.066
  160ACOH    O210182   1.313   4.880   2.103
  160ACOH    C210183   1.391   4.928   2.002
  160ACOH    O110184   1.386   4.889   1.887
  160ACOH    C110185   1.482   5.026   2.050
  160ACOH    H110186   1.584   4.987   2.043
  160ACOH    H210187   1.467   5.041   2.157
  160ACOH    H310188   1.481   5.119   1.992
  161ACOH    H410189   0.711   3.898   3.502
  161ACOH    O210190   0.681   3.983   3.466
  161ACOH    C210191   0.652   3.964   3.337
  161ACOH    O110192   0.644   3.857   3.275
  161ACOH    C110193   0.655   4.088   3.258
  161ACOH    H110194   0.628   4.067   3.155
  161ACOH    H210195   0.758   4.125   3.259
  161ACOH    H310196   0.596   4.163   3.310
  162ACOH    H410197   1.296   5.281   1.974
  162ACOH    O210198   1.343   5.325   2.047
  162ACOH    C210199   1.296   5.252   2.152
  162ACOH    O110200   1.179   5.220   2.166
  162ACOH    C110201   1.375   5.285   2.271
  162ACOH    H110202   1.476   5.314   2.243
  162ACOH    H210203   1.389   5.203   2.341
  162ACOH    H310204   1.316   5.357   2.328
  163ACOH    H410205   1.269   4.802   3.912
  163ACOH    O210206   1.313   4.880   3.949
  163ACOH    C210207   1.391   4.928   3.848
  163ACOH    O110208   1.386   4.889   3.733
  163ACOH    C110209   1.482   5.026   3.896
  163ACOH    H110210   1.584   4.987   3.889
  163ACOH    H210211   1.467   5.041   4.003
  163ACOH    H310212   1.481   5.119   3.838
  164ACOH    H410213   1.588   4.684   5.379
  164ACOH    O210214   1.591   4.642   5.467
  164ACOH    C210215   1.479   4.570   5.486
  164ACOH    O110216   1.388   4.553   5.407
  164ACOH    C110217   1.473   4.509   5.621
  164ACOH    H110218   1.443   4.589   5.688
  164ACOH    H210219   1.566   4.470   5.662
  164ACOH    H310220   1.393   4.435   5.621
  165ACOH    H410221   0.711   3.898   5.348
  165ACOH    O210222   0.681   3.983   5.312
  165ACOH    C210223   0.652   3.964   5.183
  165ACOH    O110224   0.644   3.857   5.121
  165ACOH    C110225   0.655   4.088   5.104
  165ACOH    H110226   0.628   4.067   5.001
  165ACOH    H210227   0.758   4.125   5.105
  165ACOH    H310228   0.596   4.163   5.156
  166ACOH    H410229   1.269   4.802   5.757
  166ACOH    O210230   1.313   4.880   5.794
  166ACOH    C210231   1.391   4.928   5.693
  166ACOH    O110232   1.386   4.889   5.578
  166ACOH    C110233   1.482   5.026   5.741
  166ACOH    H110234   1.584   4.987   5.734
  166ACOH    H210235   1.467   5.041   5.848
  166ACOH    H310236   1.481   5.119   5.683
  167ACOH    H410237   1.588   4.684   7.224
  167ACOH    O210238   1.591   4.642   7.312
  167ACOH    C210239   1.479   4.570   7.331
  167ACOH    O110240   1.388   4.553   7.252
  167ACOH    C110241   1.473   4.509   7.466
  167ACOH    H110242   1.443   4.589   7.533
  167ACOH    H210243   1.566   4.470   7.507
  167ACOH    H310244   1.393   4.435   7.466
  168ACOH    H410245   0.711   3.898   7.193
  168ACOH    O210246   0.681   3.983   7.157
  168ACOH    C210247   0.652   3.964   7.028
  168ACOH    O110248   0.644   3.857   6.966
  168ACOH    C110249   0.655   4.088   6.949
  168ACOH    H110250   0.628   4.067   6.846
  168ACOH    H210251   0.758   4.125   6.950
  168ACOH    H310252   0.596   4.163   7.001
  169ACOH    H410253   1.296   5.281   5.665
  169ACOH    O210254   1.343   5.325   5.738
  169ACOH    C210255   1.296   5.252   5.843
  169ACOH    O110256   1.179   5.220   5.857
  169ACOH    C110257   1.375   5.285   5.962
  169ACOH    H110258   1.476   5.314   5.934
  169ACOH    H210259   1.389   5.203   6.032
  169ACOH    H310260   1.316   5.357   6.019
  170ACOH    H410261   1.269   4.802   7.603
  170ACOH    O210262   1.313   4.880   7.640
  170ACOH    C210263   1.391   4.928   7.539
  170ACOH    O110264   1.386   4.889   7.424
  170ACOH    C110265   1.482   5.026   7.587
  170ACOH    H110266   1.584   4.987   7.580
  170ACOH    H210267   1.467   5.041   7.694
  170ACOH    H310268   1.481   5.119   7.529
  171ACOH    H410269   1.588   4.684   9.070
  171ACOH    O210270   1.591   4.642   9.158
  171ACOH    C210271   1.479   4.570   9.177
  171ACOH    O110272   1.388   4.553   9.098
  171ACOH    C110273   1.473   4.509   9.312
  171ACOH    H110274   1.443   4.589   9.379
  171ACOH    H210275   1.566   4.470   9.353
  171ACOH    H310276   1.393   4.435   9.312
  172ACOH    H410277   0.711   3.898   9.039
  172ACOH    O210278   0.681   3.983   9.003
  172ACOH    C210279   0.652   3.964   8.874
  172ACOH    O110280   0.644   3.857   8.812
  172ACOH    C110281   0.655   4.088   8.795
  172ACOH    H110282   0.628   4.067   8.692
  172ACOH    H210283   0.758   4.125   8.796
  172ACOH    H310284   0.596   4.163   8.847
  173ACOH    H410285   1.296   5.281   7.511
  173ACOH    O210286   1.343   5.325   7.584
  173ACOH    C210287   1.296   5.252   7.689
  173ACOH    O110288   1.179   5.220   7.703
  173ACOH    C110289   1.375   5.285   7.808
  173ACOH    H110290   1.476   5.314   7.780
  173ACOH    H210291   1.389   5.203   7.878
  173ACOH    H310292   1.316   5.357   7.865
  174ACOH    H410293   1.269   4.802   9.448
  174ACOH    O210294   1.313   4.880   9.485
  174ACOH    C210295   1.391   4.928   9.384
  174ACOH    O110296   1.386   4.889   9.269
  174ACOH    C110297   1.482   5.026   9.432
  174ACOH    H110298   1.584   4.987   9.425
  174ACOH    H210299   1.467   5.041   9.539
  174ACOH    H310300   1.481   5.119   9.374
  175ACOH    H410301   1.296   5.281   9.356
  175ACOH    O210302   1.343   5.325   9.429
  175ACOH    C210303   1.296   5.252   9.534
  175ACOH    O110304   1.179   5.220   9.548
  175ACOH    C110305   1.375   5.285   9.653
  175ACOH    H110306   1.476   5.314   9.625
  175ACOH    H210307   1.389   5.203   9.723
  175ACOH    H310308   1.316   5.357   9.710
  176ACOH    H410309   1.269   6.647   0.221
  176ACOH    O210310   1.313   6.725   0.258
  176ACOH    C210311   1.391   6.773   0.157
  176ACOH    O110312   1.386   6.734   0.042
  176ACOH    C110313   1.482   6.871   0.205
  176ACOH    H110314   1.584   6.832   0.198
  176ACOH    H210315   1.467   6.886   0.312
  176ACOH    H310316   1.481   6.964   0.147
  177ACOH    H410317   1.588   6.529   1.688
  177ACOH    O210318   1.591   6.487   1.776
  177ACOH    C210319   1.479   6.415   1.795
  177ACOH    O110320   1.388   6.398   1.716
  177ACOH    C110321   1.473   6.354   1.930
  177ACOH    H110322   1.443   6.434   1.997
  177ACOH    H210323   1.566   6.315   1.971
  177ACOH    H310324   1.393   6.280   1.930
  178ACOH    H410325   0.711   5.743   1.657
  178ACOH    O210326   0.681   5.828   1.621
  178ACOH    C210327   0.652   5.809   1.492
  178ACOH    O110328   0.644   5.702   1.430
  178ACOH    C110329   0.655   5.933   1.413
  178ACOH    H110330   0.628   5.912   1.310
  178ACOH    H210331   0.758   5.970   1.414
  178ACOH    H310332   0.596   6.008   1.465
  179ACOH    H410333   1.296   7.126   0.129
  179ACOH    O210334   1.343   7.170   0.202
  179ACOH    C210335   1.296   7.097   0.307
  179ACOH    O110336   1.179   7.065   0.321
  179ACOH    C110337   1.375   7.130   0.426
  179ACOH    H110338   1.476   7.159   0.398
  179ACOH    H210339   1.389   7.048   0.496
  179ACOH    H310340   1.316   7.202   0.483
  180ACOH    H410341   1.588   6.529   3.533
  180ACOH    O210342   1.591   6.487   3.621
  180ACOH    C210343   1.479   6.415   3.640
  180ACOH    O110344   1.388   6.398   3.561
  180ACOH    C110345   1.473   6.354   3.775
  180ACOH    H110346   1.443   6.434   3.842
  180ACOH    H210347   1.566   6.315   3.816
  180ACOH    H310348   1.393   6.280   3.775
  181ACOH    H410349   0.711   5.743   3.502
  181ACOH    O210350   0.681   5.828   3.466
  181ACOH    C210351   0.652   5.809   3.337
  181ACOH    O110352   0.644   5.702   3.275
  181ACOH    C110353   0.655   5.933   3.258
  181ACOH    H110354   0.628   5.912   3.155
  181ACOH    H210355   0.758   5.970   3.259
  181ACOH    H310356   0.596   6.008   3.310
  182ACOH    H410357   1.269   6.647   3.912
  182ACOH    O210358   1.313   6.725   3.949
  182ACOH    C210359   1.391   6.773   3.848
  182ACOH    O110360   1.386   6.734   3.733
  182ACOH    C110361   1.482   6.871   3.896
  182ACOH    H110362   1.584   6.832   3.889
  182ACOH    H210363   1.467   6.886   4.003
  182ACOH    H310364   1.481   6.964   3.838
  183ACOH    H410365   0.711   5.743   5.348
  183ACOH    O210366   0.681   5.828   5.312
  183ACOH    C210367   0.652   5.809   5.183
  183ACOH    O110368   0.644   5.702   5.121
  183ACOH    C110369   0.655   5.933   5.104
  183ACOH    H110370   0.628   5.912   5.001
  183ACOH    H210371   0.758   5.970   5.105
  183ACOH    H310372   0.596   6.008   5.156
  184ACOH    H410373   1.296   7.126   3.820
  184ACOH    O210374   1.343   7.170   3.893
  184ACOH    C210375   1.296   7.097   3.998
  184ACOH    O110376   1.179   7.065   4.012
  184ACOH    C110377   1.375   7.130   4.117
  184ACOH    H110378   1.476   7.159   4.089
  184ACOH    H210379   1.389   7.048   4.187
  184ACOH    H310380   1.316   7.202   4.174
  185ACOH    H410381   0.711   5.743   7.193
  185ACOH    O210382   0.681   5.828   7.157
  185ACOH    C210383   0.652   5.809   7.028
  185ACOH    O110384   0.644   5.702   6.966
  185ACOH    C110385   0.655   5.933   6.949
  185ACOH    H110386   0.628   5.912   6.846
  185ACOH    H210387   0.758   5.970   6.950
  185ACOH    H310388   0.596   6.008   7.001
  186ACOH    H410389   1.588   6.529   9.070
  186ACOH    O210390   1.591   6.487   9.158
  186ACOH    C210391   1.479   6.415   9.177
  186ACOH    O110392   1.388   6.398   9.098
  186ACOH    C110393   1.473   6.354   9.312
  186ACOH    H110394   1.443   6.434   9.379
  186ACOH    H210395   1.566   6.315   9.353
  186ACOH    H310396   1.393   6.280   9.312
  187ACOH    H410397   0.711   5.743   9.039
  187ACOH    O210398   0.681   5.828   9.003
  187ACOH    C210399   0.652   5.809   8.874
  187ACOH    O110400   0.644   5.702   8.812
  187ACOH    C110401   0.655   5.933   8.795
  187ACOH    H110402   0.628   5.912   8.692
  187ACOH    H210403   0.758   5.970   8.796
  187ACOH    H310404   0.596   6.008   8.847
  188ACOH    H410405   1.296   7.126   7.511
  188ACOH    O210406   1.343   7.170   7.584
  188ACOH    C210407   1.296   7.097   7.689
  188ACOH    O110408   1.179   7.065   7.703
  188ACOH    C110409   1.375   7.130   7.808
  188ACOH    H110410   1.476   7.159   7.780
  188ACOH    H210411   1.389   7.048   7.878
  188ACOH    H310412   1.316   7.202   7.865
  189ACOH    H410413   1.269   6.647   9.448
  189ACOH    O210414   1.313   6.725   9.485
  189ACOH    C210415   1.391   6.773   9.384
  189ACOH    O110416   1.386   6.734   9.269
  189ACOH    C110417   1.482   6.871   9.432
  189ACOH    H110418   1.584   6.832   9.425
  189ACOH    H210419   1.467   6.886   9.539
  189ACOH    H310420   1.481   6.964   9.374
  190ACOH    H410421   1.296   7.126   9.356
  190ACOH    O210422   1.343   7.170   9.429
  190ACOH    C210423   1.296   7.097   9.534
  190ACOH    O110424   1.179   7.065   9.548
  190ACOH    C110425   1.375   7.130   9.653
  190ACOH    H110426   1.476   7.159   9.625
  190ACOH    H210427   1.389   7.048   9.723
  190ACOH    H310428   1.316   7.202   9.710
  191ACOH    H410429   1.269   8.493   0.221
  191ACOH    O210430   1.313   8.571   0.258
  191ACOH    C210431   1.391   8.619   0.157
  191ACOH    O110432   1.386   8.580   0.042
  191ACOH    C110433   1.482   8.717   0.205
  191ACOH    H110434   1.584   8.678   0.198
  191ACOH    H210435   1.467   8.732   0.312
  191ACOH    H310436   1.481   8.810   0.147
  192ACOH    H410437   1.588   8.375   1.688
  192ACOH    O210438   1.591   8.333   1.776
  192ACOH    C210439   1.479   8.261   1.795
  192ACOH    O110440   1.388   8.244   1.716
  192ACOH    C110441   1.473   8.200   1.930
  192ACOH    H110442   1.443   8.280   1.997
  192ACOH    H210443   1.566   8.161   1.971
  192ACOH    H310444   1.393   8.126   1.930
  193ACOH    H410445   0.711   7.589   1.657
  193ACOH    O210446   0.681   7.674   1.621
  193ACOH    C210447   0.652   7.655   1.492
  193ACOH    O110448   0.644   7.548   1.430
  193ACOH    C110449   0.655   7.779   1.413
  193ACOH    H110450   0.628   7.758   1.310
  193ACOH    H210451   0.758   7.816   1.414
  193ACOH    H310452   0.596   7.854   1.465
  194ACOH    H410453   1.296   8.972   0.129
  194ACOH    O210454   1.343   9.016   0.202
  194ACOH    C210455   1.296   8.943   0.307
  194ACOH    O110456   1.179   8.911   0.321
  194ACOH    C110457   1.375   8.976   0.426
  194ACOH    H110458   1.476   9.005   0.398
  194ACOH    H210459   1.389   8.894   0.496
  194ACOH    H310460   1.316   9.048   0.483
  195ACOH    H410461   1.269   8.493   2.066
  195ACOH    O210462   1.313   8.571   2.103
  195ACOH    C210463   1.391   8.619   2.002
  195ACOH    O110464   1.386   8.580   1.887
  195ACOH    C110465   1.482   8.717   2.050
  195ACOH    H110466   1.584   8.678   2.043
  195ACOH    H210467   1.467   8.732   2.157
  195ACOH    H310468   1.481   8.810   1.992
  196ACOH    H410469   1.588   8.375   3.533
  196ACOH    O210470   1.591   8.333   3.621
  196ACOH    C210471   1.479   8.261   3.640
  196ACOH    O110472   1.388   8.244   3.561
  196ACOH    C110473   1.473   8.200   3.775
  196ACOH    H110474   1.443   8.280   3.842
  196ACOH    H210475   1.566   8.161   3.816
  196ACOH    H310476   1.393   8.126   3.775
  197ACOH    H410477   0.711   7.589   3.502
  197ACOH    O210478   0.681   7.674   3.466
  197ACOH    C210479   0.652   7.655   3.337
  197ACOH    O110480   0.644   7.548   3.275
  197ACOH    C110481   0.655   7.779   3.258
  197ACOH    H110482   0.628   7.758   3.155
  197ACOH    H210483   0.758   7.816   3.259
  197ACOH    H310484   0.596   7.854   3.310
  198ACOH    H410485   1.296   8.972   1.974
  198ACOH    O210486   1.343   9.016   2.047
  198ACOH    C210487   1.296   8.943   2.152
  198ACOH    O110488   1.179   8.911   2.166
  198ACOH    C110489   1.375   8.976   2.271
  198ACOH    H110490   1.476   9.005   2.243
  198ACOH    H210491   1.389   8.894   2.341
  198ACOH    H310492   1.316   9.048   2.328
  199ACOH    H410493   1.269   8.493   3.912
  199ACOH    O210494   1.313   8.571   3.949
  199ACOH    C210495   1.391   8.619   3.848
  199ACOH    O110496   1.386   8.580   3.733
  199ACOH    C110497   1.482   8.717   3.896
  199ACOH    H110498   1.584   8.678   3.889
  199ACOH    H210499   1.467   8.732   4.003
  199ACOH    H310500   1.481   8.810   3.838
  200ACOH    H410501   1.588   8.375   5.379
  200ACOH    O210502   1.591   8.333   5.467
  200ACOH    C210503   1.479   8.261   5.486
  200ACOH    O110504   1.388   8.244   5.407
  200ACOH    C110505   1.473   8.200   5.621
  200ACOH    H110506   1.443   8.280   5.688
  200ACOH    H210507   1.566   8.161   5.662
  200ACOH    H310508   1.393   8.126   5.621
  201ACOH    H410509   1.296   8.972   3.820
  201ACOH    O210510   1.343   9.016   3.893
  201ACOH    C210511   1.296   8.943   3.998
  201ACOH    O110512   1.179   8.911   4.012
  201ACOH    C110513   1.375   8.976   4.117
  201ACOH    H110514   1.476   9.005   4.089
  201ACOH    H210515   1.389   8.894   4.187
  201ACOH    H310516   1.316   9.048   4.174
  202ACOH    H410517   1.269   8.493   5.757
  202ACOH    O210518   1.313   8.571   5.794
  202ACOH    C210519   1.391   8.619   5.693
  202ACOH    O110520   1.386   8.580   5.578
  202ACOH    C110521   1.482   8.717   5.741
  202ACOH    H110522   1.584   8.678   5.734
  202ACOH    H210523   1.467   8.732   5.848
  202ACOH    H310524   1.481   8.810   5.683
  203ACOH    H410525   1.588   8.375   7.224
  203ACOH    O210526   1.591   8.333   7.312
  203ACOH    C210527   1.479   8.261   7.331
  203ACOH    O110528   1.388   8.244   7.252
  203ACOH    C110529   1.473   8.200   7.466
  203ACOH    H110530   1.443   8.280   7.533
  203ACOH    H210531   1.566   8.161   7.507
  203ACOH    H310532   1.393   8.126   7.466
  204ACOH    H410533   0.711   7.589   7.193
  204ACOH    O210534   0.681   7.674   7.157
  204ACOH    C210535   0.652   7.655   7.028
  204ACOH    O110536   0.644   7.548   6.966
  204ACOH    C110537   0.655   7.779   6.949
  204ACOH    H110538   0.628   7.758   6.846
  204ACOH    H210539   0.758   7.816   6.950
  204ACOH    H310540   0.596   7.854   7.001
  205ACOH    H410541   1.296   8.972   5.665
  205ACOH    O210542   1.343   9.016   5.738
  205ACOH    C210543   1.296   8.943   5.843
  205ACOH    O110544   1.179   8.911   5.857
  205ACOH    C110545   1.375   8.976   5.962
  205ACOH    H110546   1.476   9.005   5.934
  205ACOH    H210547   1.389   8.894   6.032
  205ACOH    H310548   1.316   9.048   6.019
  206ACOH    H410549   1.269   8.493   7.603
  206ACOH    O210550   1.313   8.571   7.640
  206ACOH    C210551   1.391   8.619   7.539
  206ACOH    O110552   1.386   8.580   7.424
  206ACOH    C110553   1.482   8.717   7.587
  206ACOH    H110554   1.584   8.678   7.580
  206ACOH    H210555   1.467   8.732   7.694
  206ACOH    H310556   1.481   8.810   7.529
  207ACOH    H410557   1.588   8.375   9.070
  207ACOH    O210558   1.591   8.333   9.158
  207ACOH    C210559   1.479   8.261   9.177
  207ACOH    O110560   1.388   8.244   9.098
  207ACOH    C110561   1.473   8.200   9.312
  207ACOH    H110562   1.443   8.280   9.379
  207ACOH    H210563   1.566   8.161   9.353
  207ACOH    H310564   1.393   8.126   9.312
  208ACOH    H410565   0.711   7.589   9.039
  208ACOH    O210566   0.681   7.674   9.003
  208ACOH    C210567   0.652   7.655   8.874
  208ACOH    O110568   0.644   7.548   8.812
  208ACOH    C110569   0.655   7.779   8.795
  208ACOH    H110570   0.628   7.758   8.692
  208ACOH    H210571   0.758   7.816   8.796
  208ACOH    H310572   0.596   7.854   8.847
  209ACOH    H410573   1.296   8.972   7.511
  209ACOH    O210574   1.343   9.016   7.584
  209ACOH    C210575   1.296   8.943   7.689
  209ACOH    O110576   1.179   8.911   7.703
  209ACOH    C110577   1.375   8.976   7.808
  209ACOH    H110578   1.476   9.005   7.780
  209ACOH    H210579   1.389   8.894   7.878
  209ACOH    H310580   1.316   9.048   7.865
  210ACOH    H410581   1.269   8.493   9.448
  210ACOH    O210582   1.313   8.571   9.485
  210ACOH    C210583   1.391   8.619   9.384
  210ACOH    O110584   1.386   8.580   9.269
  210ACOH    C110585   1.482   8.717   9.432
  210ACOH    H110586   1.584   8.678   9.425
  210ACOH    H210587   1.467   8.732   9.539
  210ACOH    H310588   1.481   8.810   9.374
  211ACOH    H410589   1.296   8.972   9.356
  211ACOH    O210590   1.343   9.016   9.429
  211ACOH    C210591   1.296   8.943   9.534
  211ACOH    O110592   1.179   8.911   9.548
  211ACOH    C110593   1.375   8.976   9.653
  211ACOH    H110594   1.476   9.005   9.625
  211ACOH    H210595   1.389   8.894   9.723
  211ACOH    H310596   1.316   9.048   9.710
  212ACOH    H410597   0.711   9.434   5.348
  212ACOH    O210598   0.681   9.519   5.312
  212ACOH    C210599   0.652   9.500   5.183
  212ACOH    O110600   0.644   9.393   5.121
  212ACOH    C110601   0.655   9.624   5.104
  212ACOH    H110602   0.628   9.603   5.001
  212ACOH    H210603   0.758   9.661   5.105
  212ACOH    H310604   0.596   9.699   5.156
  213ACOH    H410605   0.711   9.434   7.193
  213ACOH    O210606   0.681   9.519   7.157
  213ACOH    C210607   0.652   9.500   7.028
  213ACOH    O110608   0.644   9.393   6.966
  213ACOH    C110609   0.655   9.624   6.949
  213ACOH    H110610   0.628   9.603   6.846
  213ACOH    H210611   0.758   9.661   6.950
  213ACOH    H310612   0.596   9.699   7.001
  214ACOH    H410613   0.711   9.434   9.039
  214ACOH    O210614   0.681   9.519   9.003
  214ACOH    C210615   0.652   9.500   8.874
  214ACOH    O110616   0.644   9.393   8.812
  214ACOH    C110617   0.655   9.624   8.795
  214ACOH    H110618   0.628   9.603   8.692
  214ACOH    H210619   0.758   9.661   8.796
  214ACOH    H310620   0.596   9.699   8.847
  215ACOH    H410621   3.114   1.111   0.221
  215ACOH    O210622   3.158   1.189   0.258
  215ACOH    C210623   3.236   1.237   0.157
  215ACOH    O110624   3.231   1.198   0.042
  215ACOH    C110625   3.327   1.335   0.205
  215ACOH    H110626   3.429   1.296   0.198
  215ACOH    H210627   3.312   1.350   0.312
  215ACOH    H310628   3.326   1.428   0.147
  216ACOH    H410629   3.433   0.993   1.688
  216ACOH    O210630   3.436   0.951   1.776
  216ACOH    C210631   3.324   0.879   1.795
  216ACOH    O110632   3.233   0.862   1.716
  216ACOH    C110633   3.318   0.818   1.930
  216ACOH    H110634   3.288   0.898   1.997
  216ACOH    H210635   3.411   0.779   1.971
  216ACOH    H310636   3.238   0.744   1.930
  217ACOH    H410637   2.556   0.207   1.657
  217ACOH    O210638   2.526   0.292   1.621
  217ACOH    C210639   2.497   0.273   1.492
  217ACOH    O110640   2.489   0.166   1.430
  217ACOH    C110641   2.500   0.397   1.413
  217ACOH    H110642   2.473   0.376   1.310
  217ACOH    H210643   2.603   0.434   1.414
  217ACOH    H310644   2.441   0.472   1.465
  218ACOH    H410645   3.141   1.590   0.129
  218ACOH    O210646   3.188   1.634   0.202
  218ACOH    C210647   3.141   1.561   0.307
  218ACOH    O110648   3.024   1.529   0.321
  218ACOH    C110649   3.220   1.594   0.426
  218ACOH    H110650   3.321   1.623   0.398
  218ACOH    H210651   3.234   1.512   0.496
  218ACOH    H310652   3.161   1.666   0.483
  219ACOH    H410653   3.114   1.111   2.066
  219ACOH    O210654   3.158   1.189   2.103
  219ACOH    C210655   3.236   1.237   2.002
  219ACOH    O110656   3.231   1.198   1.887
  219ACOH    C110657   3.327   1.335   2.050
  219ACOH    H110658   3.429   1.296   2.043
  219ACOH    H210659   3.312   1.350   2.157
  219ACOH    H310660   3.326   1.428   1.992
  220ACOH    H410661   3.433   0.993   3.533
  220ACOH    O210662   3.436   0.951   3.621
  220ACOH    C210663   3.324   0.879   3.640
  220ACOH    O110664   3.233   0.862   3.561
  220ACOH    C110665   3.318   0.818   3.775
  220ACOH    H110666   3.288   0.898   3.842
  220ACOH    H210667   3.411   0.779   3.816
  220ACOH    H310668   3.238   0.744   3.775
  221ACOH    H410669   2.556   0.207   3.502
  221ACOH    O210670   2.526   0.292   3.466
  221ACOH    C210671   2.497   0.273   3.337
  221ACOH    O110672   2.489   0.166   3.275
  221ACOH    C110673   2.500   0.397   3.258
  221ACOH    H110674   2.473   0.376   3.155
  221ACOH    H210675   2.603   0.434   3.259
  221ACOH    H310676   2.441   0.472   3.310
  222ACOH    H410677   3.141   1.590   1.974
  222ACOH    O210678   3.188   1.634   2.047
  222ACOH    C210679   3.141   1.561   2.152
  222ACOH    O110680   3.024   1.529   2.166
  222ACOH    C110681   3.220   1.594   2.271
  222ACOH    H110682   3.321   1.623   2.243
  222ACOH    H210683   3.234   1.512   2.341
  222ACOH    H310684   3.161   1.666   2.328
  223ACOH    H410685   3.114   1.111   3.912
  223ACOH    O210686   3.158   1.189   3.949
  223ACOH    C210687   3.236   1.237   3.848
  223ACOH    O110688   3.231   1.198   3.733
  223ACOH    C110689   3.327   1.335   3.896
  223ACOH    H110690   3.429   1.296   3.889
  223ACOH    H210691   3.312   1.350   4.003
  223ACOH    H310692   3.326   1.428   3.838
  224ACOH    H410693   3.433   0.993   5.379
  224ACOH    O210694   3.436   0.951   5.467
  224ACOH    C210695   3.324   0.879   5.486
  224ACOH    O110696   3.233   0.862   5.407
  224ACOH    C110697   3.318   0.818   5.621
  224ACOH    H110698   3.288   0.898   5.688
  224ACOH    H210699   3.411   0.779   5.662
  224ACOH    H310700   3.238   0.744   5.621
  225ACOH    H410701   2.556   0.207   5.348
  225ACOH    O210702   2.526   0.292   5.312
  225ACOH    C210703   2.497   0.273   5.183
  225ACOH    O110704   2.489   0.166   5.121
  225ACOH    C110705   2.500   0.397   5.104
  225ACOH    H110706   2.473   0.376   5.001
  225ACOH    H210707   2.603   0.434   5.105
  225ACOH    H310708   2.441   0.472   5.156
  226ACOH    H410709   3.141   1.590   3.820
  226ACOH    O210710   3.188   1.634   3.893
  226ACOH    C210711   3.141   1.561   3.998
  226ACOH    O110712   3.024   1.529   4.012
  226ACOH    C110713   3.220   1.594   4.117
  226ACOH    H110714   3.321   1.623   4.089
  226ACOH    H210715   3.234   1.512   4.187
  226ACOH    H310716   3.161   1.666   4.174
  227ACOH    H410717   3.114   1.111   5.757
  227ACOH    O210718   3.158   1.189   5.794
  227ACOH    C210719   3.236   1.237   5.693
  227ACOH    O110720   3.231   1.198   5.578
  227ACOH    C110721   3.327   1.335   5.741
  227ACOH    H110722   3.429   1.296   5.734
  227ACOH    H210723   3.312   1.350   5.848
  227ACOH    H310724   3.326   1.428   5.683
  228ACOH    H410725   3.433   0.993   7.224
  228ACOH    O210726   3.436   0.951   7.312
  228ACOH    C210727   3.324   0.879   7.331
  228ACOH    O110728   3.233   0.862   7.252
  228ACOH    C110729   3.318   0.818   7.466
  228ACOH    H110730   3.288   0.898   7.533
  228ACOH    H210731   3.411   0.779   7.507
  228ACOH    H310732   3.238   0.744   7.466
  229ACOH    H410733   2.556   0.207   7.193
  229ACOH    O210734   2.526   0.292   7.157
  229ACOH    C210735   2.497   0.273   7.028
  229ACOH    O110736   2.489   0.166   6.966
  229ACOH    C110737   2.500   0.397   6.949
  229ACOH    H110738   2.473   0.376   6.846
  229ACOH    H210739   2.603   0.434   6.950
  229ACOH    H310740   2.441   0.472   7.001
  230ACOH    H410741   3.141   1.590   5.665
  230ACOH    O210742   3.188   1.634   5.738
  230ACOH    C210743   3.141   1.561   5.843
  230ACOH    O110744   3.024   1.529   5.857
  230ACOH    C110745   3.220   1.594   5.962
  230ACOH    H110746   3.321   1.623   5.934
  230ACOH    H210747   3.234   1.512   6.032
  230ACOH    H310748   3.161   1.666   6.019
  231ACOH    H410749   3.114   1.111   7.603
  231ACOH    O210750   3.158   1.189   7.640
  231ACOH    C210751   3.236   1.237   7.539
  231ACOH    O110752   3.231   1.198   7.424
  231ACOH    C110753   3.327   1.335   7.587
  231ACOH    H110754   3.429   1.296   7.580
  231ACOH    H210755   3.312   1.350   7.694
  231ACOH    H310756   3.326   1.428   7.529
  232ACOH    H410757   3.433   0.993   9.070
  232ACOH    O210758   3.436   0.951   9.158
  232ACOH    C210759   3.324   0.879   9.177
  232ACOH    O110760   3.233   0.862   9.098
  232ACOH    C110761   3.318   0.818   9.312
  232ACOH    H110762   3.288   0.898   9.379
  232ACOH    H210763   3.411   0.779   9.353
  232ACOH    H310764   3.238   0.744   9.312
  233ACOH    H410765   2.556   0.207   9.039
  233ACOH    O210766   2.526   0.292   9.003
  233ACOH    C210767   2.497   0.273   8.874
  233ACOH    O110768   2.489   0.166   8.812
  233ACOH    C110769   2.500   0.397   8.795
  233ACOH    H110770   2.473   0.376   8.692
  233ACOH    H210771   2.603   0.434   8.796
  233ACOH    H310772   2.441   0.472   8.847
  234ACOH    H410773   3.141   1.590   7.511
  234ACOH    O210774   3.188   1.634   7.584
  234ACOH    C210775   3.141   1.561   7.689
  234ACOH    O110776   3.024   1.529   7.703
  234ACOH    C110777   3.220   1.594   7.808
  234ACOH    H110778   3.321   1.623   7.780
  234ACOH    H210779   3.234   1.512   7.878
  234ACOH    H310780   3.161   1.666   7.865
  235ACOH    H410781   3.114   1.111   9.448
  235ACOH    O210782   3.158   1.189   9.485
  235ACOH    C210783   3.236   1.237   9.384
  235ACOH    O110784   3.231   1.198   9.269
  235ACOH    C110785   3.327   1.335   9.432
  235ACOH    H110786   3.429   1.296   9.425
  235ACOH    H210787   3.312   1.350   9.539
  235ACOH    H310788   3.326   1.428   9.374
  236ACOH    H410789   3.141   1.590   9.356
  236ACOH    O210790   3.188   1.634   9.429
  236ACOH    C210791   3.141   1.561   9.534
  236ACOH    O110792   3.024   1.529   9.548
  236ACOH    C110793   3.220   1.594   9.653
  236ACOH    H110794   3.321   1.623   9.625
  236ACOH    H210795   3.234   1.512   9.723
  236ACOH    H310796   3.161   1.666   9.710
  237ACOH    H410797   3.114   2.956   0.221
  237ACOH    O210798   3.158   3.034   0.258
  237ACOH    C210799   3.236   3.082   0.157
  237ACOH    O110800   3.231   3.043   0.042
  237ACOH    C110801   3.327   3.180   0.205
  237ACOH    H110802   3.429   3.141   0.198
  237ACOH    H210803   3.312   3.195   0.312
  237ACOH    H310804   3.326   3.273   0.147
  238ACOH    H410805   3.433   2.838   1.688
  238ACOH    O210806   3.436   2.796   1.776
  238ACOH    C210807   3.324   2.724   1.795
  238ACOH    O110808   3.233   2.707   1.716
  238ACOH    C110809   3.318   2.663   1.930
  238ACOH    H110810   3.288   2.743   1.997
  238ACOH    H210811   3.411   2.624   1.971
  238ACOH    H310812   3.238   2.589   1.930
  239ACOH    H410813   2.556   2.052   1.657
  239ACOH    O210814   2.526   2.137   1.621
  239ACOH    C210815   2.497   2.118   1.492
  239ACOH    O110816   2.489   2.011   1.430
  239ACOH    C110817   2.500   2.242   1.413
  239ACOH    H110818   2.473   2.221   1.310
  239ACOH    H210819   2.603   2.279   1.414
  239ACOH    H310820   2.441   2.317   1.465
  240ACOH    H410821   3.141   3.435   0.129
  240ACOH    O210822   3.188   3.479   0.202
  240ACOH    C210823   3.141   3.406   0.307
  240ACOH    O110824   3.024   3.374   0.321
  240ACOH    C110825   3.220   3.439   0.426
  240ACOH    H110826   3.321   3.468   0.398
  240ACOH    H210827   3.234   3.357   0.496
  240ACOH    H310828   3.161   3.511   0.483
  241ACOH    H410829   3.114   2.956   2.066
  241ACOH    O210830   3.158   3.034   2.103
  241ACOH    C210831   3.236   3.082   2.002
  241ACOH    O110832   3.231   3.043   1.887
  241ACOH    C110833   3.327   3.180   2.050
  241ACOH    H110834   3.429   3.141   2.043
  241ACOH    H210835   3.312   3.195   2.157
  241ACOH    H310836   3.326   3.273   1.992
  242ACOH    H410837   3.433   2.838   3.533
  242ACOH    O210838   3.436   2.796   3.621
  242ACOH    C210839   3.324   2.724   3.640
  242ACOH    O110840   3.233   2.707   3.561
  242ACOH    C110841   3.318   2.663   3.775
  242ACOH    H110842   3.288   2.743   3.842
  242ACOH    H210843   3.411   2.624   3.816
  242ACOH    H310844   3.238   2.589   3.775
  243ACOH    H410845   3.141   3.435   1.974
  243ACOH    O210846   3.188   3.479   2.047
  243ACOH    C210847   3.141   3.406   2.152
  243ACOH    O110848   3.024   3.374   2.166
  243ACOH    C110849   3.220   3.439   2.271
  243ACOH    H110850   3.321   3.468   2.243
  243ACOH    H210851   3.234   3.357   2.341
  243ACOH    H310852   3.161   3.511   2.328
  244ACOH    H410853   3.114   2.956   3.912
  244ACOH    O210854   3.158   3.034   3.949
  244ACOH    C210855   3.236   3.082   3.848
  244ACOH    O110856   3.231   3.043   3.733
  244ACOH    C110857   3.327   3.180   3.896
  244ACOH    H110858   3.429   3.141   3.889
  244ACOH    H210859   3.312   3.195   4.003
  244ACOH    H310860   3.326   3.273   3.838
  245ACOH    H410861   3.433   2.838   5.379
  245ACOH    O210862   3.436   2.796   5.467
  245ACOH    C210863   3.324   2.724   5.486
  245ACOH    O110864   3.233   2.707   5.407
  245ACOH    C110865   3.318   2.663   5.621
  245ACOH    H110866   3.288   2.743   5.688
  245ACOH    H210867   3.411   2.624   5.662
  245ACOH    H310868   3.238   2.589   5.621
  246ACOH    H410869   2.556   2.052   5.348
  246ACOH    O210870   2.526   2.137   5.312
  246ACOH    C210871   2.497   2.118   5.183
  246ACOH    O110872   2.489   2.011   5.121
  246ACOH    C110873   2.500   2.242   5.104
  246ACOH    H110874   2.473   2.221   5.001
  246ACOH    H210875   2.603   2.279   5.105
  246ACOH    H310876   2.441   2.317   5.156
  247ACOH    H410877   3.141   3.435   3.820
  247ACOH    O210878   3.188   3.479   3.893
  247ACOH    C210879   3.141   3.406   3.998
  247ACOH    O110880   3.024   3.374   4.012
  247ACOH    C110881   3.220   3.439   4.117
  247ACOH    H110882   3.321   3.468   4.089
  247ACOH    H210883   3.234   3.357   4.187
  247ACOH    H310884   3.161   3.511   4.174
  248ACOH    H410885   3.114   2.956   5.757
  248ACOH    O210886   3.158   3.034   5.794
  248ACOH    C210887   3.236   3.082   5.693
  248ACOH    O110888   3.231   3.043   5.578
  248ACOH    C110889   3.327   3.180   5.741
  248ACOH    H110890   3.429   3.141   5.734
  248ACOH    H210891   3.312   3.195   5.848
  248ACOH    H310892   3.326   3.273   5.683
  249ACOH    H410893   3.433   2.838   7.224
  249ACOH    O210894   3.436   2.796   7.312
  249ACOH    C210895   3.324   2.724   7.331
  249ACOH    O110896   3.233   2.707   7.252
  249ACOH    C110897   3.318   2.663   7.466
  249ACOH    H110898   3.288   2.743   7.533
  249ACOH    H210899   3.411   2.624   7.507
  249ACOH    H310900   3.238   2.589   7.466
  250ACOH    H410901   3.141   3.435   5.665
  250ACOH    O210902   3.188   3.479   5.738
  250ACOH    C210903   3.141   3.406   5.843
  250ACOH    O110904   3.024   3.374   5.857
  250ACOH    C110905   3.220   3.439   5.962
  250ACOH    H110906   3.321   3.468   5.934
  250ACOH    H210907   3.234   3.357   6.032
  250ACOH    H310908   3.161   3.511   6.019
  251ACOH    H410909   3.114   2.956   7.603
  251ACOH    O210910   3.158   3.034   7.640
  251ACOH    C210911   3.236   3.082   7.539
  251ACOH    O110912   3.231   3.043   7.424
  251ACOH    C110913   3.327   3.180   7.587
  251ACOH    H110914   3.429   3.141   7.580
  251ACOH    H210915   3.312   3.195   7.694
  251ACOH    H310916   3.326   3.273   7.529
  252ACOH    H410917   3.433   2.838   9.070
  252ACOH    O210918   3.436   2.796   9.158
  252ACOH    C210919   3.324   2.724   9.177
  252ACOH    O110920   3.233   2.707   9.098
  252ACOH    C110921   3.318   2.663   9.312
  252ACOH    H110922   3.288   2.743   9.379
  252ACOH    H210923   3.411   2.624   9.353
  252ACOH    H310924   3.238   2.589   9.312
  253ACOH    H410925   2.556   2.052   9.039
  253ACOH    O210926   2.526   2.137   9.003
  253ACOH    C210927   2.497   2.118   8.874
  253ACOH    O110928   2.489   2.011   8.812
  253ACOH    C110929   2.500   2.242   8.795
  253ACOH    H110930   2.473   2.221   8.692
  253ACOH    H210931   2.603   2.279   8.796
  253ACOH    H310932   2.441   2.317   8.847
  254ACOH    H410933   3.141   3.435   7.511
  254ACOH    O210934   3.188   3.479   7.584
  254ACOH    C210935   3.141   3.406   7.689
  254ACOH    O110936   3.024   3.374   7.703
  254ACOH    C110937   3.220   3.439   7.808
  254ACOH    H110938   3.321   3.468   7.780
  254ACOH    H210939   3.234   3.357   7.878
  254ACOH    H310940   3.161   3.511   7.865
  255ACOH    H410941   3.114   2.956   9.448
  255ACOH    O210942   3.158   3.034   9.485
  255ACOH    C210943   3.236   3.082   9.384
  255ACOH    O110944   3.231   3.043   9.269
  255ACOH    C110945   3.327   3.180   9.432
  255ACOH    H110946   3.429   3.141   9.425
  255ACOH    H210947   3.312   3.195   9.539
  255ACOH    H310948   3.326   3.273   9.374
  256ACOH    H410949   3.141   3.435   9.356
  256ACOH    O210950   3.188   3.479   9.429
  256ACOH    C210951   3.141   3.406   9.534
  256ACOH    O110952   3.024   3.374   9.548
  256ACOH    C110953   3.220   3.439   9.653
  256ACOH    H110954   3.321   3.468   9.625
  256ACOH    H210955   3.234   3.357   9.723
  256ACOH    H310956   3.161   3.511   9.710
  257ACOH    H410957   3.114   4.802   0.221
  257ACOH    O210958   3.158   4.880   0.258
  257ACOH    C210959   3.236   4.928   0.157
  257ACOH    O110960   3.231   4.889   0.042
  257ACOH    C110961   3.327   5.026   0.205
  257ACOH    H110962   3.429   4.987   0.198
  257ACOH    H210963   3.312   5.041   0.312
  257ACOH    H310964   3.326   5.119   0.147
  258ACOH    H410965   3.433   4.684   1.688
  258ACOH    O210966   3.436   4.642   1.776
  258ACOH    C210967   3.324   4.570   1.795
  258ACOH    O110968   3.233   4.553   1.716
  258ACOH    C110969   3.318   4.509   1.930
  258ACOH    H110970   3.288   4.589   1.997
  258ACOH    H210971   3.411   4.470   1.971
  258ACOH    H310972   3.238   4.435   1.930
  259ACOH    H410973   2.556   3.898   1.657
  259ACOH    O210974   2.526   3.983   1.621
  259ACOH    C210975   2.497   3.964   1.492
  259ACOH    O110976   2.489   3.857   1.430
  259ACOH    C110977   2.500   4.088   1.413
  259ACOH    H110978   2.473   4.067   1.310
  259ACOH    H210979   2.603   4.125   1.414
  259ACOH    H310980   2.441   4.163   1.465
  260ACOH    H410981   3.141   5.281   0.129
  260ACOH    O210982   3.188   5.325   0.202
  260ACOH    C210983   3.141   5.252   0.307
  260ACOH    O110984   3.024   5.220   0.321
  260ACOH    C110985   3.220   5.285   0.426
  260ACOH    H110986   3.321   5.314   0.398
  260ACOH    H210987   3.234   5.203   0.496
  260ACOH    H310988   3.161   5.357   0.483
  261ACOH    H410989   3.114   4.802   2.066
  261ACOH    O210990   3.158   4.880   2.103
  261ACOH    C210991   3.236   4.928   2.002
  261ACOH    O110992   3.231   4.889   1.887
  261ACOH    C110993   3.327   5.026   2.050
  261ACOH    H110994   3.429   4.987   2.043
  261ACOH    H210995   3.312   5.041   2.157
  261ACOH    H310996   3.326   5.119   1.992
  262ACOH    H410997   3.433   4.684   3.533
  262ACOH    O210998   3.436   4.642   3.621
  262ACOH    C210999   3.324   4.570   3.640
  262ACOH    O111000   3.233   4.553   3.561
  262ACOH    C111001   3.318   4.509   3.775
  262ACOH    H111002   3.288   4.589   3.842
  262ACOH    H211003   3.411   4.470   3.816
  262ACOH    H311004   3.238   4.435   3.775
  263ACOH    H411005   2.556   3.898   3.502
  263ACOH    O211006   2.526   3.983   3.466
  263ACOH    C211007   2.497   3.964   3.337
  263ACOH    O111008   2.489   3.857   3.275
  263ACOH    C111009   2.500   4.088   3.258
  263ACOH    H111010   2.473   4.067   3.155
  263ACOH    H211011   2.603   4.125   3.259
  263ACOH    H311012   2.441   4.163   3.310
  264ACOH    H411013   3.114   4.802   3.912
  264ACOH    O211014   3.158   4.880   3.949
  264ACOH    C211015   3.236   4.928   3.848
  264ACOH    O111016   3.231   4.889   3.733
  264ACOH    C111017   3.327   5.026   3.896
  264ACOH    H111018   3.429   4.987   3.889
  264ACOH    H211019   3.312   5.041   4.003
  264ACOH    H311020   3.326   5.119   3.838
  265ACOH    H411021   3.433   4.684   5.379
  265ACOH    O211022   3.436   4.642   5.467
  265ACOH    C211023   3.324   4.570   5.486
  265ACOH    O111024   3.233   4.553   5.407
  265ACOH    C111025   3.318   4.509   5.621
  265ACOH    H111026   3.288   4.589   5.688
  265ACOH    H211027   3.411   4.470   5.662
  265ACOH    H311028   3.238   4.435   5.621
  266ACOH    H411029   2.556   3.898   5.348
  266ACOH    O211030   2.526   3.983   5.312
  266ACOH    C211031   2.497   3.964   5.183
  266ACOH    O111032   2.489   3.857   5.121
  266ACOH    C111033   2.500   4.088   5.104
  266ACOH    H111034   2.473   4.067   5.001
  266ACOH    H211035   2.603   4.125   5.105
  266ACOH    H311036   2.441   4.163   5.156
  267ACOH    H411037   3.141   5.281   3.820
  267ACOH    O211038   3.188   5.325   3.893
  267ACOH    C211039   3.141   5.252   3.998
  267ACOH    O111040   3.024   5.220   4.012
  267ACOH    C111041   3.220   5.285   4.117
  267ACOH    H111042   3.321   5.314   4.089
  267ACOH    H211043   3.234   5.203   4.187
  267ACOH    H311044   3.161   5.357   4.174
  268ACOH    H411045   3.114   4.802   5.757
  268ACOH    O211046   3.158   4.880   5.794
  268ACOH    C211047   3.236   4.928   5.693
  268ACOH    O111048   3.231   4.889   5.578
  268ACOH    C111049   3.327   5.026   5.741
  268ACOH    H111050   3.429   4.987   5.734
  268ACOH    H211051   3.312   5.041   5.848
  268ACOH    H311052   3.326   5.119   5.683
  269ACOH    H411053   3.433   4.684   7.224
  269ACOH    O211054   3.436   4.642   7.312
  269ACOH    C211055   3.324   4.570   7.331
  269ACOH    O111056   3.233   4.553   7.252
  269ACOH    C111057   3.318   4.509   7.466
  269ACOH    H111058   3.288   4.589   7.533
  269ACOH    H211059   3.411   4.470   7.507
  269ACOH    H311060   3.238   4.435   7.466
  270ACOH    H411061   2.556   3.898   7.193
  270ACOH    O211062   2.526   3.983   7.157
  270ACOH    C211063   2.497   3.964   7.028
  270ACOH    O111064   2.489   3.857   6.966
  270ACOH    C111065   2.500   4.088   6.949
  270ACOH    H111066   2.473   4.067   6.846
  270ACOH    H211067   2.603   4.125   6.950
  270ACOH    H311068   2.441   4.163   7.001
  271ACOH    H411069   3.141   5.281   5.665
  271ACOH    O211070   3.188   5.325   5.738
  271ACOH    C211071   3.141   5.252   5.843
  271ACOH    O111072   3.024   5.220   5.857
  271ACOH    C111073   3.220   5.285   5.962
  271ACOH    H111074   3.321   5.314   5.934
  271ACOH    H211075   3.234   5.203   6.032
  271ACOH    H311076   3.161   5.357   6.019
  272ACOH    H411077   3.114   4.802   7.603
  272ACOH    O211078   3.158   4.880   7.640
  272ACOH    C211079   3.236   4.928   7.539
  272ACOH    O111080   3.231   4.889   7.424
  272ACOH    C111081   3.327   5.026   7.587
  272ACOH    H111082   3.429   4.987   7.580
  272ACOH    H211083   3.312   5.041   7.694
  272ACOH    H311084   3.326   5.119   7.529
  273ACOH    H411085   3.433   4.684   9.070
  273ACOH    O211086   3.436   4.642   9.158
  273ACOH    C211087   3.324   4.570   9.177
  273ACOH    O111088   3.233   4.553   9.098
  273ACOH    C111089   3.318   4.509   9.312
  273ACOH    H111090   3.288   4.589   9.379
  273ACOH    H211091   3.411   4.470   9.353
  273ACOH    H311092   3.238   4.435   9.312
  274ACOH    H411093   2.556   3.898   9.039
  274ACOH    O211094   2.526   3.983   9.003
  274ACOH    C211095   2.497   3.964   8.874
  274ACOH    O111096   2.489   3.857   8.812
  274ACOH    C111097   2.500   4.088   8.795
  274ACOH    H111098   2.473   4.067   8.692
  274ACOH    H211099   2.603   4.125   8.796
  274ACOH    H311100   2.441   4.163   8.847
  275ACOH    H411101   3.141   5.281   7.511
  275ACOH    O211102   3.188   5.325   7.584
  275ACOH    C211103   3.141   5.252   7.689
  275ACOH    O111104   3.024   5.220   7.703
  275ACOH    C111105   3.220   5.285   7.808
  275ACOH    H111106   3.321   5.314   7.780
  275ACOH    H211107   3.234   5.203   7.878
  275ACOH    H311108   3.161   5.357   7.865
  276ACOH    H411109   3.114   4.802   9.448
  276ACOH    O211110   3.158   4.880   9.485
  276ACOH    C211111   3.236   4.928   9.384
  276ACOH    O111112   3.231   4.889   9.269
  276ACOH    C111113   3.327   5.026   9.432
  276ACOH    H111114   3.429   4.987   9.425
  276ACOH    H211115   3.312   5.041   9.539
  276ACOH    H311116   3.326   5.119   9.374
  277ACOH    H411117   3.141   5.281   9.356
  277ACOH    O211118   3.188   5.325   9.429
  277ACOH    C211119   3.141   5.252   9.534
  277ACOH    O111120   3.024   5.220   9.548
  277ACOH    C111121   3.220   5.285   9.653
  277ACOH    H111122   3.321   5.314   9.625
  277ACOH    H211123   3.234   5.203   9.723
  277ACOH    H311124   3.161   5.357   9.710
  278ACOH    H411125   3.114   6.647   0.221
  278ACOH    O211126   3.158   6.725   0.258
  278ACOH    C211127   3.236   6.773   0.157
  278ACOH    O111128   3.231   6.734   0.042
  278ACOH    C111129   3.327   6.871   0.205
  278ACOH    H111130   3.429   6.832   0.198
  278ACOH    H211131   3.312   6.886   0.312
  278ACOH    H311132   3.326   6.964   0.147
  279ACOH    H411133   3.433   6.529   1.688
  279ACOH    O211134   3.436   6.487   1.776
  279ACOH    C211135   3.324   6.415   1.795
  279ACOH    O111136   3.233   6.398   1.716
  279ACOH    C111137   3.318   6.354   1.930
  279ACOH    H111138   3.288   6.434   1.997
  279ACOH    H211139   3.411   6.315   1.971
  279ACOH    H311140   3.238   6.280   1.930
  280ACOH    H411141   2.556   5.743   1.657
  280ACOH    O211142   2.526   5.828   1.621
  280ACOH    C211143   2.497   5.809   1.492
  280ACOH    O111144   2.489   5.702   1.430
  280ACOH    C111145   2.500   5.933   1.413
  280ACOH    H111146   2.473   5.912   1.310
  280ACOH    H211147   2.603   5.970   1.414
  280ACOH    H311148   2.441   6.008   1.465
  281ACOH    H411149   3.141   7.126   0.129
  281ACOH    O211150   3.188   7.170   0.202
  281ACOH    C211151   3.141   7.097   0.307
  281ACOH    O111152   3.024   7.065   0.321
  281ACOH    C111153   3.220   7.130   0.426
  281ACOH    H111154   3.321   7.159   0.398
  281ACOH    H211155   3.234   7.048   0.496
  281ACOH    H311156   3.161   7.202   0.483
  282ACOH    H411157   3.114   6.647   2.066
  282ACOH    O211158   3.158   6.725   2.103
  282ACOH    C211159   3.236   6.773   2.002
  282ACOH    O111160   3.231   6.734   1.887
  282ACOH    C111161   3.327   6.871   2.050
  282ACOH    H111162   3.429   6.832   2.043
  282ACOH    H211163   3.312   6.886   2.157
  282ACOH    H311164   3.326   6.964   1.992
  283ACOH    H411165   3.433   6.529   3.533
  283ACOH    O211166   3.436   6.487   3.621
  283ACOH    C211167   3.324   6.415   3.640
  283ACOH    O111168   3.233   6.398   3.561
  283ACOH    C111169   3.318   6.354   3.775
  283ACOH    H111170   3.288   6.434   3.842
  283ACOH    H211171   3.411   6.315   3.816
  283ACOH    H311172   3.238   6.280   3.775
  284ACOH    H411173   2.556   5.743   3.502
  284ACOH    O211174   2.526   5.828   3.466
  284ACOH    C211175   2.497   5.809   3.337
  284ACOH    O111176   2.489   5.702   3.275
  284ACOH    C111177   2.500   5.933   3.258
  284ACOH    H111178   2.473   5.912   3.155
  284ACOH    H211179   2.603   5.970   3.259
  284ACOH    H311180   2.441   6.008   3.310
  285ACOH    H411181   3.114   6.647   3.912
  285ACOH    O211182   3.158   6.725   3.949
  285ACOH    C211183   3.236   6.773   3.848
  285ACOH    O111184   3.231   6.734   3.733
  285ACOH    C111185   3.327   6.871   3.896
  285ACOH    H111186   3.429   6.832   3.889
  285ACOH    H211187   3.312   6.886   4.003
  285ACOH    H311188   3.326   6.964   3.838
  286ACOH    H411189   3.433   6.529   5.379
  286ACOH    O211190   3.436   6.487   5.467
  286ACOH    C211191   3.324   6.415   5.486
  286ACOH    O111192   3.233   6.398   5.407
  286ACOH    C111193   3.318   6.354   5.621
  286ACOH    H111194   3.288   6.434   5.688
  286ACOH    H211195   3.411   6.315   5.662
  286ACOH    H311196   3.238   6.280   5.621
  287ACOH    H411197   2.556   5.743   5.348
  287ACOH    O211198   2.526   5.828   5.312
  287ACOH    C211199   2.497   5.809   5.183
  287ACOH    O111200   2.489   5.702   5.121
  287ACOH    C111201   2.500   5.933   5.104
  287ACOH    H111202   2.473   5.912   5.001
  287ACOH    H211203   2.603   5.970   5.105
  287ACOH    H311204   2.441   6.008   5.156
  288ACOH    H411205   3.141   7.126   3.820
  288ACOH    O211206   3.188   7.170   3.893
  288ACOH    C211207   3.141   7.097   3.998
  288ACOH    O111208   3.024   7.065   4.012
  288ACOH    C111209   3.220   7.130   4.117
  288ACOH    H111210   3.321   7.159   4.089
  288ACOH    H211211   3.234   7.048   4.187
  288ACOH    H311212   3.161   7.202   4.174
  289ACOH    H411213   3.114   6.647   5.757
  289ACOH    O211214   3.158   6.725   5.794
  289ACOH    C211215   3.236   6.773   5.693
  289ACOH    O111216   3.231   6.734   5.578
  289ACOH    C111217   3.327   6.871   5.741
  289ACOH    H111218   3.429   6.832   5.734
  289ACOH    H211219   3.312   6.886   5.848
  289ACOH    H311220   3.326   6.964   5.683
  290ACOH    H411221   3.433   6.529   7.224
  290ACOH    O211222   3.436   6.487   7.312
  290ACOH    C211223   3.324   6.415   7.331
  290ACOH    O111224   3.233   6.398   7.252
  290ACOH    C111225   3.318   6.354   7.466
  290ACOH    H111226   3.288   6.434   7.533
  290ACOH    H211227   3.411   6.315   7.507
  290ACOH    H311228   3.238   6.280   7.466
  291ACOH    H411229   2.556   5.743   7.193
  291ACOH    O211230   2.526   5.828   7.157
  291ACOH    C211231   2.497   5.809   7.028
  291ACOH    O111232   2.489   5.702   6.966
  291ACOH    C111233   2.500   5.933   6.949
  291ACOH    H111234   2.473   5.912   6.846
  291ACOH    H211235   2.603   5.970   6.950
  291ACOH    H311236   2.441   6.008   7.001
  292ACOH    H411237   3.114   6.647   7.603
  292ACOH    O211238   3.158   6.725   7.640
  292ACOH    C211239   3.236   6.773   7.539
  292ACOH    O111240   3.231   6.734   7.424
  292ACOH    C111241   3.327   6.871   7.587
  292ACOH    H111242   3.429   6.832   7.580
  292ACOH    H211243   3.312   6.886   7.694
  292ACOH    H311244   3.326   6.964   7.529
  293ACOH    H411245   3.433   6.529   9.070
  293ACOH    O211246   3.436   6.487   9.158
  293ACOH    C211247   3.324   6.415   9.177
  293ACOH    O111248   3.233   6.398   9.098
  293ACOH    C111249   3.318   6.354   9.312
  293ACOH    H111250   3.288   6.434   9.379
  293ACOH    H211251   3.411   6.315   9.353
  293ACOH    H311252   3.238   6.280   9.312
  294ACOH    H411253   2.556   5.743   9.039
  294ACOH    O211254   2.526   5.828   9.003
  294ACOH    C211255   2.497   5.809   8.874
  294ACOH    O111256   2.489   5.702   8.812
  294ACOH    C111257   2.500   5.933   8.795
  294ACOH    H111258   2.473   5.912   8.692
  294ACOH    H211259   2.603   5.970   8.796
  294ACOH    H311260   2.441   6.008   8.847
  295ACOH    H411261   3.141   7.126   7.511
  295ACOH    O211262   3.188   7.170   7.584
  295ACOH    C211263   3.141   7.097   7.689
  295ACOH    O111264   3.024   7.065   7.703
  295ACOH    C111265   3.220   7.130   7.808
  295ACOH    H111266   3.321   7.159   7.780
  295ACOH    H211267   3.234   7.048   7.878
  295ACOH    H311268   3.161   7.202   7.865
  296ACOH    H411269   3.114   6.647   9.448
  296ACOH    O211270   3.158   6.725   9.485
  296ACOH    C211271   3.236   6.773   9.384
  296ACOH    O111272   3.231   6.734   9.269
  296ACOH    C111273   3.327   6.871   9.432
  296ACOH    H111274   3.429   6.832   9.425
  296ACOH    H211275   3.312   6.886   9.539
  296ACOH    H311276   3.326   6.964   9.374
  297ACOH    H411277   3.141   7.126   9.356
  297ACOH    O211278   3.188   7.170   9.429
  297ACOH    C211279   3.141   7.097   9.534
  297ACOH    O111280   3.024   7.065   9.548
  297ACOH    C111281   3.220   7.130   9.653
  297ACOH    H111282   3.321   7.159   9.625
  297ACOH    H211283   3.234   7.048   9.723
  297ACOH    H311284   3.161   7.202   9.710
  298ACOH    H411285   3.114   8.493   0.221
  298ACOH    O211286   3.158   8.571   0.258
  298ACOH    C211287   3.236   8.619   0.157
  298ACOH    O111288   3.231   8.580   0.042
  298ACOH    C111289   3.327   8.717   0.205
  298ACOH    H111290   3.429   8.678   0.198
  298ACOH    H211291   3.312   8.732   0.312
  298ACOH    H311292   3.326   8.810   0.147
  299ACOH    H411293   3.433   8.375   1.688
  299ACOH    O211294   3.436   8.333   1.776
  299ACOH    C211295   3.324   8.261   1.795
  299ACOH    O111296   3.233   8.244   1.716
  299ACOH    C111297   3.318   8.200   1.930
  299ACOH    H111298   3.288   8.280   1.997
  299ACOH    H211299   3.411   8.161   1.971
  299ACOH    H311300   3.238   8.126   1.930
  300ACOH    H411301   3.141   8.972   0.129
  300ACOH    O211302   3.188   9.016   0.202
  300ACOH    C211303   3.141   8.943   0.307
  300ACOH    O111304   3.024   8.911   0.321
  300ACOH    C111305   3.220   8.976   0.426
  300ACOH    H111306   3.321   9.005   0.398
  300ACOH    H211307   3.234   8.894   0.496
  300ACOH    H311308   3.161   9.048   0.483
  301ACOH    H411309   3.114   8.493   2.066
  301ACOH    O211310   3.158   8.571   2.103
  301ACOH    C211311   3.236   8.619   2.002
  301ACOH    O111312   3.231   8.580   1.887
  301ACOH    C111313   3.327   8.717   2.050
  301ACOH    H111314   3.429   8.678   2.043
  301ACOH    H211315   3.312   8.732   2.157
  301ACOH    H311316   3.326   8.810   1.992
  302ACOH    H411317   3.433   8.375   3.533
  302ACOH    O211318   3.436   8.333   3.621
  302ACOH    C211319   3.324   8.261   3.640
  302ACOH    O111320   3.233   8.244   3.561
  302ACOH    C111321   3.318   8.200   3.775
  302ACOH    H111322   3.288   8.280   3.842
  302ACOH    H211323   3.411   8.161   3.816
  302ACOH    H311324   3.238   8.126   3.775
  303ACOH    H411325   2.556   7.589   3.502
  303ACOH    O211326   2.526   7.674   3.466
  303ACOH    C211327   2.497   7.655   3.337
  303ACOH    O111328   2.489   7.548   3.275
  303ACOH    C111329   2.500   7.779   3.258
  303ACOH    H111330   2.473   7.758   3.155
  303ACOH    H211331   2.603   7.816   3.259
  303ACOH    H311332   2.441   7.854   3.310
  304ACOH    H411333   3.141   8.972   1.974
  304ACOH    O211334   3.188   9.016   2.047
  304ACOH    C211335   3.141   8.943   2.152
  304ACOH    O111336   3.024   8.911   2.166
  304ACOH    C111337   3.220   8.976   2.271
  304ACOH    H111338   3.321   9.005   2.243
  304ACOH    H211339   3.234   8.894   2.341
  304ACOH    H311340   3.161   9.048   2.328
  305ACOH    H411341   3.114   8.493   3.912
  305ACOH    O211342   3.158   8.571   3.949
  305ACOH    C211343   3.236   8.619   3.848
  305ACOH    O111344   3.231   8.580   3.733
  305ACOH    C111345   3.327   8.717   3.896
  305ACOH    H111346   3.429   8.678   3.889
  305ACOH    H211347   3.312   8.732   4.003
  305ACOH    H311348   3.326   8.810   3.838
  306ACOH    H411349   3.433   8.375   5.379
  306ACOH    O211350   3.436   8.333   5.467
  306ACOH    C211351   3.324   8.261   5.486
  306ACOH    O111352   3.233   8.244   5.407
  306ACOH    C111353   3.318   8.200   5.621
  306ACOH    H111354   3.288   8.280   5.688
  306ACOH    H211355   3.411   8.161   5.662
  306ACOH    H311356   3.238   8.126   5.621
  307ACOH    H411357   2.556   7.589   5.348
  307ACOH    O211358   2.526   7.674   5.312
  307ACOH    C211359   2.497   7.655   5.183
  307ACOH    O111360   2.489   7.548   5.121
  307ACOH    C111361   2.500   7.779   5.104
  307ACOH    H111362   2.473   7.758   5.001
  307ACOH    H211363   2.603   7.816   5.105
  307ACOH    H311364   2.441   7.854   5.156
  308ACOH    H411365   3.141   8.972   3.820
  308ACOH    O211366   3.188   9.016   3.893
  308ACOH    C211367   3.141   8.943   3.998
  308ACOH    O111368   3.024   8.911   4.012
  308ACOH    C111369   3.220   8.976   4.117
  308ACOH    H111370   3.321   9.005   4.089
  308ACOH    H211371   3.234   8.894   4.187
  308ACOH    H311372   3.161   9.048   4.174
  309ACOH    H411373   3.114   8.493   5.757
  309ACOH    O211374   3.158   8.571   5.794
  309ACOH    C211375   3.236   8.619   5.693
  309ACOH    O111376   3.231   8.580   5.578
  309ACOH    C111377   3.327   8.717   5.741
  309ACOH    H111378   3.429   8.678   5.734
  309ACOH    H211379   3.312   8.732   5.848
  309ACOH    H311380   3.326   8.810   5.683
  310ACOH    H411381   3.433   8.375   7.224
  310ACOH    O211382   3.436   8.333   7.312
  310ACOH    C211383   3.324   8.261   7.331
  310ACOH    O111384   3.233   8.244   7.252
  310ACOH    C111385   3.318   8.200   7.466
  310ACOH    H111386   3.288   8.280   7.533
  310ACOH    H211387   3.411   8.161   7.507
  310ACOH    H311388   3.238   8.126   7.466
  311ACOH    H411389   3.141   8.972   5.665
  311ACOH    O211390   3.188   9.016   5.738
  311ACOH    C211391   3.141   8.943   5.843
  311ACOH    O111392   3.024   8.911   5.857
  311ACOH    C111393   3.220   8.976   5.962
  311ACOH    H111394   3.321   9.005   5.934
  311ACOH    H211395   3.234   8.894   6.032
  311ACOH    H311396   3.161   9.048   6.019
  312ACOH    H411397   3.114   8.493   7.603
  312ACOH    O211398   3.158   8.571   7.640
  312ACOH    C211399   3.236   8.619   7.539
  312ACOH    O111400   3.231   8.580   7.424
  312ACOH    C111401   3.327   8.717   7.587
  312ACOH    H111402   3.429   8.678   7.580
  312ACOH    H211403   3.312   8.732   7.694
  312ACOH    H311404   3.326   8.810   7.529
  313ACOH    H411405   3.433   8.375   9.070
  313ACOH    O211406   3.436   8.333   9.158
  313ACOH    C211407   3.324   8.261   9.177
  313ACOH    O111408   3.233   8.244   9.098
  313ACOH    C111409   3.318   8.200   9.312
  313ACOH    H111410   3.288   8.280   9.379
  313ACOH    H211411   3.411   8.161   9.353
  313ACOH    H311412   3.238   8.126   9.312
  314ACOH    H411413   2.556   7.589   9.039
  314ACOH    O211414   2.526   7.674   9.003
  314ACOH    C211415   2.497   7.655   8.874
  314ACOH    O111416   2.489   7.548   8.812
  314ACOH    C111417   2.500   7.779   8.795
  314ACOH    H111418   2.473   7.758   8.692
  314ACOH    H211419   2.603   7.816   8.796
  314ACOH    H311420   2.441   7.854   8.847
  315ACOH    H411421   3.141   8.972   7.511
  315ACOH    O211422   3.188   9.016   7.584
  315ACOH    C211423   3.141   8.943   7.689
  315ACOH    O111424   3.024   8.911   7.703
  315ACOH    C111425   3.220   8.976   7.808
  315ACOH    H111426   3.321   9.005   7.780
  315ACOH    H211427   3.234   8.894   7.878
  315ACOH    H311428   3.161   9.048   7.865
  316ACOH    H411429   3.114   8.493   9.448
  316ACOH    O211430   3.158   8.571   9.485
  316ACOH    C211431   3.236   8.619   9.384
  316ACOH    O111432   3.231   8.580   9.269
  316ACOH    C111433   3.327   8.717   9.432
  316ACOH    H111434   3.429   8.678   9.425
  316ACOH    H211435   3.312   8.732   9.539
  316ACOH    H311436   3.326   8.810   9.374
  317ACOH    H411437   3.141   8.972   9.356
  317ACOH    O211438   3.188   9.016   9.429
  317ACOH    C211439   3.141   8.943   9.534
  317ACOH    O111440   3.024   8.911   9.548
  317ACOH    C111441   3.220   8.976   9.653
  317ACOH    H111442   3.321   9.005   9.625
  317ACOH    H211443   3.234   8.894   9.723
  317ACOH    H311444   3.161   9.048   9.710
  318ACOH    H411445   2.556   9.434   1.657
  318ACOH    O211446   2.526   9.519   1.621
  318ACOH    C211447   2.497   9.500   1.492
  318ACOH    O111448   2.489   9.393   1.430
  318ACOH    C111449   2.500   9.624   1.413
  318ACOH    H111450   2.473   9.603   1.310
  318ACOH    H211451   2.603   9.661   1.414
  318ACOH    H311452   2.441   9.699   1.465
  319ACOH    H411453   2.556   9.434   3.502
  319ACOH    O211454   2.526   9.519   3.466
  319ACOH    C211455   2.497   9.500   3.337
  319ACOH    O111456   2.489   9.393   3.275
  319ACOH    C111457   2.500   9.624   3.258
  319ACOH    H111458   2.473   9.603   3.155
  319ACOH    H211459   2.603   9.661   3.259
  319ACOH    H311460   2.441   9.699   3.310
  320ACOH    H411461   2.556   9.434   5.348
  320ACOH    O211462   2.526   9.519   5.312
  320ACOH    C211463   2.497   9.500   5.183
  320ACOH    O111464   2.489   9.393   5.121
  320ACOH    C111465   2.500   9.624   5.104
  320ACOH    H111466   2.473   9.603   5.001
  320ACOH    H211467   2.603   9.661   5.105
  320ACOH    H311468   2.441   9.699   5.156
  321ACOH    H411469   2.556   9.434   7.193
  321ACOH    O211470   2.526   9.519   7.157
  321ACOH    C211471   2.497   9.500   7.028
  321ACOH    O111472   2.489   9.393   6.966
  321ACOH    C111473   2.500   9.624   6.949
  321ACOH    H111474   2.473   9.603   6.846
  321ACOH    H211475   2.603   9.661   6.950
  321ACOH    H311476   2.441   9.699   7.001
  322ACOH    H411477   2.556   9.434   9.039
  322ACOH    O211478   2.526   9.519   9.003
  322ACOH    C211479   2.497   9.500   8.874
  322ACOH    O111480   2.489   9.393   8.812
  322ACOH    C111481   2.500   9.624   8.795
  322ACOH    H111482   2.473   9.603   8.692
  322ACOH    H211483   2.603   9.661   8.796
  322ACOH    H311484   2.441   9.699   8.847
  323ACOH    H411485   4.960   1.111   0.221
  323ACOH    O211486   5.004   1.189   0.258
  323ACOH    C211487   5.082   1.237   0.157
  323ACOH    O111488   5.077   1.198   0.042
  323ACOH    C111489   5.173   1.335   0.205
  323ACOH    H111490   5.275   1.296   0.198
  323ACOH    H211491   5.158   1.350   0.312
  323ACOH    H311492   5.172   1.428   0.147
  324ACOH    H411493   5.279   0.993   1.688
  324ACOH    O211494   5.282   0.951   1.776
  324ACOH    C211495   5.170   0.879   1.795
  324ACOH    O111496   5.079   0.862   1.716
  324ACOH    C111497   5.164   0.818   1.930
  324ACOH    H111498   5.134   0.898   1.997
  324ACOH    H211499   5.257   0.779   1.971
  324ACOH    H311500   5.084   0.744   1.930
  325ACOH    H411501   4.402   0.207   1.657
  325ACOH    O211502   4.372   0.292   1.621
  325ACOH    C211503   4.343   0.273   1.492
  325ACOH    O111504   4.335   0.166   1.430
  325ACOH    C111505   4.346   0.397   1.413
  325ACOH    H111506   4.319   0.376   1.310
  325ACOH    H211507   4.449   0.434   1.414
  325ACOH    H311508   4.287   0.472   1.465
  326ACOH    H411509   4.960   1.111   2.066
  326ACOH    O211510   5.004   1.189   2.103
  326ACOH    C211511   5.082   1.237   2.002
  326ACOH    O111512   5.077   1.198   1.887
  326ACOH    C111513   5.173   1.335   2.050
  326ACOH    H111514   5.275   1.296   2.043
  326ACOH    H211515   5.158   1.350   2.157
  326ACOH    H311516   5.172   1.428   1.992
  327ACOH    H411517   5.279   0.993   3.533
  327ACOH    O211518   5.282   0.951   3.621
  327ACOH    C211519   5.170   0.879   3.640
  327ACOH    O111520   5.079   0.862   3.561
  327ACOH    C111521   5.164   0.818   3.775
  327ACOH    H111522   5.134   0.898   3.842
  327ACOH    H211523   5.257   0.779   3.816
  327ACOH    H311524   5.084   0.744   3.775
  328ACOH    H411525   4.987   1.590   1.974
  328ACOH    O211526   5.034   1.634   2.047
  328ACOH    C211527   4.987   1.561   2.152
  328ACOH    O111528   4.870   1.529   2.166
  328ACOH    C111529   5.066   1.594   2.271
  328ACOH    H111530   5.167   1.623   2.243
  328ACOH    H211531   5.080   1.512   2.341
  328ACOH    H311532   5.007   1.666   2.328
  329ACOH    H411533   4.960   1.111   3.912
  329ACOH    O211534   5.004   1.189   3.949
  329ACOH    C211535   5.082   1.237   3.848
  329ACOH    O111536   5.077   1.198   3.733
  329ACOH    C111537   5.173   1.335   3.896
  329ACOH    H111538   5.275   1.296   3.889
  329ACOH    H211539   5.158   1.350   4.003
  329ACOH    H311540   5.172   1.428   3.838
  330ACOH    H411541   5.279   0.993   5.379
  330ACOH    O211542   5.282   0.951   5.467
  330ACOH    C211543   5.170   0.879   5.486
  330ACOH    O111544   5.079   0.862   5.407
  330ACOH    C111545   5.164   0.818   5.621
  330ACOH    H111546   5.134   0.898   5.688
  330ACOH    H211547   5.257   0.779   5.662
  330ACOH    H311548   5.084   0.744   5.621
  331ACOH    H411549   4.402   0.207   5.348
  331ACOH    O211550   4.372   0.292   5.312
  331ACOH    C211551   4.343   0.273   5.183
  331ACOH    O111552   4.335   0.166   5.121
  331ACOH    C111553   4.346   0.397   5.104
  331ACOH    H111554   4.319   0.376   5.001
  331ACOH    H211555   4.449   0.434   5.105
  331ACOH    H311556   4.287   0.472   5.156
  332ACOH    H411557   4.987   1.590   3.820
  332ACOH    O211558   5.034   1.634   3.893
  332ACOH    C211559   4.987   1.561   3.998
  332ACOH    O111560   4.870   1.529   4.012
  332ACOH    C111561   5.066   1.594   4.117
  332ACOH    H111562   5.167   1.623   4.089
  332ACOH    H211563   5.080   1.512   4.187
  332ACOH    H311564   5.007   1.666   4.174
  333ACOH    H411565   4.960   1.111   5.757
  333ACOH    O211566   5.004   1.189   5.794
  333ACOH    C211567   5.082   1.237   5.693
  333ACOH    O111568   5.077   1.198   5.578
  333ACOH    C111569   5.173   1.335   5.741
  333ACOH    H111570   5.275   1.296   5.734
  333ACOH    H211571   5.158   1.350   5.848
  333ACOH    H311572   5.172   1.428   5.683
  334ACOH    H411573   5.279   0.993   7.224
  334ACOH    O211574   5.282   0.951   7.312
  334ACOH    C211575   5.170   0.879   7.331
  334ACOH    O111576   5.079   0.862   7.252
  334ACOH    C111577   5.164   0.818   7.466
  334ACOH    H111578   5.134   0.898   7.533
  334ACOH    H211579   5.257   0.779   7.507
  334ACOH    H311580   5.084   0.744   7.466
  335ACOH    H411581   4.987   1.590   5.665
  335ACOH    O211582   5.034   1.634   5.738
  335ACOH    C211583   4.987   1.561   5.843
  335ACOH    O111584   4.870   1.529   5.857
  335ACOH    C111585   5.066   1.594   5.962
  335ACOH    H111586   5.167   1.623   5.934
  335ACOH    H211587   5.080   1.512   6.032
  335ACOH    H311588   5.007   1.666   6.019
  336ACOH    H411589   4.960   1.111   7.603
  336ACOH    O211590   5.004   1.189   7.640
  336ACOH    C211591   5.082   1.237   7.539
  336ACOH    O111592   5.077   1.198   7.424
  336ACOH    C111593   5.173   1.335   7.587
  336ACOH    H111594   5.275   1.296   7.580
  336ACOH    H211595   5.158   1.350   7.694
  336ACOH    H311596   5.172   1.428   7.529
  337ACOH    H411597   5.279   0.993   9.070
  337ACOH    O211598   5.282   0.951   9.158
  337ACOH    C211599   5.170   0.879   9.177
  337ACOH    O111600   5.079   0.862   9.098
  337ACOH    C111601   5.164   0.818   9.312
  337ACOH    H111602   5.134   0.898   9.379
  337ACOH    H211603   5.257   0.779   9.353
  337ACOH    H311604   5.084   0.744   9.312
  338ACOH    H411605   4.402   0.207   9.039
  338ACOH    O211606   4.372   0.292   9.003
  338ACOH    C211607   4.343   0.273   8.874
  338ACOH    O111608   4.335   0.166   8.812
  338ACOH    C111609   4.346   0.397   8.795
  338ACOH    H111610   4.319   0.376   8.692
  338ACOH    H211611   4.449   0.434   8.796
  338ACOH    H311612   4.287   0.472   8.847
  339ACOH    H411613   4.987   1.590   7.511
  339ACOH    O211614   5.034   1.634   7.584
  339ACOH    C211615   4.987   1.561   7.689
  339ACOH    O111616   4.870   1.529   7.703
  339ACOH    C111617   5.066   1.594   7.808
  339ACOH    H111618   5.167   1.623   7.780
  339ACOH    H211619   5.080   1.512   7.878
  339ACOH    H311620   5.007   1.666   7.865
  340ACOH    H411621   4.960   1.111   9.448
  340ACOH    O211622   5.004   1.189   9.485
  340ACOH    C211623   5.082   1.237   9.384
  340ACOH    O111624   5.077   1.198   9.269
  340ACOH    C111625   5.173   1.335   9.432
  340ACOH    H111626   5.275   1.296   9.425
  340ACOH    H211627   5.158   1.350   9.539
  340ACOH    H311628   5.172   1.428   9.374
  341ACOH    H411629   4.987   1.590   9.356
  341ACOH    O211630   5.034   1.634   9.429
  341ACOH    C211631   4.987   1.561   9.534
  341ACOH    O111632   4.870   1.529   9.548
  341ACOH    C111633   5.066   1.594   9.653
  341ACOH    H111634   5.167   1.623   9.625
  341ACOH    H211635   5.080   1.512   9.723
  341ACOH    H311636   5.007   1.666   9.710
  342ACOH    H411637   4.960   2.956   0.221
  342ACOH    O211638   5.004   3.034   0.258
  342ACOH    C211639   5.082   3.082   0.157
  342ACOH    O111640   5.077   3.043   0.042
  342ACOH    C111641   5.173   3.180   0.205
  342ACOH    H111642   5.275   3.141   0.198
  342ACOH    H211643   5.158   3.195   0.312
  342ACOH    H311644   5.172   3.273   0.147
  343ACOH    H411645   5.279   2.838   1.688
  343ACOH    O211646   5.282   2.796   1.776
  343ACOH    C211647   5.170   2.724   1.795
  343ACOH    O111648   5.079   2.707   1.716
  343ACOH    C111649   5.164   2.663   1.930
  343ACOH    H111650   5.134   2.743   1.997
  343ACOH    H211651   5.257   2.624   1.971
  343ACOH    H311652   5.084   2.589   1.930
  344ACOH    H411653   4.402   2.052   1.657
  344ACOH    O211654   4.372   2.137   1.621
  344ACOH    C211655   4.343   2.118   1.492
  344ACOH    O111656   4.335   2.011   1.430
  344ACOH    C111657   4.346   2.242   1.413
  344ACOH    H111658   4.319   2.221   1.310
  344ACOH    H211659   4.449   2.279   1.414
  344ACOH    H311660   4.287   2.317   1.465
  345ACOH    H411661   4.987   3.435   0.129
  345ACOH    O211662   5.034   3.479   0.202
  345ACOH    C211663   4.987   3.406   0.307
  345ACOH    O111664   4.870   3.374   0.321
  345ACOH    C111665   5.066   3.439   0.426
  345ACOH    H111666   5.167   3.468   0.398
  345ACOH    H211667   5.080   3.357   0.496
  345ACOH    H311668   5.007   3.511   0.483
  346ACOH    H411669   4.960   2.956   2.066
  346ACOH    O211670   5.004   3.034   2.103
  346ACOH    C211671   5.082   3.082   2.002
  346ACOH    O111672   5.077   3.043   1.887
  346ACOH    C111673   5.173   3.180   2.050
  346ACOH    H111674   5.275   3.141   2.043
  346ACOH    H211675   5.158   3.195   2.157
  346ACOH    H311676   5.172   3.273   1.992
  347ACOH    H411677   4.402   2.052   3.502
  347ACOH    O211678   4.372   2.137   3.466
  347ACOH    C211679   4.343   2.118   3.337
  347ACOH    O111680   4.335   2.011   3.275
  347ACOH    C111681   4.346   2.242   3.258
  347ACOH    H111682   4.319   2.221   3.155
  347ACOH    H211683   4.449   2.279   3.259
  347ACOH    H311684   4.287   2.317   3.310
  348ACOH    H411685   4.987   3.435   1.974
  348ACOH    O211686   5.034   3.479   2.047
  348ACOH    C211687   4.987   3.406   2.152
  348ACOH    O111688   4.870   3.374   2.166
  348ACOH    C111689   5.066   3.439   2.271
  348ACOH    H111690   5.167   3.468   2.243
  348ACOH    H211691   5.080   3.357   2.341
  348ACOH    H311692   5.007   3.511   2.328
  349ACOH    H411693   4.960   2.956   3.912
  349ACOH    O211694   5.004   3.034   3.949
  349ACOH    C211695   5.082   3.082   3.848
  349ACOH    O111696   5.077   3.043   3.733
  349ACOH    C111697   5.173   3.180   3.896
  349ACOH    H111698   5.275   3.141   3.889
  349ACOH    H211699   5.158   3.195   4.003
  349ACOH    H311700   5.172   3.273   3.838
  350ACOH    H411701   5.279   2.838   5.379
  350ACOH    O211702   5.282   2.796   5.467
  350ACOH    C211703   5.170   2.724   5.486
  350ACOH    O111704   5.079   2.707   5.407
  350ACOH    C111705   5.164   2.663   5.621
  350ACOH    H111706   5.134   2.743   5.688
  350ACOH    H211707   5.257   2.624   5.662
  350ACOH    H311708   5.084   2.589   5.621
  351ACOH    H411709   4.402   2.052   5.348
  351ACOH    O211710   4.372   2.137   5.312
  351ACOH    C211711   4.343   2.118   5.183
  351ACOH    O111712   4.335   2.011   5.121
  351ACOH    C111713   4.346   2.242   5.104
  351ACOH    H111714   4.319   2.221   5.001
  351ACOH    H211715   4.449   2.279   5.105
  351ACOH    H311716   4.287   2.317   5.156
  352ACOH    H411717   4.960   2.956   5.757
  352ACOH    O211718   5.004   3.034   5.794
  352ACOH    C211719   5.082   3.082   5.693
  352ACOH    O111720   5.077   3.043   5.578
  352ACOH    C111721   5.173   3.180   5.741
  352ACOH    H111722   5.275   3.141   5.734
  352ACOH    H211723   5.158   3.195   5.848
  352ACOH    H311724   5.172   3.273   5.683
  353ACOH    H411725   5.279   2.838   7.224
  353ACOH    O211726   5.282   2.796   7.312
  353ACOH    C211727   5.170   2.724   7.331
  353ACOH    O111728   5.079   2.707   7.252
  353ACOH    C111729   5.164   2.663   7.466
  353ACOH    H111730   5.134   2.743   7.533
  353ACOH    H211731   5.257   2.624   7.507
  353ACOH    H311732   5.084   2.589   7.466
  354ACOH    H411733   4.402   2.052   7.193
  354ACOH    O211734   4.372   2.137   7.157
  354ACOH    C211735   4.343   2.118   7.028
  354ACOH    O111736   4.335   2.011   6.966
  354ACOH    C111737   4.346   2.242   6.949
  354ACOH    H111738   4.319   2.221   6.846
  354ACOH    H211739   4.449   2.279   6.950
  354ACOH    H311740   4.287   2.317   7.001
  355ACOH    H411741   4.987   3.435   5.665
  355ACOH    O211742   5.034   3.479   5.738
  355ACOH    C211743   4.987   3.406   5.843
  355ACOH    O111744   4.870   3.374   5.857
  355ACOH    C111745   5.066   3.439   5.962
  355ACOH    H111746   5.167   3.468   5.934
  355ACOH    H211747   5.080   3.357   6.032
  355ACOH    H311748   5.007   3.511   6.019
  356ACOH    H411749   4.960   2.956   7.603
  356ACOH    O211750   5.004   3.034   7.640
  356ACOH    C211751   5.082   3.082   7.539
  356ACOH    O111752   5.077   3.043   7.424
  356ACOH    C111753   5.173   3.180   7.587
  356ACOH    H111754   5.275   3.141   7.580
  356ACOH    H211755   5.158   3.195   7.694
  356ACOH    H311756   5.172   3.273   7.529
  357ACOH    H411757   5.279   2.838   9.070
  357ACOH    O211758   5.282   2.796   9.158
  357ACOH    C211759   5.170   2.724   9.177
  357ACOH    O111760   5.079   2.707   9.098
  357ACOH    C111761   5.164   2.663   9.312
  357ACOH    H111762   5.134   2.743   9.379
  357ACOH    H211763   5.257   2.624   9.353
  357ACOH    H311764   5.084   2.589   9.312
  358ACOH    H411765   4.402   2.052   9.039
  358ACOH    O211766   4.372   2.137   9.003
  358ACOH    C211767   4.343   2.118   8.874
  358ACOH    O111768   4.335   2.011   8.812
  358ACOH    C111769   4.346   2.242   8.795
  358ACOH    H111770   4.319   2.221   8.692
  358ACOH    H211771   4.449   2.279   8.796
  358ACOH    H311772   4.287   2.317   8.847
  359ACOH    H411773   4.987   3.435   7.511
  359ACOH    O211774   5.034   3.479   7.584
  359ACOH    C211775   4.987   3.406   7.689
  359ACOH    O111776   4.870   3.374   7.703
  359ACOH    C111777   5.066   3.439   7.808
  359ACOH    H111778   5.167   3.468   7.780
  359ACOH    H211779   5.080   3.357   7.878
  359ACOH    H311780   5.007   3.511   7.865
  360ACOH    H411781   4.960   2.956   9.448
  360ACOH    O211782   5.004   3.034   9.485
  360ACOH    C211783   5.082   3.082   9.384
  360ACOH    O111784   5.077   3.043   9.269
  360ACOH    C111785   5.173   3.180   9.432
  360ACOH    H111786   5.275   3.141   9.425
  360ACOH    H211787   5.158   3.195   9.539
  360ACOH    H311788   5.172   3.273   9.374
  361ACOH    H411789   4.987   3.435   9.356
  361ACOH    O211790   5.034   3.479   9.429
  361ACOH    C211791   4.987   3.406   9.534
  361ACOH    O111792   4.870   3.374   9.548
  361ACOH    C111793   5.066   3.439   9.653
  361ACOH    H111794   5.167   3.468   9.625
  361ACOH    H211795   5.080   3.357   9.723
  361ACOH    H311796   5.007   3.511   9.710
  362ACOH    H411797   4.960   4.802   0.221
  362ACOH    O211798   5.004   4.880   0.258
  362ACOH    C211799   5.082   4.928   0.157
  362ACOH    O111800   5.077   4.889   0.042
  362ACOH    C111801   5.173   5.026   0.205
  362ACOH    H111802   5.275   4.987   0.198
  362ACOH    H211803   5.158   5.041   0.312
  362ACOH    H311804   5.172   5.119   0.147
  363ACOH    H411805   5.279   4.684   1.688
  363ACOH    O211806   5.282   4.642   1.776
  363ACOH    C211807   5.170   4.570   1.795
  363ACOH    O111808   5.079   4.553   1.716
  363ACOH    C111809   5.164   4.509   1.930
  363ACOH    H111810   5.134   4.589   1.997
  363ACOH    H211811   5.257   4.470   1.971
  363ACOH    H311812   5.084   4.435   1.930
  364ACOH    H411813   4.402   3.898   1.657
  364ACOH    O211814   4.372   3.983   1.621
  364ACOH    C211815   4.343   3.964   1.492
  364ACOH    O111816   4.335   3.857   1.430
  364ACOH    C111817   4.346   4.088   1.413
  364ACOH    H111818   4.319   4.067   1.310
  364ACOH    H211819   4.449   4.125   1.414
  364ACOH    H311820   4.287   4.163   1.465
  365ACOH    H411821   4.987   5.281   0.129
  365ACOH    O211822   5.034   5.325   0.202
  365ACOH    C211823   4.987   5.252   0.307
  365ACOH    O111824   4.870   5.220   0.321
  365ACOH    C111825   5.066   5.285   0.426
  365ACOH    H111826   5.167   5.314   0.398
  365ACOH    H211827   5.080   5.203   0.496
  365ACOH    H311828   5.007   5.357   0.483
  366ACOH    H411829   4.960   4.802   2.066
  366ACOH    O211830   5.004   4.880   2.103
  366ACOH    C211831   5.082   4.928   2.002
  366ACOH    O111832   5.077   4.889   1.887
  366ACOH    C111833   5.173   5.026   2.050
  366ACOH    H111834   5.275   4.987   2.043
  366ACOH    H211835   5.158   5.041   2.157
  366ACOH    H311836   5.172   5.119   1.992
  367ACOH    H411837   5.279   4.684   3.533
  367ACOH    O211838   5.282   4.642   3.621
  367ACOH    C211839   5.170   4.570   3.640
  367ACOH    O111840   5.079   4.553   3.561
  367ACOH    C111841   5.164   4.509   3.775
  367ACOH    H111842   5.134   4.589   3.842
  367ACOH    H211843   5.257   4.470   3.816
  367ACOH    H311844   5.084   4.435   3.775
  368ACOH    H411845   4.402   3.898   3.502
  368ACOH    O211846   4.372   3.983   3.466
  368ACOH    C211847   4.343   3.964   3.337
  368ACOH    O111848   4.335   3.857   3.275
  368ACOH    C111849   4.346   4.088   3.258
  368ACOH    H111850   4.319   4.067   3.155
  368ACOH    H211851   4.449   4.125   3.259
  368ACOH    H311852   4.287   4.163   3.310
  369ACOH    H411853   4.987   5.281   1.974
  369ACOH    O211854   5.034   5.325   2.047
  369ACOH    C211855   4.987   5.252   2.152
  369ACOH    O111856   4.870   5.220   2.166
  369ACOH    C111857   5.066   5.285   2.271
  369ACOH    H111858   5.167   5.314   2.243
  369ACOH    H211859   5.080   5.203   2.341
  369ACOH    H311860   5.007   5.357   2.328
  370ACOH    H411861   4.960   4.802   3.912
  370ACOH    O211862   5.004   4.880   3.949
  370ACOH    C211863   5.082   4.928   3.848
  370ACOH    O111864   5.077   4.889   3.733
  370ACOH    C111865   5.173   5.026   3.896
  370ACOH    H111866   5.275   4.987   3.889
  370ACOH    H211867   5.158   5.041   4.003
  370ACOH    H311868   5.172   5.119   3.838
  371ACOH    H411869   5.279   4.684   5.379
  371ACOH    O211870   5.282   4.642   5.467
  371ACOH    C211871   5.170   4.570   5.486
  371ACOH    O111872   5.079   4.553   5.407
  371ACOH    C111873   5.164   4.509   5.621
  371ACOH    H111874   5.134   4.589   5.688
  371ACOH    H211875   5.257   4.470   5.662
  371ACOH    H311876   5.084   4.435   5.621
  372ACOH    H411877   4.402   3.898   5.348
  372ACOH    O211878   4.372   3.983   5.312
  372ACOH    C211879   4.343   3.964   5.183
  372ACOH    O111880   4.335   3.857   5.121
  372ACOH    C111881   4.346   4.088   5.104
  372ACOH    H111882   4.319   4.067   5.001
  372ACOH    H211883   4.449   4.125   5.105
  372ACOH    H311884   4.287   4.163   5.156
  373ACOH    H411885   4.987   5.281   3.820
  373ACOH    O211886   5.034   5.325   3.893
  373ACOH    C211887   4.987   5.252   3.998
  373ACOH    O111888   4.870   5.220   4.012
  373ACOH    C111889   5.066   5.285   4.117
  373ACOH    H111890   5.167   5.314   4.089
  373ACOH    H211891   5.080   5.203   4.187
  373ACOH    H311892   5.007   5.357   4.174
  374ACOH    H411893   4.960   4.802   5.757
  374ACOH    O211894   5.004   4.880   5.794
  374ACOH    C211895   5.082   4.928   5.693
  374ACOH    O111896   5.077   4.889   5.578
  374ACOH    C111897   5.173   5.026   5.741
  374ACOH    H111898   5.275   4.987   5.734
  374ACOH    H211899   5.158   5.041   5.848
  374ACOH    H311900   5.172   5.119   5.683
  375ACOH    H411901   4.402   3.898   7.193
  375ACOH    O211902   4.372   3.983   7.157
  375ACOH    C211903   4.343   3.964   7.028
  375ACOH    O111904   4.335   3.857   6.966
  375ACOH    C111905   4.346   4.088   6.949
  375ACOH    H111906   4.319   4.067   6.846
  375ACOH    H211907   4.449   4.125   6.950
  375ACOH    H311908   4.287   4.163   7.001
  376ACOH    H411909   4.987   5.281   5.665
  376ACOH    O211910   5.034   5.325   5.738
  376ACOH    C211911   4.987   5.252   5.843
  376ACOH    O111912   4.870   5.220   5.857
  376ACOH    C111913   5.066   5.285   5.962
  376ACOH    H111914   5.167   5.314   5.934
  376ACOH    H211915   5.080   5.203   6.032
  376ACOH    H311916   5.007   5.357   6.019
  377ACOH    H411917   5.279   4.684   9.070
  377ACOH    O211918   5.282   4.642   9.158
  377ACOH    C211919   5.170   4.570   9.177
  377ACOH    O111920   5.079   4.553   9.098
  377ACOH    C111921   5.164   4.509   9.312
  377ACOH    H111922   5.134   4.589   9.379
  377ACOH    H211923   5.257   4.470   9.353
  377ACOH    H311924   5.084   4.435   9.312
  378ACOH    H411925   4.402   3.898   9.039
  378ACOH    O211926   4.372   3.983   9.003
  378ACOH    C211927   4.343   3.964   8.874
  378ACOH    O111928   4.335   3.857   8.812
  378ACOH    C111929   4.346   4.088   8.795
  378ACOH    H111930   4.319   4.067   8.692
  378ACOH    H211931   4.449   4.125   8.796
  378ACOH    H311932   4.287   4.163   8.847
  379ACOH    H411933   4.960   4.802   9.448
  379ACOH    O211934   5.004   4.880   9.485
  379ACOH    C211935   5.082   4.928   9.384
  379ACOH    O111936   5.077   4.889   9.269
  379ACOH    C111937   5.173   5.026   9.432
  379ACOH    H111938   5.275   4.987   9.425
  379ACOH    H211939   5.158   5.041   9.539
  379ACOH    H311940   5.172   5.119   9.374
  380ACOH    H411941   4.987   5.281   9.356
  380ACOH    O211942   5.034   5.325   9.429
  380ACOH    C211943   4.987   5.252   9.534
  380ACOH    O111944   4.870   5.220   9.548
  380ACOH    C111945   5.066   5.285   9.653
  380ACOH    H111946   5.167   5.314   9.625
  380ACOH    H211947   5.080   5.203   9.723
  380ACOH    H311948   5.007   5.357   9.710
  381ACOH    H411949   4.960   6.647   0.221
  381ACOH    O211950   5.004   6.725   0.258
  381ACOH    C211951   5.082   6.773   0.157
  381ACOH    O111952   5.077   6.734   0.042
  381ACOH    C111953   5.173   6.871   0.205
  381ACOH    H111954   5.275   6.832   0.198
  381ACOH    H211955   5.158   6.886   0.312
  381ACOH    H311956   5.172   6.964   0.147
  382ACOH    H411957   5.279   6.529   1.688
  382ACOH    O211958   5.282   6.487   1.776
  382ACOH    C211959   5.170   6.415   1.795
  382ACOH    O111960   5.079   6.398   1.716
  382ACOH    C111961   5.164   6.354   1.930
  382ACOH    H111962   5.134   6.434   1.997
  382ACOH    H211963   5.257   6.315   1.971
  382ACOH    H311964   5.084   6.280   1.930
  383ACOH    H411965   4.402   5.743   1.657
  383ACOH    O211966   4.372   5.828   1.621
  383ACOH    C211967   4.343   5.809   1.492
  383ACOH    O111968   4.335   5.702   1.430
  383ACOH    C111969   4.346   5.933   1.413
  383ACOH    H111970   4.319   5.912   1.310
  383ACOH    H211971   4.449   5.970   1.414
  383ACOH    H311972   4.287   6.008   1.465
  384ACOH    H411973   4.987   7.126   0.129
  384ACOH    O211974   5.034   7.170   0.202
  384ACOH    C211975   4.987   7.097   0.307
  384ACOH    O111976   4.870   7.065   0.321
  384ACOH    C111977   5.066   7.130   0.426
  384ACOH    H111978   5.167   7.159   0.398
  384ACOH    H211979   5.080   7.048   0.496
  384ACOH    H311980   5.007   7.202   0.483
  385ACOH    H411981   5.279   6.529   3.533
  385ACOH    O211982   5.282   6.487   3.621
  385ACOH    C211983   5.170   6.415   3.640
  385ACOH    O111984   5.079   6.398   3.561
  385ACOH    C111985   5.164   6.354   3.775
  385ACOH    H111986   5.134   6.434   3.842
  385ACOH    H211987   5.257   6.315   3.816
  385ACOH    H311988   5.084   6.280   3.775
  386ACOH    H411989   4.402   5.743   3.502
  386ACOH    O211990   4.372   5.828   3.466
  386ACOH    C211991   4.343   5.809   3.337
  386ACOH    O111992   4.335   5.702   3.275
  386ACOH    C111993   4.346   5.933   3.258
  386ACOH    H111994   4.319   5.912   3.155
  386ACOH    H211995   4.449   5.970   3.259
  386ACOH    H311996   4.287   6.008   3.310
  387ACOH    H411997   4.960   6.647   3.912
  387ACOH    O211998   5.004   6.725   3.949
  387ACOH    C211999   5.082   6.773   3.848
  387ACOH    O112000   5.077   6.734   3.733
  387ACOH    C112001   5.173   6.871   3.896
  387ACOH    H112002   5.275   6.832   3.889
  387ACOH    H212003   5.158   6.886   4.003
  387ACOH    H312004   5.172   6.964   3.838
  388ACOH    H412005   5.279   6.529   5.379
  388ACOH    O212006   5.282   6.487   5.467
  388ACOH    C212007   5.170   6.415   5.486
  388ACOH    O112008   5.079   6.398   5.407
  388ACOH    C112009   5.164   6.354   5.621
  388ACOH    H112010   5.134   6.434   5.688
  388ACOH    H212011   5.257   6.315   5.662
  388ACOH    H312012   5.084   6.280   5.621
  389ACOH    H412013   4.402   5.743   5.348
  389ACOH    O212014   4.372   5.828   5.312
  389ACOH    C212015   4.343   5.809   5.183
  389ACOH    O112016   4.335   5.702   5.121
  389ACOH    C112017   4.346   5.933   5.104
  389ACOH    H112018   4.319   5.912   5.001
  389ACOH    H212019   4.449   5.970   5.105
  389ACOH    H312020   4.287   6.008   5.156
  390ACOH    H412021   4.987   7.126   3.820
  390ACOH    O212022   5.034   7.170   3.893
  390ACOH    C212023   4.987   7.097   3.998
  390ACOH    O112024   4.870   7.065   4.012
  390ACOH    C112025   5.066   7.130   4.117
  390ACOH    H112026   5.167   7.159   4.089
  390ACOH    H212027   5.080   7.048   4.187
  390ACOH    H312028   5.007   7.202   4.174
  391ACOH    H412029   4.960   6.647   5.757
  391ACOH    O212030   5.004   6.725   5.794
  391ACOH    C212031   5.082   6.773   5.693
  391ACOH    O112032   5.077   6.734   5.578
  391ACOH    C112033   5.173   6.871   5.741
  391ACOH    H112034   5.275   6.832   5.734
  391ACOH    H212035   5.158   6.886   5.848
  391ACOH    H312036   5.172   6.964   5.683
  392ACOH    H412037   5.279   6.529   7.224
  392ACOH    O212038   5.282   6.487   7.312
  392ACOH    C212039   5.170   6.415   7.331
  392ACOH    O112040   5.079   6.398   7.252
  392ACOH    C112041   5.164   6.354   7.466
  392ACOH    H112042   5.134   6.434   7.533
  392ACOH    H212043   5.257   6.315   7.507
  392ACOH    H312044   5.084   6.280   7.466
  393ACOH    H412045   4.402   5.743   7.193
  393ACOH    O212046   4.372   5.828   7.157
  393ACOH    C212047   4.343   5.809   7.028
  393ACOH    O112048   4.335   5.702   6.966
  393ACOH    C112049   4.346   5.933   6.949
  393ACOH    H112050   4.319   5.912   6.846
  393ACOH    H212051   4.449   5.970   6.950
  393ACOH    H312052   4.287   6.008   7.001
  394ACOH    H412053   4.987   7.126   5.665
  394ACOH    O212054   5.034   7.170   5.738
  394ACOH    C212055   4.987   7.097   5.843
  394ACOH    O112056   4.870   7.065   5.857
  394ACOH    C112057   5.066   7.130   5.962
  394ACOH    H112058   5.167   7.159   5.934
  394ACOH    H212059   5.080   7.048   6.032
  394ACOH    H312060   5.007   7.202   6.019
  395ACOH    H412061   4.960   6.647   7.603
  395ACOH    O212062   5.004   6.725   7.640
  395ACOH    C212063   5.082   6.773   7.539
  395ACOH    O112064   5.077   6.734   7.424
  395ACOH    C112065   5.173   6.871   7.587
  395ACOH    H112066   5.275   6.832   7.580
  395ACOH    H212067   5.158   6.886   7.694
  395ACOH    H312068   5.172   6.964   7.529
  396ACOH    H412069   5.279   6.529   9.070
  396ACOH    O212070   5.282   6.487   9.158
  396ACOH    C212071   5.170   6.415   9.177
  396ACOH    O112072   5.079   6.398   9.098
  396ACOH    C112073   5.164   6.354   9.312
  396ACOH    H112074   5.134   6.434   9.379
  396ACOH    H212075   5.257   6.315   9.353
  396ACOH    H312076   5.084   6.280   9.312
  397ACOH    H412077   4.402   5.743   9.039
  397ACOH    O212078   4.372   5.828   9.003
  397ACOH    C212079   4.343   5.809   8.874
  397ACOH    O112080   4.335   5.702   8.812
  397ACOH    C112081   4.346   5.933   8.795
  397ACOH    H112082   4.319   5.912   8.692
  397ACOH    H212083   4.449   5.970   8.796
  397ACOH    H312084   4.287   6.008   8.847
  398ACOH    H412085   4.987   7.126   7.511
  398ACOH    O212086   5.034   7.170   7.584
  398ACOH    C212087   4.987   7.097   7.689
  398ACOH    O112088   4.870   7.065   7.703
  398ACOH    C112089   5.066   7.130   7.808
  398ACOH    H112090   5.167   7.159   7.780
  398ACOH    H212091   5.080   7.048   7.878
  398ACOH    H312092   5.007   7.202   7.865
  399ACOH    H412093   4.960   6.647   9.448
  399ACOH    O212094   5.004   6.725   9.485
  399ACOH    C212095   5.082   6.773   9.384
  399ACOH    O112096   5.077   6.734   9.269
  399ACOH    C112097   5.173   6.871   9.432
  399ACOH    H112098   5.275   6.832   9.425
  399ACOH    H212099   5.158   6.886   9.539
  399ACOH    H312100   5.172   6.964   9.374
  400ACOH    H412101   5.279   8.375   1.688
  400ACOH    O212102   5.282   8.333   1.776
  400ACOH    C212103   5.170   8.261   1.795
  400ACOH    O112104   5.079   8.244   1.716
  400ACOH    C112105   5.164   8.200   1.930
  400ACOH    H112106   5.134   8.280   1.997
  400ACOH    H212107   5.257   8.161   1.971
  400ACOH    H312108   5.084   8.126   1.930
  401ACOH    H412109   4.402   7.589   1.657
  401ACOH    O212110   4.372   7.674   1.621
  401ACOH    C212111   4.343   7.655   1.492
  401ACOH    O112112   4.335   7.548   1.430
  401ACOH    C112113   4.346   7.779   1.413
  401ACOH    H112114   4.319   7.758   1.310
  401ACOH    H212115   4.449   7.816   1.414
  401ACOH    H312116   4.287   7.854   1.465
  402ACOH    H412117   4.960   8.493   2.066
  402ACOH    O212118   5.004   8.571   2.103
  402ACOH    C212119   5.082   8.619   2.002
  402ACOH    O112120   5.077   8.580   1.887
  402ACOH    C112121   5.173   8.717   2.050
  402ACOH    H112122   5.275   8.678   2.043
  402ACOH    H212123   5.158   8.732   2.157
  402ACOH    H312124   5.172   8.810   1.992
  403ACOH    H412125   4.402   7.589   3.502
  403ACOH    O212126   4.372   7.674   3.466
  403ACOH    C212127   4.343   7.655   3.337
  403ACOH    O112128   4.335   7.548   3.275
  403ACOH    C112129   4.346   7.779   3.258
  403ACOH    H112130   4.319   7.758   3.155
  403ACOH    H212131   4.449   7.816   3.259
  403ACOH    H312132   4.287   7.854   3.310
  404ACOH    H412133   4.987   8.972   1.974
  404ACOH    O212134   5.034   9.016   2.047
  404ACOH    C212135   4.987   8.943   2.152
  404ACOH    O112136   4.870   8.911   2.166
  404ACOH    C112137   5.066   8.976   2.271
  404ACOH    H112138   5.167   9.005   2.243
  404ACOH    H212139   5.080   8.894   2.341
  404ACOH    H312140   5.007   9.048   2.328
  405ACOH    H412141   5.279   8.375   5.379
  405ACOH    O212142   5.282   8.333   5.467
  405ACOH    C212143   5.170   8.261   5.486
  405ACOH    O112144   5.079   8.244   5.407
  405ACOH    C112145   5.164   8.200   5.621
  405ACOH    H112146   5.134   8.280   5.688
  405ACOH    H212147   5.257   8.161   5.662
  405ACOH    H312148   5.084   8.126   5.621
  406ACOH    H412149   4.402   7.589   5.348
  406ACOH    O212150   4.372   7.674   5.312
  406ACOH    C212151   4.343   7.655   5.183
  406ACOH    O112152   4.335   7.548   5.121
  406ACOH    C112153   4.346   7.779   5.104
  406ACOH    H112154   4.319   7.758   5.001
  406ACOH    H212155   4.449   7.816   5.105
  406ACOH    H312156   4.287   7.854   5.156
  407ACOH    H412157   4.987   8.972   3.820
  407ACOH    O212158   5.034   9.016   3.893
  407ACOH    C212159   4.987   8.943   3.998
  407ACOH    O112160   4.870   8.911   4.012
  407ACOH    C112161   5.066   8.976   4.117
  407ACOH    H112162   5.167   9.005   4.089
  407ACOH    H212163   5.080   8.894   4.187
  407ACOH    H312164   5.007   9.048   4.174
  408ACOH    H412165   4.960   8.493   5.757
  408ACOH    O212166   5.004   8.571   5.794
  408ACOH    C212167   5.082   8.619   5.693
  408ACOH    O112168   5.077   8.580   5.578
  408ACOH    C112169   5.173   8.717   5.741
  408ACOH    H112170   5.275   8.678   5.734
  408ACOH    H212171   5.158   8.732   5.848
  408ACOH    H312172   5.172   8.810   5.683
  409ACOH    H412173   4.402   7.589   7.193
  409ACOH    O212174   4.372   7.674   7.157
  409ACOH    C212175   4.343   7.655   7.028
  409ACOH    O112176   4.335   7.548   6.966
  409ACOH    C112177   4.346   7.779   6.949
  409ACOH    H112178   4.319   7.758   6.846
  409ACOH    H212179   4.449   7.816   6.950
  409ACOH    H312180   4.287   7.854   7.001
  410ACOH    H412181   5.279   8.375   9.070
  410ACOH    O212182   5.282   8.333   9.158
  410ACOH    C212183   5.170   8.261   9.177
  410ACOH    O112184   5.079   8.244   9.098
  410ACOH    C112185   5.164   8.200   9.312
  410ACOH    H112186   5.134   8.280   9.379
  410ACOH    H212187   5.257   8.161   9.353
  410ACOH    H312188   5.084   8.126   9.312
  411ACOH    H412189   4.402   7.589   9.039
  411ACOH    O212190   4.372   7.674   9.003
  411ACOH    C212191   4.343   7.655   8.874
  411ACOH    O112192   4.335   7.548   8.812
  411ACOH    C112193   4.346   7.779   8.795
  411ACOH    H112194   4.319   7.758   8.692
  411ACOH    H212195   4.449   7.816   8.796
  411ACOH    H312196   4.287   7.854   8.847
  412ACOH    H412197   4.987   8.972   7.511
  412ACOH    O212198   5.034   9.016   7.584
  412ACOH    C212199   4.987   8.943   7.689
  412ACOH    O112200   4.870   8.911   7.703
  412ACOH    C112201   5.066   8.976   7.808
  412ACOH    H112202   5.167   9.005   7.780
  412ACOH    H212203   5.080   8.894   7.878
  412ACOH    H312204   5.007   9.048   7.865
  413ACOH    H412205   4.960   8.493   9.448
  413ACOH    O212206   5.004   8.571   9.485
  413ACOH    C212207   5.082   8.619   9.384
  413ACOH    O112208   5.077   8.580   9.269
  413ACOH    C112209   5.173   8.717   9.432
  413ACOH    H112210   5.275   8.678   9.425
  413ACOH    H212211   5.158   8.732   9.539
  413ACOH    H312212   5.172   8.810   9.374
  414ACOH    H412213   4.987   8.972   9.356
  414ACOH    O212214   5.034   9.016   9.429
  414ACOH    C212215   4.987   8.943   9.534
  414ACOH    O112216   4.870   8.911   9.548
  414ACOH    C112217   5.066   8.976   9.653
  414ACOH    H112218   5.167   9.005   9.625
  414ACOH    H212219   5.080   8.894   9.723
  414ACOH    H312220   5.007   9.048   9.710
  415ACOH    H412221   4.402   9.434   3.502
  415ACOH    O212222   4.372   9.519   3.466
  415ACOH    C212223   4.343   9.500   3.337
  415ACOH    O112224   4.335   9.393   3.275
  415ACOH    C112225   4.346   9.624   3.258
  415ACOH    H112226   4.319   9.603   3.155
  415ACOH    H212227   4.449   9.661   3.259
  415ACOH    H312228   4.287   9.699   3.310
  416ACOH    H412229   4.402   9.434   9.039
  416ACOH    O212230   4.372   9.519   9.003
  416ACOH    C212231   4.343   9.500   8.874
  416ACOH    O112232   4.335   9.393   8.812
  416ACOH    C112233   4.346   9.624   8.795
  416ACOH    H112234   4.319   9.603   8.692
  416ACOH    H212235   4.449   9.661   8.796
  416ACOH    H312236   4.287   9.699   8.847
  417ACOH    H412237   6.805   1.111   0.221
  417ACOH    O212238   6.849   1.189   0.258
  417ACOH    C212239   6.927   1.237   0.157
  417ACOH    O112240   6.922   1.198   0.042
  417ACOH    C112241   7.018   1.335   0.205
  417ACOH    H112242   7.120   1.296   0.198
  417ACOH    H212243   7.003   1.350   0.312
  417ACOH    H312244   7.017   1.428   0.147
  418ACOH    H412245   7.124   0.993   1.688
  418ACOH    O212246   7.127   0.951   1.776
  418ACOH    C212247   7.015   0.879   1.795
  418ACOH    O112248   6.924   0.862   1.716
  418ACOH    C112249   7.009   0.818   1.930
  418ACOH    H112250   6.979   0.898   1.997
  418ACOH    H212251   7.102   0.779   1.971
  418ACOH    H312252   6.929   0.744   1.930
  419ACOH    H412253   6.247   0.207   1.657
  419ACOH    O212254   6.217   0.292   1.621
  419ACOH    C212255   6.188   0.273   1.492
  419ACOH    O112256   6.180   0.166   1.430
  419ACOH    C112257   6.191   0.397   1.413
  419ACOH    H112258   6.164   0.376   1.310
  419ACOH    H212259   6.294   0.434   1.414
  419ACOH    H312260   6.132   0.472   1.465
  420ACOH    H412261   6.832   1.590   0.129
  420ACOH    O212262   6.879   1.634   0.202
  420ACOH    C212263   6.832   1.561   0.307
  420ACOH    O112264   6.715   1.529   0.321
  420ACOH    C112265   6.911   1.594   0.426
  420ACOH    H112266   7.012   1.623   0.398
  420ACOH    H212267   6.925   1.512   0.496
  420ACOH    H312268   6.852   1.666   0.483
  421ACOH    H412269   6.805   1.111   2.066
  421ACOH    O212270   6.849   1.189   2.103
  421ACOH    C212271   6.927   1.237   2.002
  421ACOH    O112272   6.922   1.198   1.887
  421ACOH    C112273   7.018   1.335   2.050
  421ACOH    H112274   7.120   1.296   2.043
  421ACOH    H212275   7.003   1.350   2.157
  421ACOH    H312276   7.017   1.428   1.992
  422ACOH    H412277   7.124   0.993   3.533
  422ACOH    O212278   7.127   0.951   3.621
  422ACOH    C212279   7.015   0.879   3.640
  422ACOH    O112280   6.924   0.862   3.561
  422ACOH    C112281   7.009   0.818   3.775
  422ACOH    H112282   6.979   0.898   3.842
  422ACOH    H212283   7.102   0.779   3.816
  422ACOH    H312284   6.929   0.744   3.775
  423ACOH    H412285   6.247   0.207   3.502
  423ACOH    O212286   6.217   0.292   3.466
  423ACOH    C212287   6.188   0.273   3.337
  423ACOH    O112288   6.180   0.166   3.275
  423ACOH    C112289   6.191   0.397   3.258
  423ACOH    H112290   6.164   0.376   3.155
  423ACOH    H212291   6.294   0.434   3.259
  423ACOH    H312292   6.132   0.472   3.310
  424ACOH    H412293   6.832   1.590   1.974
  424ACOH    O212294   6.879   1.634   2.047
  424ACOH    C212295   6.832   1.561   2.152
  424ACOH    O112296   6.715   1.529   2.166
  424ACOH    C112297   6.911   1.594   2.271
  424ACOH    H112298   7.012   1.623   2.243
  424ACOH    H212299   6.925   1.512   2.341
  424ACOH    H312300   6.852   1.666   2.328
  425ACOH    H412301   6.805   1.111   3.912
  425ACOH    O212302   6.849   1.189   3.949
  425ACOH    C212303   6.927   1.237   3.848
  425ACOH    O112304   6.922   1.198   3.733
  425ACOH    C112305   7.018   1.335   3.896
  425ACOH    H112306   7.120   1.296   3.889
  425ACOH    H212307   7.003   1.350   4.003
  425ACOH    H312308   7.017   1.428   3.838
  426ACOH    H412309   6.247   0.207   5.348
  426ACOH    O212310   6.217   0.292   5.312
  426ACOH    C212311   6.188   0.273   5.183
  426ACOH    O112312   6.180   0.166   5.121
  426ACOH    C112313   6.191   0.397   5.104
  426ACOH    H112314   6.164   0.376   5.001
  426ACOH    H212315   6.294   0.434   5.105
  426ACOH    H312316   6.132   0.472   5.156
  427ACOH    H412317   6.832   1.590   3.820
  427ACOH    O212318   6.879   1.634   3.893
  427ACOH    C212319   6.832   1.561   3.998
  427ACOH    O112320   6.715   1.529   4.012
  427ACOH    C112321   6.911   1.594   4.117
  427ACOH    H112322   7.012   1.623   4.089
  427ACOH    H212323   6.925   1.512   4.187
  427ACOH    H312324   6.852   1.666   4.174
  428ACOH    H412325   7.124   0.993   7.224
  428ACOH    O212326   7.127   0.951   7.312
  428ACOH    C212327   7.015   0.879   7.331
  428ACOH    O112328   6.924   0.862   7.252
  428ACOH    C112329   7.009   0.818   7.466
  428ACOH    H112330   6.979   0.898   7.533
  428ACOH    H212331   7.102   0.779   7.507
  428ACOH    H312332   6.929   0.744   7.466
  429ACOH    H412333   6.247   0.207   7.193
  429ACOH    O212334   6.217   0.292   7.157
  429ACOH    C212335   6.188   0.273   7.028
  429ACOH    O112336   6.180   0.166   6.966
  429ACOH    C112337   6.191   0.397   6.949
  429ACOH    H112338   6.164   0.376   6.846
  429ACOH    H212339   6.294   0.434   6.950
  429ACOH    H312340   6.132   0.472   7.001
  430ACOH    H412341   6.832   1.590   5.665
  430ACOH    O212342   6.879   1.634   5.738
  430ACOH    C212343   6.832   1.561   5.843
  430ACOH    O112344   6.715   1.529   5.857
  430ACOH    C112345   6.911   1.594   5.962
  430ACOH    H112346   7.012   1.623   5.934
  430ACOH    H212347   6.925   1.512   6.032
  430ACOH    H312348   6.852   1.666   6.019
  431ACOH    H412349   6.805   1.111   7.603
  431ACOH    O212350   6.849   1.189   7.640
  431ACOH    C212351   6.927   1.237   7.539
  431ACOH    O112352   6.922   1.198   7.424
  431ACOH    C112353   7.018   1.335   7.587
  431ACOH    H112354   7.120   1.296   7.580
  431ACOH    H212355   7.003   1.350   7.694
  431ACOH    H312356   7.017   1.428   7.529
  432ACOH    H412357   6.247   0.207   9.039
  432ACOH    O212358   6.217   0.292   9.003
  432ACOH    C212359   6.188   0.273   8.874
  432ACOH    O112360   6.180   0.166   8.812
  432ACOH    C112361   6.191   0.397   8.795
  432ACOH    H112362   6.164   0.376   8.692
  432ACOH    H212363   6.294   0.434   8.796
  432ACOH    H312364   6.132   0.472   8.847
  433ACOH    H412365   7.124   2.838   1.688
  433ACOH    O212366   7.127   2.796   1.776
  433ACOH    C212367   7.015   2.724   1.795
  433ACOH    O112368   6.924   2.707   1.716
  433ACOH    C112369   7.009   2.663   1.930
  433ACOH    H112370   6.979   2.743   1.997
  433ACOH    H212371   7.102   2.624   1.971
  433ACOH    H312372   6.929   2.589   1.930
  434ACOH    H412373   6.247   2.052   1.657
  434ACOH    O212374   6.217   2.137   1.621
  434ACOH    C212375   6.188   2.118   1.492
  434ACOH    O112376   6.180   2.011   1.430
  434ACOH    C112377   6.191   2.242   1.413
  434ACOH    H112378   6.164   2.221   1.310
  434ACOH    H212379   6.294   2.279   1.414
  434ACOH    H312380   6.132   2.317   1.465
  435ACOH    H412381   6.805   2.956   2.066
  435ACOH    O212382   6.849   3.034   2.103
  435ACOH    C212383   6.927   3.082   2.002
  435ACOH    O112384   6.922   3.043   1.887
  435ACOH    C112385   7.018   3.180   2.050
  435ACOH    H112386   7.120   3.141   2.043
  435ACOH    H212387   7.003   3.195   2.157
  435ACOH    H312388   7.017   3.273   1.992
  436ACOH    H412389   7.124   2.838   3.533
  436ACOH    O212390   7.127   2.796   3.621
  436ACOH    C212391   7.015   2.724   3.640
  436ACOH    O112392   6.924   2.707   3.561
  436ACOH    C112393   7.009   2.663   3.775
  436ACOH    H112394   6.979   2.743   3.842
  436ACOH    H212395   7.102   2.624   3.816
  436ACOH    H312396   6.929   2.589   3.775
  437ACOH    H412397   6.247   2.052   3.502
  437ACOH    O212398   6.217   2.137   3.466
  437ACOH    C212399   6.188   2.118   3.337
  437ACOH    O112400   6.180   2.011   3.275
  437ACOH    C112401   6.191   2.242   3.258
  437ACOH    H112402   6.164   2.221   3.155
  437ACOH    H212403   6.294   2.279   3.259
  437ACOH    H312404   6.132   2.317   3.310
  438ACOH    H412405   6.832   3.435   1.974
  438ACOH    O212406   6.879   3.479   2.047
  438ACOH    C212407   6.832   3.406   2.152
  438ACOH    O112408   6.715   3.374   2.166
  438ACOH    C112409   6.911   3.439   2.271
  438ACOH    H112410   7.012   3.468   2.243
  438ACOH    H212411   6.925   3.357   2.341
  438ACOH    H312412   6.852   3.511   2.328
  439ACOH    H412413   6.805   2.956   3.912
  439ACOH    O212414   6.849   3.034   3.949
  439ACOH    C212415   6.927   3.082   3.848
  439ACOH    O112416   6.922   3.043   3.733
  439ACOH    C112417   7.018   3.180   3.896
  439ACOH    H112418   7.120   3.141   3.889
  439ACOH    H212419   7.003   3.195   4.003
  439ACOH    H312420   7.017   3.273   3.838
  440ACOH    H412421   7.124   2.838   5.379
  440ACOH    O212422   7.127   2.796   5.467
  440ACOH    C212423   7.015   2.724   5.486
  440ACOH    O112424   6.924   2.707   5.407
  440ACOH    C112425   7.009   2.663   5.621
  440ACOH    H112426   6.979   2.743   5.688
  440ACOH    H212427   7.102   2.624   5.662
  440ACOH    H312428   6.929   2.589   5.621
  441ACOH    H412429   6.247   2.052   5.348
  441ACOH    O212430   6.217   2.137   5.312
  441ACOH    C212431   6.188   2.118   5.183
  441ACOH    O112432   6.180   2.011   5.121
  441ACOH    C112433   6.191   2.242   5.104
  441ACOH    H112434   6.164   2.221   5.001
  441ACOH    H212435   6.294   2.279   5.105
  441ACOH    H312436   6.132   2.317   5.156
  442ACOH    H412437   6.832   3.435   3.820
  442ACOH    O212438   6.879   3.479   3.893
  442ACOH    C212439   6.832   3.406   3.998
  442ACOH    O112440   6.715   3.374   4.012
  442ACOH    C112441   6.911   3.439   4.117
  442ACOH    H112442   7.012   3.468   4.089
  442ACOH    H212443   6.925   3.357   4.187
  442ACOH    H312444   6.852   3.511   4.174
  443ACOH    H412445   6.805   2.956   5.757
  443ACOH    O212446   6.849   3.034   5.794
  443ACOH    C212447   6.927   3.082   5.693
  443ACOH    O112448   6.922   3.043   5.578
  443ACOH    C112449   7.018   3.180   5.741
  443ACOH    H112450   7.120   3.141   5.734
  443ACOH    H212451   7.003   3.195   5.848
  443ACOH    H312452   7.017   3.273   5.683
  444ACOH    H412453   7.124   2.838   7.224
  444ACOH    O212454   7.127   2.796   7.312
  444ACOH    C212455   7.015   2.724   7.331
  444ACOH    O112456   6.924   2.707   7.252
  444ACOH    C112457   7.009   2.663   7.466
  444ACOH    H112458   6.979   2.743   7.533
  444ACOH    H212459   7.102   2.624   7.507
  444ACOH    H312460   6.929   2.589   7.466
  445ACOH    H412461   6.247   2.052   7.193
  445ACOH    O212462   6.217   2.137   7.157
  445ACOH    C212463   6.188   2.118   7.028
  445ACOH    O112464   6.180   2.011   6.966
  445ACOH    C112465   6.191   2.242   6.949
  445ACOH    H112466   6.164   2.221   6.846
  445ACOH    H212467   6.294   2.279   6.950
  445ACOH    H312468   6.132   2.317   7.001
  446ACOH    H412469   6.832   3.435   5.665
  446ACOH    O212470   6.879   3.479   5.738
  446ACOH    C212471   6.832   3.406   5.843
  446ACOH    O112472   6.715   3.374   5.857
  446ACOH    C112473   6.911   3.439   5.962
  446ACOH    H112474   7.012   3.468   5.934
  446ACOH    H212475   6.925   3.357   6.032
  446ACOH    H312476   6.852   3.511   6.019
  447ACOH    H412477   6.805   2.956   7.603
  447ACOH    O212478   6.849   3.034   7.640
  447ACOH    C212479   6.927   3.082   7.539
  447ACOH    O112480   6.922   3.043   7.424
  447ACOH    C112481   7.018   3.180   7.587
  447ACOH    H112482   7.120   3.141   7.580
  447ACOH    H212483   7.003   3.195   7.694
  447ACOH    H312484   7.017   3.273   7.529
  448ACOH    H412485   7.124   2.838   9.070
  448ACOH    O212486   7.127   2.796   9.158
  448ACOH    C212487   7.015   2.724   9.177
  448ACOH    O112488   6.924   2.707   9.098
  448ACOH    C112489   7.009   2.663   9.312
  448ACOH    H112490   6.979   2.743   9.379
  448ACOH    H212491   7.102   2.624   9.353
  448ACOH    H312492   6.929   2.589   9.312
  449ACOH    H412493   6.247   2.052   9.039
  449ACOH    O212494   6.217   2.137   9.003
  449ACOH    C212495   6.188   2.118   8.874
  449ACOH    O112496   6.180   2.011   8.812
  449ACOH    C112497   6.191   2.242   8.795
  449ACOH    H112498   6.164   2.221   8.692
  449ACOH    H212499   6.294   2.279   8.796
  449ACOH    H312500   6.132   2.317   8.847
  450ACOH    H412501   6.832   3.435   7.511
  450ACOH    O212502   6.879   3.479   7.584
  450ACOH    C212503   6.832   3.406   7.689
  450ACOH    O112504   6.715   3.374   7.703
  450ACOH    C112505   6.911   3.439   7.808
  450ACOH    H112506   7.012   3.468   7.780
  450ACOH    H212507   6.925   3.357   7.878
  450ACOH    H312508   6.852   3.511   7.865
  451ACOH    H412509   6.805   2.956   9.448
  451ACOH    O212510   6.849   3.034   9.485
  451ACOH    C212511   6.927   3.082   9.384
  451ACOH    O112512   6.922   3.043   9.269
  451ACOH    C112513   7.018   3.180   9.432
  451ACOH    H112514   7.120   3.141   9.425
  451ACOH    H212515   7.003   3.195   9.539
  451ACOH    H312516   7.017   3.273   9.374
  452ACOH    H412517   6.832   3.435   9.356
  452ACOH    O212518   6.879   3.479   9.429
  452ACOH    C212519   6.832   3.406   9.534
  452ACOH    O112520   6.715   3.374   9.548
  452ACOH    C112521   6.911   3.439   9.653
  452ACOH    H112522   7.012   3.468   9.625
  452ACOH    H212523   6.925   3.357   9.723
  452ACOH    H312524   6.852   3.511   9.710
  453ACOH    H412525   6.805   4.802   0.221
  453ACOH    O212526   6.849   4.880   0.258
  453ACOH    C212527   6.927   4.928   0.157
  453ACOH    O112528   6.922   4.889   0.042
  453ACOH    C112529   7.018   5.026   0.205
  453ACOH    H112530   7.120   4.987   0.198
  453ACOH    H212531   7.003   5.041   0.312
  453ACOH    H312532   7.017   5.119   0.147
  454ACOH    H412533   6.247   3.898   1.657
  454ACOH    O212534   6.217   3.983   1.621
  454ACOH    C212535   6.188   3.964   1.492
  454ACOH    O112536   6.180   3.857   1.430
  454ACOH    C112537   6.191   4.088   1.413
  454ACOH    H112538   6.164   4.067   1.310
  454ACOH    H212539   6.294   4.125   1.414
  454ACOH    H312540   6.132   4.163   1.465
  455ACOH    H412541   7.124   4.684   3.533
  455ACOH    O212542   7.127   4.642   3.621
  455ACOH    C212543   7.015   4.570   3.640
  455ACOH    O112544   6.924   4.553   3.561
  455ACOH    C112545   7.009   4.509   3.775
  455ACOH    H112546   6.979   4.589   3.842
  455ACOH    H212547   7.102   4.470   3.816
  455ACOH    H312548   6.929   4.435   3.775
  456ACOH    H412549   6.247   3.898   3.502
  456ACOH    O212550   6.217   3.983   3.466
  456ACOH    C212551   6.188   3.964   3.337
  456ACOH    O112552   6.180   3.857   3.275
  456ACOH    C112553   6.191   4.088   3.258
  456ACOH    H112554   6.164   4.067   3.155
  456ACOH    H212555   6.294   4.125   3.259
  456ACOH    H312556   6.132   4.163   3.310
  457ACOH    H412557   6.805   4.802   3.912
  457ACOH    O212558   6.849   4.880   3.949
  457ACOH    C212559   6.927   4.928   3.848
  457ACOH    O112560   6.922   4.889   3.733
  457ACOH    C112561   7.018   5.026   3.896
  457ACOH    H112562   7.120   4.987   3.889
  457ACOH    H212563   7.003   5.041   4.003
  457ACOH    H312564   7.017   5.119   3.838
  458ACOH    H412565   7.124   4.684   5.379
  458ACOH    O212566   7.127   4.642   5.467
  458ACOH    C212567   7.015   4.570   5.486
  458ACOH    O112568   6.924   4.553   5.407
  458ACOH    C112569   7.009   4.509   5.621
  458ACOH    H112570   6.979   4.589   5.688
  458ACOH    H212571   7.102   4.470   5.662
  458ACOH    H312572   6.929   4.435   5.621
  459ACOH    H412573   6.247   3.898   5.348
  459ACOH    O212574   6.217   3.983   5.312
  459ACOH    C212575   6.188   3.964   5.183
  459ACOH    O112576   6.180   3.857   5.121
  459ACOH    C112577   6.191   4.088   5.104
  459ACOH    H112578   6.164   4.067   5.001
  459ACOH    H212579   6.294   4.125   5.105
  459ACOH    H312580   6.132   4.163   5.156
  460ACOH    H412581   6.832   5.281   3.820
  460ACOH    O212582   6.879   5.325   3.893
  460ACOH    C212583   6.832   5.252   3.998
  460ACOH    O112584   6.715   5.220   4.012
  460ACOH    C112585   6.911   5.285   4.117
  460ACOH    H112586   7.012   5.314   4.089
  460ACOH    H212587   6.925   5.203   4.187
  460ACOH    H312588   6.852   5.357   4.174
  461ACOH    H412589   6.805   4.802   5.757
  461ACOH    O212590   6.849   4.880   5.794
  461ACOH    C212591   6.927   4.928   5.693
  461ACOH    O112592   6.922   4.889   5.578
  461ACOH    C112593   7.018   5.026   5.741
  461ACOH    H112594   7.120   4.987   5.734
  461ACOH    H212595   7.003   5.041   5.848
  461ACOH    H312596   7.017   5.119   5.683
  462ACOH    H412597   6.247   3.898   7.193
  462ACOH    O212598   6.217   3.983   7.157
  462ACOH    C212599   6.188   3.964   7.028
  462ACOH    O112600   6.180   3.857   6.966
  462ACOH    C112601   6.191   4.088   6.949
  462ACOH    H112602   6.164   4.067   6.846
  462ACOH    H212603   6.294   4.125   6.950
  462ACOH    H312604   6.132   4.163   7.001
  463ACOH    H412605   6.832   5.281   5.665
  463ACOH    O212606   6.879   5.325   5.738
  463ACOH    C212607   6.832   5.252   5.843
  463ACOH    O112608   6.715   5.220   5.857
  463ACOH    C112609   6.911   5.285   5.962
  463ACOH    H112610   7.012   5.314   5.934
  463ACOH    H212611   6.925   5.203   6.032
  463ACOH    H312612   6.852   5.357   6.019
  464ACOH    H412613   6.805   4.802   7.603
  464ACOH    O212614   6.849   4.880   7.640
  464ACOH    C212615   6.927   4.928   7.539
  464ACOH    O112616   6.922   4.889   7.424
  464ACOH    C112617   7.018   5.026   7.587
  464ACOH    H112618   7.120   4.987   7.580
  464ACOH    H212619   7.003   5.041   7.694
  464ACOH    H312620   7.017   5.119   7.529
  465ACOH    H412621   7.124   4.684   9.070
  465ACOH    O212622   7.127   4.642   9.158
  465ACOH    C212623   7.015   4.570   9.177
  465ACOH    O112624   6.924   4.553   9.098
  465ACOH    C112625   7.009   4.509   9.312
  465ACOH    H112626   6.979   4.589   9.379
  465ACOH    H212627   7.102   4.470   9.353
  465ACOH    H312628   6.929   4.435   9.312
  466ACOH    H412629   6.247   3.898   9.039
  466ACOH    O212630   6.217   3.983   9.003
  466ACOH    C212631   6.188   3.964   8.874
  466ACOH    O112632   6.180   3.857   8.812
  466ACOH    C112633   6.191   4.088   8.795
  466ACOH    H112634   6.164   4.067   8.692
  466ACOH    H212635   6.294   4.125   8.796
  466ACOH    H312636   6.132   4.163   8.847
  467ACOH    H412637   6.832   5.281   7.511
  467ACOH    O212638   6.879   5.325   7.584
  467ACOH    C212639   6.832   5.252   7.689
  467ACOH    O112640   6.715   5.220   7.703
  467ACOH    C112641   6.911   5.285   7.808
  467ACOH    H112642   7.012   5.314   7.780
  467ACOH    H212643   6.925   5.203   7.878
  467ACOH    H312644   6.852   5.357   7.865
  468ACOH    H412645   6.805   4.802   9.448
  468ACOH    O212646   6.849   4.880   9.485
  468ACOH    C212647   6.927   4.928   9.384
  468ACOH    O112648   6.922   4.889   9.269
  468ACOH    C112649   7.018   5.026   9.432
  468ACOH    H112650   7.120   4.987   9.425
  468ACOH    H212651   7.003   5.041   9.539
  468ACOH    H312652   7.017   5.119   9.374
  469ACOH    H412653   6.832   5.281   9.356
  469ACOH    O212654   6.879   5.325   9.429
  469ACOH    C212655   6.832   5.252   9.534
  469ACOH    O112656   6.715   5.220   9.548
  469ACOH    C112657   6.911   5.285   9.653
  469ACOH    H112658   7.012   5.314   9.625
  469ACOH    H212659   6.925   5.203   9.723
  469ACOH    H312660   6.852   5.357   9.710
  470ACOH    H412661   6.805   6.647   0.221
  470ACOH    O212662   6.849   6.725   0.258
  470ACOH    C212663   6.927   6.773   0.157
  470ACOH    O112664   6.922   6.734   0.042
  470ACOH    C112665   7.018   6.871   0.205
  470ACOH    H112666   7.120   6.832   0.198
  470ACOH    H212667   7.003   6.886   0.312
  470ACOH    H312668   7.017   6.964   0.147
  471ACOH    H412669   7.124   6.529   1.688
  471ACOH    O212670   7.127   6.487   1.776
  471ACOH    C212671   7.015   6.415   1.795
  471ACOH    O112672   6.924   6.398   1.716
  471ACOH    C112673   7.009   6.354   1.930
  471ACOH    H112674   6.979   6.434   1.997
  471ACOH    H212675   7.102   6.315   1.971
  471ACOH    H312676   6.929   6.280   1.930
  472ACOH    H412677   6.247   5.743   1.657
  472ACOH    O212678   6.217   5.828   1.621
  472ACOH    C212679   6.188   5.809   1.492
  472ACOH    O112680   6.180   5.702   1.430
  472ACOH    C112681   6.191   5.933   1.413
  472ACOH    H112682   6.164   5.912   1.310
  472ACOH    H212683   6.294   5.970   1.414
  472ACOH    H312684   6.132   6.008   1.465
  473ACOH    H412685   6.805   6.647   2.066
  473ACOH    O212686   6.849   6.725   2.103
  473ACOH    C212687   6.927   6.773   2.002
  473ACOH    O112688   6.922   6.734   1.887
  473ACOH    C112689   7.018   6.871   2.050
  473ACOH    H112690   7.120   6.832   2.043
  473ACOH    H212691   7.003   6.886   2.157
  473ACOH    H312692   7.017   6.964   1.992
  474ACOH    H412693   7.124   6.529   3.533
  474ACOH    O212694   7.127   6.487   3.621
  474ACOH    C212695   7.015   6.415   3.640
  474ACOH    O112696   6.924   6.398   3.561
  474ACOH    C112697   7.009   6.354   3.775
  474ACOH    H112698   6.979   6.434   3.842
  474ACOH    H212699   7.102   6.315   3.816
  474ACOH    H312700   6.929   6.280   3.775
  475ACOH    H412701   6.247   5.743   3.502
  475ACOH    O212702   6.217   5.828   3.466
  475ACOH    C212703   6.188   5.809   3.337
  475ACOH    O112704   6.180   5.702   3.275
  475ACOH    C112705   6.191   5.933   3.258
  475ACOH    H112706   6.164   5.912   3.155
  475ACOH    H212707   6.294   5.970   3.259
  475ACOH    H312708   6.132   6.008   3.310
  476ACOH    H412709   6.832   7.126   1.974
  476ACOH    O212710   6.879   7.170   2.047
  476ACOH    C212711   6.832   7.097   2.152
  476ACOH    O112712   6.715   7.065   2.166
  476ACOH    C112713   6.911   7.130   2.271
  476ACOH    H112714   7.012   7.159   2.243
  476ACOH    H212715   6.925   7.048   2.341
  476ACOH    H312716   6.852   7.202   2.328
  477ACOH    H412717   7.124   6.529   5.379
  477ACOH    O212718   7.127   6.487   5.467
  477ACOH    C212719   7.015   6.415   5.486
  477ACOH    O112720   6.924   6.398   5.407
  477ACOH    C112721   7.009   6.354   5.621
  477ACOH    H112722   6.979   6.434   5.688
  477ACOH    H212723   7.102   6.315   5.662
  477ACOH    H312724   6.929   6.280   5.621
  478ACOH    H412725   6.247   5.743   5.348
  478ACOH    O212726   6.217   5.828   5.312
  478ACOH    C212727   6.188   5.809   5.183
  478ACOH    O112728   6.180   5.702   5.121
  478ACOH    C112729   6.191   5.933   5.104
  478ACOH    H112730   6.164   5.912   5.001
  478ACOH    H212731   6.294   5.970   5.105
  478ACOH    H312732   6.132   6.008   5.156
  479ACOH    H412733   6.832   7.126   3.820
  479ACOH    O212734   6.879   7.170   3.893
  479ACOH    C212735   6.832   7.097   3.998
  479ACOH    O112736   6.715   7.065   4.012
  479ACOH    C112737   6.911   7.130   4.117
  479ACOH    H112738   7.012   7.159   4.089
  479ACOH    H212739   6.925   7.048   4.187
  479ACOH    H312740   6.852   7.202   4.174
  480ACOH    H412741   6.805   6.647   5.757
  480ACOH    O212742   6.849   6.725   5.794
  480ACOH    C212743   6.927   6.773   5.693
  480ACOH    O112744   6.922   6.734   5.578
  480ACOH    C112745   7.018   6.871   5.741
  480ACOH    H112746   7.120   6.832   5.734
  480ACOH    H212747   7.003   6.886   5.848
  480ACOH    H312748   7.017   6.964   5.683
  481ACOH    H412749   7.124   6.529   7.224
  481ACOH    O212750   7.127   6.487   7.312
  481ACOH    C212751   7.015   6.415   7.331
  481ACOH    O112752   6.924   6.398   7.252
  481ACOH    C112753   7.009   6.354   7.466
  481ACOH    H112754   6.979   6.434   7.533
  481ACOH    H212755   7.102   6.315   7.507
  481ACOH    H312756   6.929   6.280   7.466
  482ACOH    H412757   6.247   5.743   7.193
  482ACOH    O212758   6.217   5.828   7.157
  482ACOH    C212759   6.188   5.809   7.028
  482ACOH    O112760   6.180   5.702   6.966
  482ACOH    C112761   6.191   5.933   6.949
  482ACOH    H112762   6.164   5.912   6.846
  482ACOH    H212763   6.294   5.970   6.950
  482ACOH    H312764   6.132   6.008   7.001
  483ACOH    H412765   6.832   7.126   5.665
  483ACOH    O212766   6.879   7.170   5.738
  483ACOH    C212767   6.832   7.097   5.843
  483ACOH    O112768   6.715   7.065   5.857
  483ACOH    C112769   6.911   7.130   5.962
  483ACOH    H112770   7.012   7.159   5.934
  483ACOH    H212771   6.925   7.048   6.032
  483ACOH    H312772   6.852   7.202   6.019
  484ACOH    H412773   6.805   6.647   7.603
  484ACOH    O212774   6.849   6.725   7.640
  484ACOH    C212775   6.927   6.773   7.539
  484ACOH    O112776   6.922   6.734   7.424
  484ACOH    C112777   7.018   6.871   7.587
  484ACOH    H112778   7.120   6.832   7.580
  484ACOH    H212779   7.003   6.886   7.694
  484ACOH    H312780   7.017   6.964   7.529
  485ACOH    H412781   6.247   5.743   9.039
  485ACOH    O212782   6.217   5.828   9.003
  485ACOH    C212783   6.188   5.809   8.874
  485ACOH    O112784   6.180   5.702   8.812
  485ACOH    C112785   6.191   5.933   8.795
  485ACOH    H112786   6.164   5.912   8.692
  485ACOH    H212787   6.294   5.970   8.796
  485ACOH    H312788   6.132   6.008   8.847
  486ACOH    H412789   6.832   7.126   7.511
  486ACOH    O212790   6.879   7.170   7.584
  486ACOH    C212791   6.832   7.097   7.689
  486ACOH    O112792   6.715   7.065   7.703
  486ACOH    C112793   6.911   7.130   7.808
  486ACOH    H112794   7.012   7.159   7.780
  486ACOH    H212795   6.925   7.048   7.878
  486ACOH    H312796   6.852   7.202   7.865
  487ACOH    H412797   6.805   6.647   9.448
  487ACOH    O212798   6.849   6.725   9.485
  487ACOH    C212799   6.927   6.773   9.384
  487ACOH    O112800   6.922   6.734   9.269
  487ACOH    C112801   7.018   6.871   9.432
  487ACOH    H112802   7.120   6.832   9.425
  487ACOH    H212803   7.003   6.886   9.539
  487ACOH    H312804   7.017   6.964   9.374
  488ACOH    H412805   6.832   7.126   9.356
  488ACOH    O212806   6.879   7.170   9.429
  488ACOH    C212807   6.832   7.097   9.534
  488ACOH    O112808   6.715   7.065   9.548
  488ACOH    C112809   6.911   7.130   9.653
  488ACOH    H112810   7.012   7.159   9.625
  488ACOH    H212811   6.925   7.048   9.723
  488ACOH    H312812   6.852   7.202   9.710
  489ACOH    H412813   6.805   8.493   0.221
  489ACOH    O212814   6.849   8.571   0.258
  489ACOH    C212815   6.927   8.619   0.157
  489ACOH    O112816   6.922   8.580   0.042
  489ACOH    C112817   7.018   8.717   0.205
  489ACOH    H112818   7.120   8.678   0.198
  489ACOH    H212819   7.003   8.732   0.312
  489ACOH    H312820   7.017   8.810   0.147
  490ACOH    H412821   7.124   8.375   1.688
  490ACOH    O212822   7.127   8.333   1.776
  490ACOH    C212823   7.015   8.261   1.795
  490ACOH    O112824   6.924   8.244   1.716
  490ACOH    C112825   7.009   8.200   1.930
  490ACOH    H112826   6.979   8.280   1.997
  490ACOH    H212827   7.102   8.161   1.971
  490ACOH    H312828   6.929   8.126   1.930
  491ACOH    H412829   6.247   7.589   1.657
  491ACOH    O212830   6.217   7.674   1.621
  491ACOH    C212831   6.188   7.655   1.492
  491ACOH    O112832   6.180   7.548   1.430
  491ACOH    C112833   6.191   7.779   1.413
  491ACOH    H112834   6.164   7.758   1.310
  491ACOH    H212835   6.294   7.816   1.414
  491ACOH    H312836   6.132   7.854   1.465
  492ACOH    H412837   6.832   8.972   0.129
  492ACOH    O212838   6.879   9.016   0.202
  492ACOH    C212839   6.832   8.943   0.307
  492ACOH    O112840   6.715   8.911   0.321
  492ACOH    C112841   6.911   8.976   0.426
  492ACOH    H112842   7.012   9.005   0.398
  492ACOH    H212843   6.925   8.894   0.496
  492ACOH    H312844   6.852   9.048   0.483
  493ACOH    H412845   6.805   8.493   2.066
  493ACOH    O212846   6.849   8.571   2.103
  493ACOH    C212847   6.927   8.619   2.002
  493ACOH    O112848   6.922   8.580   1.887
  493ACOH    C112849   7.018   8.717   2.050
  493ACOH    H112850   7.120   8.678   2.043
  493ACOH    H212851   7.003   8.732   2.157
  493ACOH    H312852   7.017   8.810   1.992
  494ACOH    H412853   7.124   8.375   3.533
  494ACOH    O212854   7.127   8.333   3.621
  494ACOH    C212855   7.015   8.261   3.640
  494ACOH    O112856   6.924   8.244   3.561
  494ACOH    C112857   7.009   8.200   3.775
  494ACOH    H112858   6.979   8.280   3.842
  494ACOH    H212859   7.102   8.161   3.816
  494ACOH    H312860   6.929   8.126   3.775
  495ACOH    H412861   6.247   7.589   3.502
  495ACOH    O212862   6.217   7.674   3.466
  495ACOH    C212863   6.188   7.655   3.337
  495ACOH    O112864   6.180   7.548   3.275
  495ACOH    C112865   6.191   7.779   3.258
  495ACOH    H112866   6.164   7.758   3.155
  495ACOH    H212867   6.294   7.816   3.259
  495ACOH    H312868   6.132   7.854   3.310
  496ACOH    H412869   6.832   8.972   1.974
  496ACOH    O212870   6.879   9.016   2.047
  496ACOH    C212871   6.832   8.943   2.152
  496ACOH    O112872   6.715   8.911   2.166
  496ACOH    C112873   6.911   8.976   2.271
  496ACOH    H112874   7.012   9.005   2.243
  496ACOH    H212875   6.925   8.894   2.341
  496ACOH    H312876   6.852   9.048   2.328
  497ACOH    H412877   6.805   8.493   3.912
  497ACOH    O212878   6.849   8.571   3.949
  497ACOH    C212879   6.927   8.619   3.848
  497ACOH    O112880   6.922   8.580   3.733
  497ACOH    C112881   7.018   8.717   3.896
  497ACOH    H112882   7.120   8.678   3.889
  497ACOH    H212883   7.003   8.732   4.003
  497ACOH    H312884   7.017   8.810   3.838
  498ACOH    H412885   7.124   8.375   5.379
  498ACOH    O212886   7.127   8.333   5.467
  498ACOH    C212887   7.015   8.261   5.486
  498ACOH    O112888   6.924   8.244   5.407
  498ACOH    C112889   7.009   8.200   5.621
  498ACOH    H112890   6.979   8.280   5.688
  498ACOH    H212891   7.102   8.161   5.662
  498ACOH    H312892   6.929   8.126   5.621
  499ACOH    H412893   6.247   7.589   5.348
  499ACOH    O212894   6.217   7.674   5.312
  499ACOH    C212895   6.188   7.655   5.183
  499ACOH    O112896   6.180   7.548   5.121
  499ACOH    C112897   6.191   7.779   5.104
  499ACOH    H112898   6.164   7.758   5.001
  499ACOH    H212899   6.294   7.816   5.105
  499ACOH    H312900   6.132   7.854   5.156
  500ACOH    H412901   6.832   8.972   3.820
  500ACOH    O212902   6.879   9.016   3.893
  500ACOH    C212903   6.832   8.943   3.998
  500ACOH    O112904   6.715   8.911   4.012
  500ACOH    C112905   6.911   8.976   4.117
  500ACOH    H112906   7.012   9.005   4.089
  500ACOH    H212907   6.925   8.894   4.187
  500ACOH    H312908   6.852   9.048   4.174
  501ACOH    H412909   6.805   8.493   5.757
  501ACOH    O212910   6.849   8.571   5.794
  501ACOH    C212911   6.927   8.619   5.693
  501ACOH    O112912   6.922   8.580   5.578
  501ACOH    C112913   7.018   8.717   5.741
  501ACOH    H112914   7.120   8.678   5.734
  501ACOH    H212915   7.003   8.732   5.848
  501ACOH    H312916   7.017   8.810   5.683
  502ACOH    H412917   6.247   7.589   7.193
  502ACOH    O212918   6.217   7.674   7.157
  502ACOH    C212919   6.188   7.655   7.028
  502ACOH    O112920   6.180   7.548   6.966
  502ACOH    C112921   6.191   7.779   6.949
  502ACOH    H112922   6.164   7.758   6.846
  502ACOH    H212923   6.294   7.816   6.950
  502ACOH    H312924   6.132   7.854   7.001
  503ACOH    H412925   6.832   8.972   5.665
  503ACOH    O212926   6.879   9.016   5.738
  503ACOH    C212927   6.832   8.943   5.843
  503ACOH    O112928   6.715   8.911   5.857
  503ACOH    C112929   6.911   8.976   5.962
  503ACOH    H112930   7.012   9.005   5.934
  503ACOH    H212931   6.925   8.894   6.032
  503ACOH    H312932   6.852   9.048   6.019
  504ACOH    H412933   6.805   8.493   7.603
  504ACOH    O212934   6.849   8.571   7.640
  504ACOH    C212935   6.927   8.619   7.539
  504ACOH    O112936   6.922   8.580   7.424
  504ACOH    C112937   7.018   8.717   7.587
  504ACOH    H112938   7.120   8.678   7.580
  504ACOH    H212939   7.003   8.732   7.694
  504ACOH    H312940   7.017   8.810   7.529
  505ACOH    H412941   7.124   8.375   9.070
  505ACOH    O212942   7.127   8.333   9.158
  505ACOH    C212943   7.015   8.261   9.177
  505ACOH    O112944   6.924   8.244   9.098
  505ACOH    C112945   7.009   8.200   9.312
  505ACOH    H112946   6.979   8.280   9.379
  505ACOH    H212947   7.102   8.161   9.353
  505ACOH    H312948   6.929   8.126   9.312
  506ACOH    H412949   6.247   7.589   9.039
  506ACOH    O212950   6.217   7.674   9.003
  506ACOH    C212951   6.188   7.655   8.874
  506ACOH    O112952   6.180   7.548   8.812
  506ACOH    C112953   6.191   7.779   8.795
  506ACOH    H112954   6.164   7.758   8.692
  506ACOH    H212955   6.294   7.816   8.796
  506ACOH    H312956   6.132   7.854   8.847
  507ACOH    H412957   6.832   8.972   7.511
  507ACOH    O212958   6.879   9.016   7.584
  507ACOH    C212959   6.832   8.943   7.689
  507ACOH    O112960   6.715   8.911   7.703
  507ACOH    C112961   6.911   8.976   7.808
  507ACOH    H112962   7.012   9.005   7.780
  507ACOH    H212963   6.925   8.894   7.878
  507ACOH    H312964   6.852   9.048   7.865
  508ACOH    H412965   6.805   8.493   9.448
  508ACOH    O212966   6.849   8.571   9.485
  508ACOH    C212967   6.927   8.619   9.384
  508ACOH    O112968   6.922   8.580   9.269
  508ACOH    C112969   7.018   8.717   9.432
  508ACOH    H112970   7.120   8.678   9.425
  508ACOH    H212971   7.003   8.732   9.539
  508ACOH    H312972   7.017   8.810   9.374
  509ACOH    H412973   6.832   8.972   9.356
  509ACOH    O212974   6.879   9.016   9.429
  509ACOH    C212975   6.832   8.943   9.534
  509ACOH    O112976   6.715   8.911   9.548
  509ACOH    C112977   6.911   8.976   9.653
  509ACOH    H112978   7.012   9.005   9.625
  509ACOH    H212979   6.925   8.894   9.723
  509ACOH    H312980   6.852   9.048   9.710
  510ACOH    H412981   6.247   9.434   1.657
  510ACOH    O212982   6.217   9.519   1.621
  510ACOH    C212983   6.188   9.500   1.492
  510ACOH    O112984   6.180   9.393   1.430
  510ACOH    C112985   6.191   9.624   1.413
  510ACOH    H112986   6.164   9.603   1.310
  510ACOH    H212987   6.294   9.661   1.414
  510ACOH    H312988   6.132   9.699   1.465
  511ACOH    H412989   6.247   9.434   3.502
  511ACOH    O212990   6.217   9.519   3.466
  511ACOH    C212991   6.188   9.500   3.337
  511ACOH    O112992   6.180   9.393   3.275
  511ACOH    C112993   6.191   9.624   3.258
  511ACOH    H112994   6.164   9.603   3.155
  511ACOH    H212995   6.294   9.661   3.259
  511ACOH    H312996   6.132   9.699   3.310
  512ACOH    H412997   6.247   9.434   7.193
  512ACOH    O212998   6.217   9.519   7.157
  512ACOH    C212999   6.188   9.500   7.028
  512ACOH    O113000   6.180   9.393   6.966
  512ACOH    C113001   6.191   9.624   6.949
  512ACOH    H113002   6.164   9.603   6.846
  512ACOH    H213003   6.294   9.661   6.950
  512ACOH    H313004   6.132   9.699   7.001
  513ACOH    H413005   6.247   9.434   9.039
  513ACOH    O213006   6.217   9.519   9.003
  513ACOH    C213007   6.188   9.500   8.874
  513ACOH    O113008   6.180   9.393   8.812
  513ACOH    C113009   6.191   9.624   8.795
  513ACOH    H113010   6.164   9.603   8.692
  513ACOH    H213011   6.294   9.661   8.796
  513ACOH    H313012   6.132   9.699   8.847
  514ACOH    H413013   8.651   1.111   0.221
  514ACOH    O213014   8.695   1.189   0.258
  514ACOH    C213015   8.773   1.237   0.157
  514ACOH    O113016   8.768   1.198   0.042
  514ACOH    C113017   8.864   1.335   0.205
  514ACOH    H113018   8.966   1.296   0.198
  514ACOH    H213019   8.849   1.350   0.312
  514ACOH    H313020   8.863   1.428   0.147
  515ACOH    H413021   8.970   0.993   1.688
  515ACOH    O213022   8.973   0.951   1.776
  515ACOH    C213023   8.861   0.879   1.795
  515ACOH    O113024   8.770   0.862   1.716
  515ACOH    C113025   8.855   0.818   1.930
  515ACOH    H113026   8.825   0.898   1.997
  515ACOH    H213027   8.948   0.779   1.971
  515ACOH    H313028   8.775   0.744   1.930
  516ACOH    H413029   8.678   1.590   0.129
  516ACOH    O213030   8.725   1.634   0.202
  516ACOH    C213031   8.678   1.561   0.307
  516ACOH    O113032   8.561   1.529   0.321
  516ACOH    C113033   8.757   1.594   0.426
  516ACOH    H113034   8.858   1.623   0.398
  516ACOH    H213035   8.771   1.512   0.496
  516ACOH    H313036   8.698   1.666   0.483
  517ACOH    H413037   8.093   0.207   3.502
  517ACOH    O213038   8.063   0.292   3.466
  517ACOH    C213039   8.034   0.273   3.337
  517ACOH    O113040   8.026   0.166   3.275
  517ACOH    C113041   8.037   0.397   3.258
  517ACOH    H113042   8.010   0.376   3.155
  517ACOH    H213043   8.140   0.434   3.259
  517ACOH    H313044   7.978   0.472   3.310
  518ACOH    H413045   8.651   1.111   3.912
  518ACOH    O213046   8.695   1.189   3.949
  518ACOH    C213047   8.773   1.237   3.848
  518ACOH    O113048   8.768   1.198   3.733
  518ACOH    C113049   8.864   1.335   3.896
  518ACOH    H113050   8.966   1.296   3.889
  518ACOH    H213051   8.849   1.350   4.003
  518ACOH    H313052   8.863   1.428   3.838
  519ACOH    H413053   8.970   0.993   5.379
  519ACOH    O213054   8.973   0.951   5.467
  519ACOH    C213055   8.861   0.879   5.486
  519ACOH    O113056   8.770   0.862   5.407
  519ACOH    C113057   8.855   0.818   5.621
  519ACOH    H113058   8.825   0.898   5.688
  519ACOH    H213059   8.948   0.779   5.662
  519ACOH    H313060   8.775   0.744   5.621
  520ACOH    H413061   8.093   0.207   5.348
  520ACOH    O213062   8.063   0.292   5.312
  520ACOH    C213063   8.034   0.273   5.183
  520ACOH    O113064   8.026   0.166   5.121
  520ACOH    C113065   8.037   0.397   5.104
  520ACOH    H113066   8.010   0.376   5.001
  520ACOH    H213067   8.140   0.434   5.105
  520ACOH    H313068   7.978   0.472   5.156
  521ACOH    H413069   8.678   1.590   3.820
  521ACOH    O213070   8.725   1.634   3.893
  521ACOH    C213071   8.678   1.561   3.998
  521ACOH    O113072   8.561   1.529   4.012
  521ACOH    C113073   8.757   1.594   4.117
  521ACOH    H113074   8.858   1.623   4.089
  521ACOH    H213075   8.771   1.512   4.187
  521ACOH    H313076   8.698   1.666   4.174
  522ACOH    H413077   8.970   0.993   7.224
  522ACOH    O213078   8.973   0.951   7.312
  522ACOH    C213079   8.861   0.879   7.331
  522ACOH    O113080   8.770   0.862   7.252
  522ACOH    C113081   8.855   0.818   7.466
  522ACOH    H113082   8.825   0.898   7.533
  522ACOH    H213083   8.948   0.779   7.507
  522ACOH    H313084   8.775   0.744   7.466
  523ACOH    H413085   8.093   0.207   7.193
  523ACOH    O213086   8.063   0.292   7.157
  523ACOH    C213087   8.034   0.273   7.028
  523ACOH    O113088   8.026   0.166   6.966
  523ACOH    C113089   8.037   0.397   6.949
  523ACOH    H113090   8.010   0.376   6.846
  523ACOH    H213091   8.140   0.434   6.950
  523ACOH    H313092   7.978   0.472   7.001
  524ACOH    H413093   8.678   1.590   5.665
  524ACOH    O213094   8.725   1.634   5.738
  524ACOH    C213095   8.678   1.561   5.843
  524ACOH    O113096   8.561   1.529   5.857
  524ACOH    C113097   8.757   1.594   5.962
  524ACOH    H113098   8.858   1.623   5.934
  524ACOH    H213099   8.771   1.512   6.032
  524ACOH    H313100   8.698   1.666   6.019
  525ACOH    H413101   8.651   1.111   7.603
  525ACOH    O213102   8.695   1.189   7.640
  525ACOH    C213103   8.773   1.237   7.539
  525ACOH    O113104   8.768   1.198   7.424
  525ACOH    C113105   8.864   1.335   7.587
  525ACOH    H113106   8.966   1.296   7.580
  525ACOH    H213107   8.849   1.350   7.694
  525ACOH    H313108   8.863   1.428   7.529
  526ACOH    H413109   8.970   0.993   9.070
  526ACOH    O213110   8.973   0.951   9.158
  526ACOH    C213111   8.861   0.879   9.177
  526ACOH    O113112   8.770   0.862   9.098
  526ACOH    C113113   8.855   0.818   9.312
  526ACOH    H113114   8.825   0.898   9.379
  526ACOH    H213115   8.948   0.779   9.353
  526ACOH    H313116   8.775   0.744   9.312
  527ACOH    H413117   8.093   0.207   9.039
  527ACOH    O213118   8.063   0.292   9.003
  527ACOH    C213119   8.034   0.273   8.874
  527ACOH    O113120   8.026   0.166   8.812
  527ACOH    C113121   8.037   0.397   8.795
  527ACOH    H113122   8.010   0.376   8.692
  527ACOH    H213123   8.140   0.434   8.796
  527ACOH    H313124   7.978   0.472   8.847
  528ACOH    H413125   8.678   1.590   7.511
  528ACOH    O213126   8.725   1.634   7.584
  528ACOH    C213127   8.678   1.561   7.689
  528ACOH    O113128   8.561   1.529   7.703
  528ACOH    C113129   8.757   1.594   7.808
  528ACOH    H113130   8.858   1.623   7.780
  528ACOH    H213131   8.771   1.512   7.878
  528ACOH    H313132   8.698   1.666   7.865
  529ACOH    H413133   8.678   1.590   9.356
  529ACOH    O213134   8.725   1.634   9.429
  529ACOH    C213135   8.678   1.561   9.534
  529ACOH    O113136   8.561   1.529   9.548
  529ACOH    C113137   8.757   1.594   9.653
  529ACOH    H113138   8.858   1.623   9.625
  529ACOH    H213139   8.771   1.512   9.723
  529ACOH    H313140   8.698   1.666   9.710
  530ACOH    H413141   8.651   2.956   0.221
  530ACOH    O213142   8.695   3.034   0.258
  530ACOH    C213143   8.773   3.082   0.157
  530ACOH    O113144   8.768   3.043   0.042
  530ACOH    C113145   8.864   3.180   0.205
  530ACOH    H113146   8.966   3.141   0.198
  530ACOH    H213147   8.849   3.195   0.312
  530ACOH    H313148   8.863   3.273   0.147
  531ACOH    H413149   8.970   2.838   1.688
  531ACOH    O213150   8.973   2.796   1.776
  531ACOH    C213151   8.861   2.724   1.795
  531ACOH    O113152   8.770   2.707   1.716
  531ACOH    C113153   8.855   2.663   1.930
  531ACOH    H113154   8.825   2.743   1.997
  531ACOH    H213155   8.948   2.624   1.971
  531ACOH    H313156   8.775   2.589   1.930
  532ACOH    H413157   8.093   2.052   1.657
  532ACOH    O213158   8.063   2.137   1.621
  532ACOH    C213159   8.034   2.118   1.492
  532ACOH    O113160   8.026   2.011   1.430
  532ACOH    C113161   8.037   2.242   1.413
  532ACOH    H113162   8.010   2.221   1.310
  532ACOH    H213163   8.140   2.279   1.414
  532ACOH    H313164   7.978   2.317   1.465
  533ACOH    H413165   8.678   3.435   0.129
  533ACOH    O213166   8.725   3.479   0.202
  533ACOH    C213167   8.678   3.406   0.307
  533ACOH    O113168   8.561   3.374   0.321
  533ACOH    C113169   8.757   3.439   0.426
  533ACOH    H113170   8.858   3.468   0.398
  533ACOH    H213171   8.771   3.357   0.496
  533ACOH    H313172   8.698   3.511   0.483
  534ACOH    H413173   8.651   2.956   2.066
  534ACOH    O213174   8.695   3.034   2.103
  534ACOH    C213175   8.773   3.082   2.002
  534ACOH    O113176   8.768   3.043   1.887
  534ACOH    C113177   8.864   3.180   2.050
  534ACOH    H113178   8.966   3.141   2.043
  534ACOH    H213179   8.849   3.195   2.157
  534ACOH    H313180   8.863   3.273   1.992
  535ACOH    H413181   8.970   2.838   3.533
  535ACOH    O213182   8.973   2.796   3.621
  535ACOH    C213183   8.861   2.724   3.640
  535ACOH    O113184   8.770   2.707   3.561
  535ACOH    C113185   8.855   2.663   3.775
  535ACOH    H113186   8.825   2.743   3.842
  535ACOH    H213187   8.948   2.624   3.816
  535ACOH    H313188   8.775   2.589   3.775
  536ACOH    H413189   8.093   2.052   3.502
  536ACOH    O213190   8.063   2.137   3.466
  536ACOH    C213191   8.034   2.118   3.337
  536ACOH    O113192   8.026   2.011   3.275
  536ACOH    C113193   8.037   2.242   3.258
  536ACOH    H113194   8.010   2.221   3.155
  536ACOH    H213195   8.140   2.279   3.259
  536ACOH    H313196   7.978   2.317   3.310
  537ACOH    H413197   8.651   2.956   3.912
  537ACOH    O213198   8.695   3.034   3.949
  537ACOH    C213199   8.773   3.082   3.848
  537ACOH    O113200   8.768   3.043   3.733
  537ACOH    C113201   8.864   3.180   3.896
  537ACOH    H113202   8.966   3.141   3.889
  537ACOH    H213203   8.849   3.195   4.003
  537ACOH    H313204   8.863   3.273   3.838
  538ACOH    H413205   8.970   2.838   5.379
  538ACOH    O213206   8.973   2.796   5.467
  538ACOH    C213207   8.861   2.724   5.486
  538ACOH    O113208   8.770   2.707   5.407
  538ACOH    C113209   8.855   2.663   5.621
  538ACOH    H113210   8.825   2.743   5.688
  538ACOH    H213211   8.948   2.624   5.662
  538ACOH    H313212   8.775   2.589   5.621
  539ACOH    H413213   8.093   2.052   5.348
  539ACOH    O213214   8.063   2.137   5.312
  539ACOH    C213215   8.034   2.118   5.183
  539ACOH    O113216   8.026   2.011   5.121
  539ACOH    C113217   8.037   2.242   5.104
  539ACOH    H113218   8.010   2.221   5.001
  539ACOH    H213219   8.140   2.279   5.105
  539ACOH    H313220   7.978   2.317   5.156
  540ACOH    H413221   8.678   3.435   3.820
  540ACOH    O213222   8.725   3.479   3.893
  540ACOH    C213223   8.678   3.406   3.998
  540ACOH    O113224   8.561   3.374   4.012
  540ACOH    C113225   8.757   3.439   4.117
  540ACOH    H113226   8.858   3.468   4.089
  540ACOH    H213227   8.771   3.357   4.187
  540ACOH    H313228   8.698   3.511   4.174
  541ACOH    H413229   8.651   2.956   5.757
  541ACOH    O213230   8.695   3.034   5.794
  541ACOH    C213231   8.773   3.082   5.693
  541ACOH    O113232   8.768   3.043   5.578
  541ACOH    C113233   8.864   3.180   5.741
  541ACOH    H113234   8.966   3.141   5.734
  541ACOH    H213235   8.849   3.195   5.848
  541ACOH    H313236   8.863   3.273   5.683
  542ACOH    H413237   8.970   2.838   7.224
  542ACOH    O213238   8.973   2.796   7.312
  542ACOH    C213239   8.861   2.724   7.331
  542ACOH    O113240   8.770   2.707   7.252
  542ACOH    C113241   8.855   2.663   7.466
  542ACOH    H113242   8.825   2.743   7.533
  542ACOH    H213243   8.948   2.624   7.507
  542ACOH    H313244   8.775   2.589   7.466
  543ACOH    H413245   8.651   2.956   7.603
  543ACOH    O213246   8.695   3.034   7.640
  543ACOH    C213247   8.773   3.082   7.539
  543ACOH    O113248   8.768   3.043   7.424
  543ACOH    C113249   8.864   3.180   7.587
  543ACOH    H113250   8.966   3.141   7.580
  543ACOH    H213251   8.849   3.195   7.694
  543ACOH    H313252   8.863   3.273   7.529
  544ACOH    H413253   8.970   2.838   9.070
  544ACOH    O213254   8.973   2.796   9.158
  544ACOH    C213255   8.861   2.724   9.177
  544ACOH    O113256   8.770   2.707   9.098
  544ACOH    C113257   8.855   2.663   9.312
  544ACOH    H113258   8.825   2.743   9.379
  544ACOH    H213259   8.948   2.624   9.353
  544ACOH    H313260   8.775   2.589   9.312
  545ACOH    H413261   8.651   2.956   9.448
  545ACOH    O213262   8.695   3.034   9.485
  545ACOH    C213263   8.773   3.082   9.384
  545ACOH    O113264   8.768   3.043   9.269
  545ACOH    C113265   8.864   3.180   9.432
  545ACOH    H113266   8.966   3.141   9.425
  545ACOH    H213267   8.849   3.195   9.539
  545ACOH    H313268   8.863   3.273   9.374
  546ACOH    H413269   8.678   3.435   9.356
  546ACOH    O213270   8.725   3.479   9.429
  546ACOH    C213271   8.678   3.406   9.534
  546ACOH    O113272   8.561   3.374   9.548
  546ACOH    C113273   8.757   3.439   9.653
  546ACOH    H113274   8.858   3.468   9.625
  546ACOH    H213275   8.771   3.357   9.723
  546ACOH    H313276   8.698   3.511   9.710
  547ACOH    H413277   8.970   4.684   1.688
  547ACOH    O213278   8.973   4.642   1.776
  547ACOH    C213279   8.861   4.570   1.795
  547ACOH    O113280   8.770   4.553   1.716
  547ACOH    C113281   8.855   4.509   1.930
  547ACOH    H113282   8.825   4.589   1.997
  547ACOH    H213283   8.948   4.470   1.971
  547ACOH    H313284   8.775   4.435   1.930
  548ACOH    H413285   8.093   3.898   1.657
  548ACOH    O213286   8.063   3.983   1.621
  548ACOH    C213287   8.034   3.964   1.492
  548ACOH    O113288   8.026   3.857   1.430
  548ACOH    C113289   8.037   4.088   1.413
  548ACOH    H113290   8.010   4.067   1.310
  548ACOH    H213291   8.140   4.125   1.414
  548ACOH    H313292   7.978   4.163   1.465
  549ACOH    H413293   8.651   4.802   2.066
  549ACOH    O213294   8.695   4.880   2.103
  549ACOH    C213295   8.773   4.928   2.002
  549ACOH    O113296   8.768   4.889   1.887
  549ACOH    C113297   8.864   5.026   2.050
  549ACOH    H113298   8.966   4.987   2.043
  549ACOH    H213299   8.849   5.041   2.157
  549ACOH    H313300   8.863   5.119   1.992
  550ACOH    H413301   8.970   4.684   3.533
  550ACOH    O213302   8.973   4.642   3.621
  550ACOH    C213303   8.861   4.570   3.640
  550ACOH    O113304   8.770   4.553   3.561
  550ACOH    C113305   8.855   4.509   3.775
  550ACOH    H113306   8.825   4.589   3.842
  550ACOH    H213307   8.948   4.470   3.816
  550ACOH    H313308   8.775   4.435   3.775
  551ACOH    H413309   8.093   3.898   3.502
  551ACOH    O213310   8.063   3.983   3.466
  551ACOH    C213311   8.034   3.964   3.337
  551ACOH    O113312   8.026   3.857   3.275
  551ACOH    C113313   8.037   4.088   3.258
  551ACOH    H113314   8.010   4.067   3.155
  551ACOH    H213315   8.140   4.125   3.259
  551ACOH    H313316   7.978   4.163   3.310
  552ACOH    H413317   8.678   5.281   1.974
  552ACOH    O213318   8.725   5.325   2.047
  552ACOH    C213319   8.678   5.252   2.152
  552ACOH    O113320   8.561   5.220   2.166
  552ACOH    C113321   8.757   5.285   2.271
  552ACOH    H113322   8.858   5.314   2.243
  552ACOH    H213323   8.771   5.203   2.341
  552ACOH    H313324   8.698   5.357   2.328
  553ACOH    H413325   8.651   4.802   3.912
  553ACOH    O213326   8.695   4.880   3.949
  553ACOH    C213327   8.773   4.928   3.848
  553ACOH    O113328   8.768   4.889   3.733
  553ACOH    C113329   8.864   5.026   3.896
  553ACOH    H113330   8.966   4.987   3.889
  553ACOH    H213331   8.849   5.041   4.003
  553ACOH    H313332   8.863   5.119   3.838
  554ACOH    H413333   8.970   4.684   5.379
  554ACOH    O213334   8.973   4.642   5.467
  554ACOH    C213335   8.861   4.570   5.486
  554ACOH    O113336   8.770   4.553   5.407
  554ACOH    C113337   8.855   4.509   5.621
  554ACOH    H113338   8.825   4.589   5.688
  554ACOH    H213339   8.948   4.470   5.662
  554ACOH    H313340   8.775   4.435   5.621
  555ACOH    H413341   8.093   3.898   5.348
  555ACOH    O213342   8.063   3.983   5.312
  555ACOH    C213343   8.034   3.964   5.183
  555ACOH    O113344   8.026   3.857   5.121
  555ACOH    C113345   8.037   4.088   5.104
  555ACOH    H113346   8.010   4.067   5.001
  555ACOH    H213347   8.140   4.125   5.105
  555ACOH    H313348   7.978   4.163   5.156
  556ACOH    H413349   8.678   5.281   3.820
  556ACOH    O213350   8.725   5.325   3.893
  556ACOH    C213351   8.678   5.252   3.998
  556ACOH    O113352   8.561   5.220   4.012
  556ACOH    C113353   8.757   5.285   4.117
  556ACOH    H113354   8.858   5.314   4.089
  556ACOH    H213355   8.771   5.203   4.187
  556ACOH    H313356   8.698   5.357   4.174
  557ACOH    H413357   8.093   3.898   7.193
  557ACOH    O213358   8.063   3.983   7.157
  557ACOH    C213359   8.034   3.964   7.028
  557ACOH    O113360   8.026   3.857   6.966
  557ACOH    C113361   8.037   4.088   6.949
  557ACOH    H113362   8.010   4.067   6.846
  557ACOH    H213363   8.140   4.125   6.950
  557ACOH    H313364   7.978   4.163   7.001
  558ACOH    H413365   8.970   4.684   9.070
  558ACOH    O213366   8.973   4.642   9.158
  558ACOH    C213367   8.861   4.570   9.177
  558ACOH    O113368   8.770   4.553   9.098
  558ACOH    C113369   8.855   4.509   9.312
  558ACOH    H113370   8.825   4.589   9.379
  558ACOH    H213371   8.948   4.470   9.353
  558ACOH    H313372   8.775   4.435   9.312
  559ACOH    H413373   8.093   3.898   9.039
  559ACOH    O213374   8.063   3.983   9.003
  559ACOH    C213375   8.034   3.964   8.874
  559ACOH    O113376   8.026   3.857   8.812
  559ACOH    C113377   8.037   4.088   8.795
  559ACOH    H113378   8.010   4.067   8.692
  559ACOH    H213379   8.140   4.125   8.796
  559ACOH    H313380   7.978   4.163   8.847
  560ACOH    H413381   8.651   6.647   0.221
  560ACOH    O213382   8.695   6.725   0.258
  560ACOH    C213383   8.773   6.773   0.157
  560ACOH    O113384   8.768   6.734   0.042
  560ACOH    C113385   8.864   6.871   0.205
  560ACOH    H113386   8.966   6.832   0.198
  560ACOH    H213387   8.849   6.886   0.312
  560ACOH    H313388   8.863   6.964   0.147
  561ACOH    H413389   8.970   6.529   1.688
  561ACOH    O213390   8.973   6.487   1.776
  561ACOH    C213391   8.861   6.415   1.795
  561ACOH    O113392   8.770   6.398   1.716
  561ACOH    C113393   8.855   6.354   1.930
  561ACOH    H113394   8.825   6.434   1.997
  561ACOH    H213395   8.948   6.315   1.971
  561ACOH    H313396   8.775   6.280   1.930
  562ACOH    H413397   8.093   5.743   1.657
  562ACOH    O213398   8.063   5.828   1.621
  562ACOH    C213399   8.034   5.809   1.492
  562ACOH    O113400   8.026   5.702   1.430
  562ACOH    C113401   8.037   5.933   1.413
  562ACOH    H113402   8.010   5.912   1.310
  562ACOH    H213403   8.140   5.970   1.414
  562ACOH    H313404   7.978   6.008   1.465
  563ACOH    H413405   8.678   7.126   0.129
  563ACOH    O213406   8.725   7.170   0.202
  563ACOH    C213407   8.678   7.097   0.307
  563ACOH    O113408   8.561   7.065   0.321
  563ACOH    C113409   8.757   7.130   0.426
  563ACOH    H113410   8.858   7.159   0.398
  563ACOH    H213411   8.771   7.048   0.496
  563ACOH    H313412   8.698   7.202   0.483
  564ACOH    H413413   8.651   6.647   2.066
  564ACOH    O213414   8.695   6.725   2.103
  564ACOH    C213415   8.773   6.773   2.002
  564ACOH    O113416   8.768   6.734   1.887
  564ACOH    C113417   8.864   6.871   2.050
  564ACOH    H113418   8.966   6.832   2.043
  564ACOH    H213419   8.849   6.886   2.157
  564ACOH    H313420   8.863   6.964   1.992
  565ACOH    H413421   8.970   6.529   3.533
  565ACOH    O213422   8.973   6.487   3.621
  565ACOH    C213423   8.861   6.415   3.640
  565ACOH    O113424   8.770   6.398   3.561
  565ACOH    C113425   8.855   6.354   3.775
  565ACOH    H113426   8.825   6.434   3.842
  565ACOH    H213427   8.948   6.315   3.816
  565ACOH    H313428   8.775   6.280   3.775
  566ACOH    H413429   8.093   5.743   3.502
  566ACOH    O213430   8.063   5.828   3.466
  566ACOH    C213431   8.034   5.809   3.337
  566ACOH    O113432   8.026   5.702   3.275
  566ACOH    C113433   8.037   5.933   3.258
  566ACOH    H113434   8.010   5.912   3.155
  566ACOH    H213435   8.140   5.970   3.259
  566ACOH    H313436   7.978   6.008   3.310
  567ACOH    H413437   8.678   7.126   1.974
  567ACOH    O213438   8.725   7.170   2.047
  567ACOH    C213439   8.678   7.097   2.152
  567ACOH    O113440   8.561   7.065   2.166
  567ACOH    C113441   8.757   7.130   2.271
  567ACOH    H113442   8.858   7.159   2.243
  567ACOH    H213443   8.771   7.048   2.341
  567ACOH    H313444   8.698   7.202   2.328
  568ACOH    H413445   8.651   6.647   3.912
  568ACOH    O213446   8.695   6.725   3.949
  568ACOH    C213447   8.773   6.773   3.848
  568ACOH    O113448   8.768   6.734   3.733
  568ACOH    C113449   8.864   6.871   3.896
  568ACOH    H113450   8.966   6.832   3.889
  568ACOH    H213451   8.849   6.886   4.003
  568ACOH    H313452   8.863   6.964   3.838
  569ACOH    H413453   8.970   6.529   5.379
  569ACOH    O213454   8.973   6.487   5.467
  569ACOH    C213455   8.861   6.415   5.486
  569ACOH    O113456   8.770   6.398   5.407
  569ACOH    C113457   8.855   6.354   5.621
  569ACOH    H113458   8.825   6.434   5.688
  569ACOH    H213459   8.948   6.315   5.662
  569ACOH    H313460   8.775   6.280   5.621
  570ACOH    H413461   8.093   5.743   5.348
  570ACOH    O213462   8.063   5.828   5.312
  570ACOH    C213463   8.034   5.809   5.183
  570ACOH    O113464   8.026   5.702   5.121
  570ACOH    C113465   8.037   5.933   5.104
  570ACOH    H113466   8.010   5.912   5.001
  570ACOH    H213467   8.140   5.970   5.105
  570ACOH    H313468   7.978   6.008   5.156
  571ACOH    H413469   8.678   7.126   3.820
  571ACOH    O213470   8.725   7.170   3.893
  571ACOH    C213471   8.678   7.097   3.998
  571ACOH    O113472   8.561   7.065   4.012
  571ACOH    C113473   8.757   7.130   4.117
  571ACOH    H113474   8.858   7.159   4.089
  571ACOH    H213475   8.771   7.048   4.187
  571ACOH    H313476   8.698   7.202   4.174
  572ACOH    H413477   8.651   6.647   5.757
  572ACOH    O213478   8.695   6.725   5.794
  572ACOH    C213479   8.773   6.773   5.693
  572ACOH    O113480   8.768   6.734   5.578
  572ACOH    C113481   8.864   6.871   5.741
  572ACOH    H113482   8.966   6.832   5.734
  572ACOH    H213483   8.849   6.886   5.848
  572ACOH    H313484   8.863   6.964   5.683
  573ACOH    H413485   8.678   7.126   5.665
  573ACOH    O213486   8.725   7.170   5.738
  573ACOH    C213487   8.678   7.097   5.843
  573ACOH    O113488   8.561   7.065   5.857
  573ACOH    C113489   8.757   7.130   5.962
  573ACOH    H113490   8.858   7.159   5.934
  573ACOH    H213491   8.771   7.048   6.032
  573ACOH    H313492   8.698   7.202   6.019
  574ACOH    H413493   8.651   6.647   7.603
  574ACOH    O213494   8.695   6.725   7.640
  574ACOH    C213495   8.773   6.773   7.539
  574ACOH    O113496   8.768   6.734   7.424
  574ACOH    C113497   8.864   6.871   7.587
  574ACOH    H113498   8.966   6.832   7.580
  574ACOH    H213499   8.849   6.886   7.694
  574ACOH    H313500   8.863   6.964   7.529
  575ACOH    H413501   8.970   6.529   9.070
  575ACOH    O213502   8.973   6.487   9.158
  575ACOH    C213503   8.861   6.415   9.177
  575ACOH    O113504   8.770   6.398   9.098
  575ACOH    C113505   8.855   6.354   9.312
  575ACOH    H113506   8.825   6.434   9.379
  575ACOH    H213507   8.948   6.315   9.353
  575ACOH    H313508   8.775   6.280   9.312
  576ACOH    H413509   8.093   5.743   9.039
  576ACOH    O213510   8.063   5.828   9.003
  576ACOH    C213511   8.034   5.809   8.874
  576ACOH    O113512   8.026   5.702   8.812
  576ACOH    C113513   8.037   5.933   8.795
  576ACOH    H113514   8.010   5.912   8.692
  576ACOH    H213515   8.140   5.970   8.796
  576ACOH    H313516   7.978   6.008   8.847
  577ACOH    H413517   8.678   7.126   7.511
  577ACOH    O213518   8.725   7.170   7.584
  577ACOH    C213519   8.678   7.097   7.689
  577ACOH    O113520   8.561   7.065   7.703
  577ACOH    C113521   8.757   7.130   7.808
  577ACOH    H113522   8.858   7.159   7.780
  577ACOH    H213523   8.771   7.048   7.878
  577ACOH    H313524   8.698   7.202   7.865
  578ACOH    H413525   8.651   6.647   9.448
  578ACOH    O213526   8.695   6.725   9.485
  578ACOH    C213527   8.773   6.773   9.384
  578ACOH    O113528   8.768   6.734   9.269
  578ACOH    C113529   8.864   6.871   9.432
  578ACOH    H113530   8.966   6.832   9.425
  578ACOH    H213531   8.849   6.886   9.539
  578ACOH    H313532   8.863   6.964   9.374
  579ACOH    H413533   8.678   7.126   9.356
  579ACOH    O213534   8.725   7.170   9.429
  579ACOH    C213535   8.678   7.097   9.534
  579ACOH    O113536   8.561   7.065   9.548
  579ACOH    C113537   8.757   7.130   9.653
  579ACOH    H113538   8.858   7.159   9.625
  579ACOH    H213539   8.771   7.048   9.723
  579ACOH    H313540   8.698   7.202   9.710
  580ACOH    H413541   8.651   8.493   0.221
  580ACOH    O213542   8.695   8.571   0.258
  580ACOH    C213543   8.773   8.619   0.157
  580ACOH    O113544   8.768   8.580   0.042
  580ACOH    C113545   8.864   8.717   0.205
  580ACOH    H113546   8.966   8.678   0.198
  580ACOH    H213547   8.849   8.732   0.312
  580ACOH    H313548   8.863   8.810   0.147
  581ACOH    H413549   8.970   8.375   1.688
  581ACOH    O213550   8.973   8.333   1.776
  581ACOH    C213551   8.861   8.261   1.795
  581ACOH    O113552   8.770   8.244   1.716
  581ACOH    C113553   8.855   8.200   1.930
  581ACOH    H113554   8.825   8.280   1.997
  581ACOH    H213555   8.948   8.161   1.971
  581ACOH    H313556   8.775   8.126   1.930
  582ACOH    H413557   8.678   8.972   0.129
  582ACOH    O213558   8.725   9.016   0.202
  582ACOH    C213559   8.678   8.943   0.307
  582ACOH    O113560   8.561   8.911   0.321
  582ACOH    C113561   8.757   8.976   0.426
  582ACOH    H113562   8.858   9.005   0.398
  582ACOH    H213563   8.771   8.894   0.496
  582ACOH    H313564   8.698   9.048   0.483
  583ACOH    H413565   8.651   8.493   2.066
  583ACOH    O213566   8.695   8.571   2.103
  583ACOH    C213567   8.773   8.619   2.002
  583ACOH    O113568   8.768   8.580   1.887
  583ACOH    C113569   8.864   8.717   2.050
  583ACOH    H113570   8.966   8.678   2.043
  583ACOH    H213571   8.849   8.732   2.157
  583ACOH    H313572   8.863   8.810   1.992
  584ACOH    H413573   8.970   8.375   3.533
  584ACOH    O213574   8.973   8.333   3.621
  584ACOH    C213575   8.861   8.261   3.640
  584ACOH    O113576   8.770   8.244   3.561
  584ACOH    C113577   8.855   8.200   3.775
  584ACOH    H113578   8.825   8.280   3.842
  584ACOH    H213579   8.948   8.161   3.816
  584ACOH    H313580   8.775   8.126   3.775
  585ACOH    H413581   8.093   7.589   3.502
  585ACOH    O213582   8.063   7.674   3.466
  585ACOH    C213583   8.034   7.655   3.337
  585ACOH    O113584   8.026   7.548   3.275
  585ACOH    C113585   8.037   7.779   3.258
  585ACOH    H113586   8.010   7.758   3.155
  585ACOH    H213587   8.140   7.816   3.259
  585ACOH    H313588   7.978   7.854   3.310
  586ACOH    H413589   8.678   8.972   1.974
  586ACOH    O213590   8.725   9.016   2.047
  586ACOH    C213591   8.678   8.943   2.152
  586ACOH    O113592   8.561   8.911   2.166
  586ACOH    C113593   8.757   8.976   2.271
  586ACOH    H113594   8.858   9.005   2.243
  586ACOH    H213595   8.771   8.894   2.341
  586ACOH    H313596   8.698   9.048   2.328
  587ACOH    H413597   8.651   8.493   3.912
  587ACOH    O213598   8.695   8.571   3.949
  587ACOH    C213599   8.773   8.619   3.848
  587ACOH    O113600   8.768   8.580   3.733
  587ACOH    C113601   8.864   8.717   3.896
  587ACOH    H113602   8.966   8.678   3.889
  587ACOH    H213603   8.849   8.732   4.003
  587ACOH    H313604   8.863   8.810   3.838
  588ACOH    H413605   8.970   8.375   5.379
  588ACOH    O213606   8.973   8.333   5.467
  588ACOH    C213607   8.861   8.261   5.486
  588ACOH    O113608   8.770   8.244   5.407
  588ACOH    C113609   8.855   8.200   5.621
  588ACOH    H113610   8.825   8.280   5.688
  588ACOH    H213611   8.948   8.161   5.662
  588ACOH    H313612   8.775   8.126   5.621
  589ACOH    H413613   8.093   7.589   5.348
  589ACOH    O213614   8.063   7.674   5.312
  589ACOH    C213615   8.034   7.655   5.183
  589ACOH    O113616   8.026   7.548   5.121
  589ACOH    C113617   8.037   7.779   5.104
  589ACOH    H113618   8.010   7.758   5.001
  589ACOH    H213619   8.140   7.816   5.105
  589ACOH    H313620   7.978   7.854   5.156
  590ACOH    H413621   8.678   8.972   3.820
  590ACOH    O213622   8.725   9.016   3.893
  590ACOH    C213623   8.678   8.943   3.998
  590ACOH    O113624   8.561   8.911   4.012
  590ACOH    C113625   8.757   8.976   4.117
  590ACOH    H113626   8.858   9.005   4.089
  590ACOH    H213627   8.771   8.894   4.187
  590ACOH    H313628   8.698   9.048   4.174
  591ACOH    H413629   8.651   8.493   5.757
  591ACOH    O213630   8.695   8.571   5.794
  591ACOH    C213631   8.773   8.619   5.693
  591ACOH    O113632   8.768   8.580   5.578
  591ACOH    C113633   8.864   8.717   5.741
  591ACOH    H113634   8.966   8.678   5.734
  591ACOH    H213635   8.849   8.732   5.848
  591ACOH    H313636   8.863   8.810   5.683
  592ACOH    H413637   8.970   8.375   7.224
  592ACOH    O213638   8.973   8.333   7.312
  592ACOH    C213639   8.861   8.261   7.331
  592ACOH    O113640   8.770   8.244   7.252
  592ACOH    C113641   8.855   8.200   7.466
  592ACOH    H113642   8.825   8.280   7.533
  592ACOH    H213643   8.948   8.161   7.507
  592ACOH    H313644   8.775   8.126   7.466
  593ACOH    H413645   8.093   7.589   7.193
  593ACOH    O213646   8.063   7.674   7.157
  593ACOH    C213647   8.034   7.655   7.028
  593ACOH    O113648   8.026   7.548   6.966
  593ACOH    C113649   8.037   7.779   6.949
  593ACOH    H113650   8.010   7.758   6.846
  593ACOH    H213651   8.140   7.816   6.950
  593ACOH    H313652   7.978   7.854   7.001
  594ACOH    H413653   8.678   8.972   5.665
  594ACOH    O213654   8.725   9.016   5.738
  594ACOH    C213655   8.678   8.943   5.843
  594ACOH    O113656   8.561   8.911   5.857
  594ACOH    C113657   8.757   8.976   5.962
  594ACOH    H113658   8.858   9.005   5.934
  594ACOH    H213659   8.771   8.894   6.032
  594ACOH    H313660   8.698   9.048   6.019
  595ACOH    H413661   8.651   8.493   7.603
  595ACOH    O213662   8.695   8.571   7.640
  595ACOH    C213663   8.773   8.619   7.539
  595ACOH    O113664   8.768   8.580   7.424
  595ACOH    C113665   8.864   8.717   7.587
  595ACOH    H113666   8.966   8.678   7.580
  595ACOH    H213667   8.849   8.732   7.694
  595ACOH    H313668   8.863   8.810   7.529
  596ACOH    H413669   8.970   8.375   9.070
  596ACOH    O213670   8.973   8.333   9.158
  596ACOH    C213671   8.861   8.261   9.177
  596ACOH    O113672   8.770   8.244   9.098
  596ACOH    C113673   8.855   8.200   9.312
  596ACOH    H113674   8.825   8.280   9.379
  596ACOH    H213675   8.948   8.161   9.353
  596ACOH    H313676   8.775   8.126   9.312
  597ACOH    H413677   8.093   7.589   9.039
  597ACOH    O213678   8.063   7.674   9.003
  597ACOH    C213679   8.034   7.655   8.874
  597ACOH    O113680   8.026   7.548   8.812
  597ACOH    C113681   8.037   7.779   8.795
  597ACOH    H113682   8.010   7.758   8.692
  597ACOH    H213683   8.140   7.816   8.796
  597ACOH    H313684   7.978   7.854   8.847
  598ACOH    H413685   8.678   8.972   7.511
  598ACOH    O213686   8.725   9.016   7.584
  598ACOH    C213687   8.678   8.943   7.689
  598ACOH    O113688   8.561   8.911   7.703
  598ACOH    C113689   8.757   8.976   7.808
  598ACOH    H113690   8.858   9.005   7.780
  598ACOH    H213691   8.771   8.894   7.878
  598ACOH    H313692   8.698   9.048   7.865
  599ACOH    H413693   8.651   8.493   9.448
  599ACOH    O213694   8.695   8.571   9.485
  599ACOH    C213695   8.773   8.619   9.384
  599ACOH    O113696   8.768   8.580   9.269
  599ACOH    C113697   8.864   8.717   9.432
  599ACOH    H113698   8.966   8.678   9.425
  599ACOH    H213699   8.849   8.732   9.539
  599ACOH    H313700   8.863   8.810   9.374
  600ACOH    H413701   8.678   8.972   9.356
  600ACOH    O213702   8.725   9.016   9.429
  600ACOH    C213703   8.678   8.943   9.534
  600ACOH    O113704   8.561   8.911   9.548
  600ACOH    C113705   8.757   8.976   9.653
  600ACOH    H113706   8.858   9.005   9.625
  600ACOH    H213707   8.771   8.894   9.723
  600ACOH    H313708   8.698   9.048   9.710
  601ACOH    H413709   8.093   9.434   1.657
  601ACOH    O213710   8.063   9.519   1.621
  601ACOH    C213711   8.034   9.500   1.492
  601ACOH    O113712   8.026   9.393   1.430
  601ACOH    C113713   8.037   9.624   1.413
  601ACOH    H113714   8.010   9.603   1.310
  601ACOH    H213715   8.140   9.661   1.414
  601ACOH    H313716   7.978   9.699   1.465
  602ACOH    H413717   8.093   9.434   3.502
  602ACOH    O213718   8.063   9.519   3.466
  602ACOH    C213719   8.034   9.500   3.337
  602ACOH    O113720   8.026   9.393   3.275
  602ACOH    C113721   8.037   9.624   3.258
  602ACOH    H113722   8.010   9.603   3.155
  602ACOH    H213723   8.140   9.661   3.259
  602ACOH    H313724   7.978   9.699   3.310
  603ACOH    H413725   8.093   9.434   5.348
  603ACOH    O213726   8.063   9.519   5.312
  603ACOH    C213727   8.034   9.500   5.183
  603ACOH    O113728   8.026   9.393   5.121
  603ACOH    C113729   8.037   9.624   5.104
  603ACOH    H113730   8.010   9.603   5.001
  603ACOH    H213731   8.140   9.661   5.105
  603ACOH    H313732   7.978   9.699   5.156
  604ACOH    H413733   8.093   9.434   7.193
  604ACOH    O213734   8.063   9.519   7.157
  604ACOH    C213735   8.034   9.500   7.028
  604ACOH    O113736   8.026   9.393   6.966
  604ACOH    C113737   8.037   9.624   6.949
  604ACOH    H113738   8.010   9.603   6.846
  604ACOH    H213739   8.140   9.661   6.950
  604ACOH    H313740   7.978   9.699   7.001
  605ACOH    H413741   8.093   9.434   9.039
  605ACOH    O213742   8.063   9.519   9.003
  605ACOH    C213743   8.034   9.500   8.874
  605ACOH    O113744   8.026   9.393   8.812
  605ACOH    C113745   8.037   9.624   8.795
  605ACOH    H113746   8.010   9.603   8.692
  605ACOH    H213747   8.140   9.661   8.796
  605ACOH    H313748   7.978   9.699   8.847
  606ACOH    H413749   9.938   0.207   3.502
  606ACOH    O213750   9.908   0.292   3.466
  606ACOH    C213751   9.879   0.273   3.337
  606ACOH    O113752   9.871   0.166   3.275
  606ACOH    C113753   9.882   0.397   3.258
  606ACOH    H113754   9.855   0.376   3.155
  606ACOH    H213755   9.985   0.434   3.259
  606ACOH    H313756   9.823   0.472   3.310
  607ACOH    H413757   9.938   0.207   5.348
  607ACOH    O213758   9.908   0.292   5.312
  607ACOH    C213759   9.879   0.273   5.183
  607ACOH    O113760   9.871   0.166   5.121
  607ACOH    C113761   9.882   0.397   5.104
  607ACOH    H113762   9.855   0.376   5.001
  607ACOH    H213763   9.985   0.434   5.105
  607ACOH    H313764   9.823   0.472   5.156
  608ACOH    H413765   9.938   0.207   7.193
  608ACOH    O213766   9.908   0.292   7.157
  608ACOH    C213767   9.879   0.273   7.028
  608ACOH    O113768   9.871   0.166   6.966
  608ACOH    C113769   9.882   0.397   6.949
  608ACOH    H113770   9.855   0.376   6.846
  608ACOH    H213771   9.985   0.434   6.950
  608ACOH    H313772   9.823   0.472   7.001
  609ACOH    H413773   9.938   0.207   9.039
  609ACOH    O213774   9.908   0.292   9.003
  609ACOH    C213775   9.879   0.273   8.874
  609ACOH    O113776   9.871   0.166   8.812
  609ACOH    C113777   9.882   0.397   8.795
  609ACOH    H113778   9.855   0.376   8.692
  609ACOH    H213779   9.985   0.434   8.796
  609ACOH    H313780   9.823   0.472   8.847
  610ACOH    H413781   9.938   2.052   1.657
  610ACOH    O213782   9.908   2.137   1.621
  610ACOH    C213783   9.879   2.118   1.492
  610ACOH    O113784   9.871   2.011   1.430
  610ACOH    C113785   9.882   2.242   1.413
  610ACOH    H113786   9.855   2.221   1.310
  610ACOH    H213787   9.985   2.279   1.414
  610ACOH    H313788   9.823   2.317   1.465
  611ACOH    H413789   9.938   2.052   3.502
  611ACOH    O213790   9.908   2.137   3.466
  611ACOH    C213791   9.879   2.118   3.337
  611ACOH    O113792   9.871   2.011   3.275
  611ACOH    C113793   9.882   2.242   3.258
  611ACOH    H113794   9.855   2.221   3.155
  611ACOH    H213795   9.985   2.279   3.259
  611ACOH    H313796   9.823   2.317   3.310
  612ACOH    H413797   9.938   2.052   7.193
  612ACOH    O213798   9.908   2.137   7.157
  612ACOH    C213799   9.879   2.118   7.028
  612ACOH    O113800   9.871   2.011   6.966
  612ACOH    C113801   9.882   2.242   6.949
  612ACOH    H113802   9.855   2.221   6.846
  612ACOH    H213803   9.985   2.279   6.950
  612ACOH    H313804   9.823   2.317   7.001
  613ACOH    H413805   9.938   2.052   9.039
  613ACOH    O213806   9.908   2.137   9.003
  613ACOH    C213807   9.879   2.118   8.874
  613ACOH    O113808   9.871   2.011   8.812
  613ACOH    C113809   9.882   2.242   8.795
  613ACOH    H113810   9.855   2.221   8.692
  613ACOH    H213811   9.985   2.279   8.796
  613ACOH    H313812   9.823   2.317   8.847
  614ACOH    H413813   9.938   3.898   1.657
  614ACOH    O213814   9.908   3.983   1.621
  614ACOH    C213815   9.879   3.964   1.492
  614ACOH    O113816   9.871   3.857   1.430
  614ACOH    C113817   9.882   4.088   1.413
  614ACOH    H113818   9.855   4.067   1.310
  614ACOH    H213819   9.985   4.125   1.414
  614ACOH    H313820   9.823   4.163   1.465
  615ACOH    H413821   9.938   3.898   3.502
  615ACOH    O213822   9.908   3.983   3.466
  615ACOH    C213823   9.879   3.964   3.337
  615ACOH    O113824   9.871   3.857   3.275
  615ACOH    C113825   9.882   4.088   3.258
  615ACOH    H113826   9.855   4.067   3.155
  615ACOH    H213827   9.985   4.125   3.259
  615ACOH    H313828   9.823   4.163   3.310
  616ACOH    H413829   9.938   3.898   5.348
  616ACOH    O213830   9.908   3.983   5.312
  616ACOH    C213831   9.879   3.964   5.183
  616ACOH    O113832   9.871   3.857   5.121
  616ACOH    C113833   9.882   4.088   5.104
  616ACOH    H113834   9.855   4.067   5.001
  616ACOH    H213835   9.985   4.125   5.105
  616ACOH    H313836   9.823   4.163   5.156
  617ACOH    H413837   9.938   3.898   7.193
  617ACOH    O213838   9.908   3.983   7.157
  617ACOH    C213839   9.879   3.964   7.028
  617ACOH    O113840   9.871   3.857   6.966
  617ACOH    C113841   9.882   4.088   6.949
  617ACOH    H113842   9.855   4.067   6.846
  617ACOH    H213843   9.985   4.125   6.950
  617ACOH    H313844   9.823   4.163   7.001
  618ACOH    H413845   9.938   3.898   9.039
  618ACOH    O213846   9.908   3.983   9.003
  618ACOH    C213847   9.879   3.964   8.874
  618ACOH    O113848   9.871   3.857   8.812
  618ACOH    C113849   9.882   4.088   8.795
  618ACOH    H113850   9.855   4.067   8.692
  618ACOH    H213851   9.985   4.125   8.796
  618ACOH    H313852   9.823   4.163   8.847
  619ACOH    H413853   9.938   5.743   1.657
  619ACOH    O213854   9.908   5.828   1.621
  619ACOH    C213855   9.879   5.809   1.492
  619ACOH    O113856   9.871   5.702   1.430
  619ACOH    C113857   9.882   5.933   1.413
  619ACOH    H113858   9.855   5.912   1.310
  619ACOH    H213859   9.985   5.970   1.414
  619ACOH    H313860   9.823   6.008   1.465
  620ACOH    H413861   9.938   5.743   3.502
  620ACOH    O213862   9.908   5.828   3.466
  620ACOH    C213863   9.879   5.809   3.337
  620ACOH    O113864   9.871   5.702   3.275
  620ACOH    C113865   9.882   5.933   3.258
  620ACOH    H113866   9.855   5.912   3.155
  620ACOH    H213867   9.985   5.970   3.259
  620ACOH    H313868   9.823   6.008   3.310
  621ACOH    H413869   9.938   5.743   5.348
  621ACOH    O213870   9.908   5.828   5.312
  621ACOH    C213871   9.879   5.809   5.183
  621ACOH    O113872   9.871   5.702   5.121
  621ACOH    C113873   9.882   5.933   5.104
  621ACOH    H113874   9.855   5.912   5.001
  621ACOH    H213875   9.985   5.970   5.105
  621ACOH    H313876   9.823   6.008   5.156
  622ACOH    H413877   9.938   5.743   7.193
  622ACOH    O213878   9.908   5.828   7.157
  622ACOH    C213879   9.879   5.809   7.028
  622ACOH    O113880   9.871   5.702   6.966
  622ACOH    C113881   9.882   5.933   6.949
  622ACOH    H113882   9.855   5.912   6.846
  622ACOH    H213883   9.985   5.970   6.950
  622ACOH    H313884   9.823   6.008   7.001
  623ACOH    H413885   9.938   5.743   9.039
  623ACOH    O213886   9.908   5.828   9.003
  623ACOH    C213887   9.879   5.809   8.874
  623ACOH    O113888   9.871   5.702   8.812
  623ACOH    C113889   9.882   5.933   8.795
  623ACOH    H113890   9.855   5.912   8.692
  623ACOH    H213891   9.985   5.970   8.796
  623ACOH    H313892   9.823   6.008   8.847
  624ACOH    H413893   9.938   7.589   1.657
  624ACOH    O213894   9.908   7.674   1.621
  624ACOH    C213895   9.879   7.655   1.492
  624ACOH    O113896   9.871   7.548   1.430
  624ACOH    C113897   9.882   7.779   1.413
  624ACOH    H113898   9.855   7.758   1.310
  624ACOH    H213899   9.985   7.816   1.414
  624ACOH    H313900   9.823   7.854   1.465
  625ACOH    H413901   9.938   7.589   3.502
  625ACOH    O213902   9.908   7.674   3.466
  625ACOH    C213903   9.879   7.655   3.337
  625ACOH    O113904   9.871   7.548   3.275
  625ACOH    C113905   9.882   7.779   3.258
  625ACOH    H113906   9.855   7.758   3.155
  625ACOH    H213907   9.985   7.816   3.259
  625ACOH    H313908   9.823   7.854   3.310
  626ACOH    H413909   9.938   7.589   5.348
  626ACOH    O213910   9.908   7.674   5.312
  626ACOH    C213911   9.879   7.655   5.183
  626ACOH    O113912   9.871   7.548   5.121
  626ACOH    C113913   9.882   7.779   5.104
  626ACOH    H113914   9.855   7.758   5.001
  626ACOH    H213915   9.985   7.816   5.105
  626ACOH    H313916   9.823   7.854   5.156
  627ACOH    H413917   9.938   7.589   7.193
  627ACOH    O213918   9.908   7.674   7.157
  627ACOH    C213919   9.879   7.655   7.028
  627ACOH    O113920   9.871   7.548   6.966
  627ACOH    C113921   9.882   7.779   6.949
  627ACOH    H113922   9.855   7.758   6.846
  627ACOH    H213923   9.985   7.816   6.950
  627ACOH    H313924   9.823   7.854   7.001
  628ACOH    H413925   9.938   7.589   9.039
  628ACOH    O213926   9.908   7.674   9.003
  628ACOH    C213927   9.879   7.655   8.874
  628ACOH    O113928   9.871   7.548   8.812
  628ACOH    C113929   9.882   7.779   8.795
  628ACOH    H113930   9.855   7.758   8.692
  628ACOH    H213931   9.985   7.816   8.796
  628ACOH    H313932   9.823   7.854   8.847
  629ACOH    H413933   9.938   9.434   1.657
  629ACOH    O213934   9.908   9.519   1.621
  629ACOH    C213935   9.879   9.500   1.492
  629ACOH    O113936   9.871   9.393   1.430
  629ACOH    C113937   9.882   9.624   1.413
  629ACOH    H113938   9.855   9.603   1.310
  629ACOH    H213939   9.985   9.661   1.414
  629ACOH    H313940   9.823   9.699   1.465
  630ACOH    H413941   9.938   9.434   3.502
  630ACOH    O213942   9.908   9.519   3.466
  630ACOH    C213943   9.879   9.500   3.337
  630ACOH    O113944   9.871   9.393   3.275
  630ACOH    C113945   9.882   9.624   3.258
  630ACOH    H113946   9.855   9.603   3.155
  630ACOH    H213947   9.985   9.661   3.259
  630ACOH    H313948   9.823   9.699   3.310
  631ACOH    H413949   9.938   9.434   7.193
  631ACOH    O213950   9.908   9.519   7.157
  631ACOH    C213951   9.879   9.500   7.028
  631ACOH    O113952   9.871   9.393   6.966
  631ACOH    C113953   9.882   9.624   6.949
  631ACOH    H113954   9.855   9.603   6.846
  631ACOH    H213955   9.985   9.661   6.950
  631ACOH    H313956   9.823   9.699   7.001
  632SOL     OW13957   1.095   1.481   0.692
  632SOL    HW113958   1.186   1.515   0.715
  632SOL    HW213959   1.067   1.519   0.604
  633SOL     OW13960   1.606   1.277   0.550
  633SOL    HW113961   1.617   1.361   0.604
  633SOL    HW213962   1.696   1.240   0.527
  634SOL     OW13963   1.686   0.559   1.414
  634SOL    HW113964   1.588   0.551   1.436
  634SOL    HW213965   1.739   0.548   1.498
  635SOL     OW13966   0.353   0.196   0.019
  635SOL    HW113967   0.266   0.193  -0.030
  635SOL    HW213968   0.404   0.278  -0.009
  636SOL     OW13969   1.340   1.585   0.794
  636SOL    HW113970   1.329   1.682   0.817
  636SOL    HW213971   1.433   1.568   0.764
  637SOL     OW13972   1.218   0.096   1.352
  637SOL    HW113973   1.142   0.051   1.399
  637SOL    HW213974   1.247   0.041   1.274
  638SOL     OW13975   0.956   0.876   1.729
  638SOL    HW113976   0.921   0.851   1.639
  638SOL    HW213977   0.880   0.897   1.790
  639SOL     OW13978   0.563   1.550   0.423
  639SOL    HW113979   0.519   1.559   0.512
  639SOL    HW213980   0.634   1.480   0.427
  640SOL     OW13981   0.581   0.083   0.145
  640SOL    HW113982   0.669   0.111   0.106
  640SOL    HW213983   0.509   0.146   0.115
  641SOL     OW13984   1.551   1.068   1.528
  641SOL    HW113985   1.459   1.073   1.490
  641SOL    HW213986   1.616   1.106   1.462
  642SOL     OW13987   1.451   1.075   1.209
  642SOL    HW113988   1.376   1.064   1.274
  642SOL    HW213989   1.488   1.168   1.215
  643SOL     OW13990   0.947   1.330   1.509
  643SOL    HW113991   0.890   1.393   1.455
  643SOL    HW213992   0.980   1.256   1.450
  644SOL     OW13993   0.717   0.629   0.549
  644SOL    HW113994   0.756   0.699   0.490
  644SOL    HW213995   0.691   0.549   0.495
  645SOL     OW13996   1.337   0.537   1.758
  645SOL    HW113997   1.433   0.541   1.784
  645SOL    HW213998   1.293   0.461   1.805
  646SOL     OW13999   0.420   1.392   0.202
  646SOL    HW114000   0.484   1.408   0.127
  646SOL    HW214001   0.444   1.450   0.280
  647SOL     OW14002   0.571   0.348   1.012
  647SOL    HW114003   0.647   0.413   1.008
  647SOL    HW214004   0.601   0.259   0.979
  648SOL     OW14005   0.268   0.774   0.430
  648SOL    HW114006   0.283   0.708   0.504
  648SOL    HW214007   0.218   0.853   0.465
  649SOL     OW14008   0.854   1.719   0.607
  649SOL    HW114009   0.919   1.652   0.571
  649SOL    HW214010   0.844   1.795   0.543
  650SOL     OW14011   1.746   1.601   0.349
  650SOL    HW114012   1.842   1.575   0.342
  650SOL    HW214013   1.722   1.661   0.273
  651SOL     OW14014   1.658   0.294   1.120
  651SOL    HW114015   1.709   0.366   1.073
  651SOL    HW214016   1.563   0.321   1.129
  652SOL     OW14017   1.058   0.323   0.389
  652SOL    HW114018   1.083   0.417   0.410
  652SOL    HW214019   1.059   0.269   0.473
  653SOL     OW14020   0.182   1.036   1.574
  653SOL    HW114021   0.278   1.051   1.592
  653SOL    HW214022   0.144   0.974   1.643
  654SOL     OW14023   0.508   0.681   0.117
  654SOL    HW114024   0.468   0.760   0.070
  654SOL    HW214025   0.597   0.660   0.077
  655SOL     OW14026   0.681   1.605   0.815
  655SOL    HW114027   0.754   1.628   0.751
  655SOL    HW214028   0.610   1.552   0.769
  656SOL     OW14029   1.023   0.637   1.569
  656SOL    HW114030   1.056   0.554   1.616
  656SOL    HW214031   1.096   0.705   1.568
  657SOL     OW14032   1.627   1.437   0.791
  657SOL    HW114033   1.623   1.472   0.884
  657SOL    HW214034   1.686   1.496   0.735
  658SOL     OW14035   0.358   1.258   0.467
  658SOL    HW114036   0.404   1.232   0.552
  658SOL    HW214037   0.378   1.190   0.396
  659SOL     OW14038   1.216   0.313   0.178
  659SOL    HW114039   1.310   0.283   0.196
  659SOL    HW214040   1.164   0.313   0.264
  660SOL     OW14041   1.450   0.798   1.311
  660SOL    HW114042   1.454   0.892   1.276
  660SOL    HW214043   1.543   0.767   1.333
  661SOL     OW14044   0.403   0.290   0.432
  661SOL    HW114045   0.357   0.330   0.511
  661SOL    HW214046   0.351   0.309   0.350
  662SOL     OW14047   1.531   1.817   1.344
  662SOL    HW114048   1.474   1.768   1.278
  662SOL    HW214049   1.617   1.844   1.301
  663SOL     OW14050   1.826   0.535   1.199
  663SOL    HW114051   1.883   0.617   1.201
  663SOL    HW214052   1.767   0.534   1.279
  664SOL     OW14053   1.843   1.761   1.112
  664SOL    HW114054   1.889   1.771   1.200
  664SOL    HW214055   1.910   1.764   1.039
  665SOL     OW14056   0.956   0.501   0.674
  665SOL    HW114057   1.032   0.529   0.733
  665SOL    HW214058   0.912   0.581   0.635
  666SOL     OW14059   1.191   0.965   0.191
  666SOL    HW114060   1.228   0.915   0.269
  666SOL    HW214061   1.121   0.910   0.146
  667SOL     OW14062   1.033   0.387   1.812
  667SOL    HW114063   1.096   0.392   1.889
  667SOL    HW214064   0.941   0.365   1.845
  668SOL     OW14065   1.774   0.634   0.270
  668SOL    HW114066   1.795   0.553   0.216
  668SOL    HW214067   1.791   0.615   0.367
  669SOL     OW14068   1.068   1.772   0.178
  669SOL    HW114069   1.102   1.685   0.143
  669SOL    HW214070   1.036   1.760   0.272
  670SOL     OW14071   0.749   0.039   1.710
  670SOL    HW114072   0.756  -0.055   1.677
  670SOL    HW214073   0.806   0.049   1.792
  671SOL     OW14074   1.672   0.640   0.978
  671SOL    HW114075   1.657   0.731   1.015
  671SOL    HW214076   1.742   0.593   1.032
  672SOL     OW14077   1.082   1.306   1.744
  672SOL    HW114078   1.104   1.216   1.706
  672SOL    HW214079   1.017   1.353   1.685
  673SOL     OW14080   0.737   1.148   1.748
  673SOL    HW114081   0.708   1.225   1.805
  673SOL    HW214082   0.747   1.067   1.806
  674SOL     OW14083   1.372   0.012   0.854
  674SOL    HW114084   1.321   0.096   0.836
  674SOL    HW214085   1.458   0.014   0.803
  675SOL     OW14086   1.727   0.218   1.783
  675SOL    HW114087   1.704   0.239   1.878
  675SOL    HW214088   1.703   0.123   1.763
  676SOL     OW14089   0.030   0.622   0.527
  676SOL    HW114090   0.032   0.573   0.614
  676SOL    HW214091   0.032   0.721   0.545
  677SOL     OW14092   1.002   0.880   0.922
  677SOL    HW114093   1.028   0.960   0.868
  677SOL    HW214094   0.996   0.800   0.862
  678SOL     OW14095   0.203   1.507   0.381
  678SOL    HW114096   0.230   1.413   0.401
  678SOL    HW214097   0.228   1.529   0.287
  679SOL     OW14098   1.485   1.376   1.255
  679SOL    HW114099   1.456   1.413   1.166
  679SOL    HW214100   1.407   1.376   1.317
  680SOL     OW14101   0.217   1.650   0.618
  680SOL    HW114102   0.133   1.701   0.636
  680SOL    HW214103   0.208   1.599   0.533
  681SOL     OW14104   1.738   1.447   1.293
  681SOL    HW114105   1.769   1.461   1.387
  681SOL    HW214106   1.639   1.434   1.292
  682SOL     OW14107   0.490   0.947   0.020
  682SOL    HW114108   0.459   0.981  -0.068
  682SOL    HW214109   0.494   1.022   0.086
  683SOL     OW14110   1.007   1.134   1.319
  683SOL    HW114111   1.057   1.049   1.303
  683SOL    HW214112   0.961   1.161   1.234
  684SOL     OW14113   0.094   0.839   0.193
  684SOL    HW114114   0.154   0.786   0.253
  684SOL    HW214115   0.000   0.807   0.205
  685SOL     OW14116   1.614   0.837   0.393
  685SOL    HW114117   1.682   0.771   0.360
  685SOL    HW214118   1.629   0.925   0.349
  686SOL     OW14119   0.862   1.824   1.041
  686SOL    HW114120   0.908   1.757   0.983
  686SOL    HW214121   0.788   1.780   1.091
  687SOL     OW14122   0.769   0.893   0.077
  687SOL    HW114123   0.798   0.812   0.128
  687SOL    HW214124   0.669   0.892   0.068
  688SOL     OW14125   1.365   0.425   0.423
  688SOL    HW114126   1.302   0.483   0.371
  688SOL    HW214127   1.458   0.459   0.411
  689SOL     OW14128   0.262   0.626   1.523
  689SOL    HW114129   0.282   0.531   1.498
  689SOL    HW214130   0.225   0.629   1.616
  690SOL     OW14131   1.042   0.902   1.178
  690SOL    HW114132   1.036   0.888   1.079
  690SOL    HW214133   0.961   0.863   1.222
  691SOL     OW14134   1.633   0.436   0.493
  691SOL    HW114135   1.729   0.407   0.490
  691SOL    HW214136   1.594   0.414   0.582
  692SOL     OW14137   0.917   1.511   0.930
  692SOL    HW114138   0.975   1.522   0.849
  692SOL    HW214139   0.823   1.535   0.908
  693SOL     OW14140   0.867   0.377   0.215
  693SOL    HW114141   0.776   0.390   0.253
  693SOL    HW214142   0.927   0.337   0.285
  694SOL     OW14143   0.978   1.322   0.150
  694SOL    HW114144   1.031   1.262   0.210
  694SOL    HW214145   1.017   1.323   0.059
  695SOL     OW14146   1.729   1.617   0.635
  695SOL    HW114147   1.696   1.710   0.654
  695SOL    HW214148   1.727   1.601   0.536
  696SOL     OW14149   1.144   0.890   0.624
  696SOL    HW114150   1.209   0.918   0.695
  696SOL    HW214151   1.065   0.951   0.626
  697SOL     OW14152   0.892   1.616   1.648
  697SOL    HW114153   0.880   1.547   1.577
  697SOL    HW214154   0.855   1.581   1.735
  698SOL     OW14155   1.336   0.930   0.827
  698SOL    HW114156   1.357   0.872   0.905
  698SOL    HW214157   1.345   1.026   0.853
  699SOL     OW14158   0.292   1.059   0.873
  699SOL    HW114159   0.215   1.121   0.866
  699SOL    HW214160   0.329   1.060   0.966
  700SOL     OW14161   0.925   1.007   0.572
  700SOL    HW114162   0.912   0.918   0.529
  700SOL    HW214163   0.856   1.021   0.643
  701SOL     OW14164   1.229   1.395   1.411
  701SOL    HW114165   1.262   1.480   1.452
  701SOL    HW214166   1.130   1.391   1.418
  702SOL     OW14167   0.036   0.312   0.475
  702SOL    HW114168   0.096   0.263   0.413
  702SOL    HW214169   0.091   0.364   0.540
  703SOL     OW14170   1.659   1.810   0.166
  703SOL    HW114171   1.749   1.854   0.168
  703SOL    HW214172   1.658   1.741   0.094
  704SOL     OW14173   0.823   0.777   1.324
  704SOL    HW114174   0.825   0.863   1.375
  704SOL    HW214175   0.880   0.709   1.371
  705SOL     OW14176   0.060   1.804   1.395
  705SOL    HW114177   0.068   1.904   1.393
  705SOL    HW214178   0.036   1.775   1.488
  706SOL     OW14179   0.841   0.823   0.389
  706SOL    HW114180   0.752   0.851   0.354
  706SOL    HW214181   0.882   0.757   0.325
  707SOL     OW14182   0.363   0.541   0.928
  707SOL    HW114183   0.419   0.534   0.845
  707SOL    HW214184   0.420   0.519   1.008
  708SOL     OW14185   0.360   1.739   0.199
  708SOL    HW114186   0.452   1.769   0.174
  708SOL    HW214187   0.335   1.778   0.288
  709SOL     OW14188   1.336   1.761   1.136
  709SOL    HW114189   1.355   1.824   1.062
  709SOL    HW214190   1.344   1.667   1.103
  710SOL     OW14191   0.041   1.156   0.948
  710SOL    HW114192  -0.049   1.172   0.909
  710SOL    HW214193   0.039   1.072   1.003
  711SOL     OW14194   0.792   0.061   0.398
  711SOL    HW114195   0.753   0.050   0.307
  711SOL    HW214196   0.748   0.137   0.445
  712SOL     OW14197   0.037   1.197   0.492
  712SOL    HW114198   0.115   1.255   0.516
  712SOL    HW214199   0.056   1.148   0.407
  713SOL     OW14200   1.567   0.325   1.576
  713SOL    HW114201   1.506   0.403   1.573
  713SOL    HW214202   1.622   0.329   1.659
  714SOL     OW14203   1.283   0.271   0.867
  714SOL    HW114204   1.282   0.349   0.804
  714SOL    HW214205   1.326   0.298   0.953
  715SOL     OW14206   1.403   0.077   0.163
  715SOL    HW114207   1.483   0.017   0.160
  715SOL    HW214208   1.329   0.030   0.211
  716SOL     OW14209   1.616   0.049   1.597
  716SOL    HW114210   1.642   0.006   1.511
  716SOL    HW214211   1.566   0.133   1.579
  717SOL     OW14212   0.718   0.308   0.729
  717SOL    HW114213   0.707   0.250   0.810
  717SOL    HW214214   0.803   0.360   0.737
  718SOL     OW14215   1.298   0.659   1.121
  718SOL    HW114216   1.352   0.699   1.047
  718SOL    HW214217   1.336   0.688   1.209
  719SOL     OW14218   1.591   0.065   0.437
  719SOL    HW114219   1.598   0.019   0.349
  719SOL    HW214220   1.495   0.075   0.462
  720SOL     OW14221   0.567   1.380   1.800
  720SOL    HW114222   0.528   1.443   1.733
  720SOL    HW214223   0.650   1.420   1.840
  721SOL     OW14224   0.443   1.112   1.632
  721SOL    HW114225   0.462   1.136   1.537
  721SOL    HW214226   0.436   1.195   1.687
  722SOL     OW14227   0.104   1.402   1.106
  722SOL    HW114228   0.073   1.328   1.047
  722SOL    HW214229   0.036   1.420   1.177
  723SOL     OW14230   1.190   0.603   0.839
  723SOL    HW114231   1.272   0.580   0.787
  723SOL    HW214232   1.185   0.544   0.920
  724SOL     OW14233   1.790   0.630   1.675
  724SOL    HW114234   1.779   0.716   1.624
  724SOL    HW214235   1.884   0.621   1.705
  725SOL     OW14236   1.361   0.403   1.094
  725SOL    HW114237   1.335   0.500   1.100
  725SOL    HW214238   1.361   0.363   1.186
  726SOL     OW14239   1.591   0.535   1.845
  726SOL    HW114240   1.671   0.560   1.789
  726SOL    HW214241   1.622   0.500   1.933
  727SOL     OW14242   1.302   0.838   0.425
  727SOL    HW114243   1.248   0.836   0.509
  727SOL    HW214244   1.379   0.901   0.436
  728SOL     OW14245   1.599   0.934   0.645
  728SOL    HW114246   1.613   0.897   0.552
  728SOL    HW214247   1.510   0.904   0.679
  729SOL     OW14248   1.755   0.871   1.540
  729SOL    HW114249   1.657   0.892   1.542
  729SOL    HW214250   1.804   0.947   1.499
  730SOL     OW14251   1.609   0.291   0.219
  730SOL    HW114252   1.614   0.333   0.310
  730SOL    HW214253   1.542   0.216   0.221
  731SOL     OW14254   0.756   1.506   1.439
  731SOL    HW114255   0.693   1.584   1.446
  731SOL    HW214256   0.724   1.444   1.367
  732SOL     OW14257   0.147   0.301   1.704
  732SOL    HW114258   0.165   0.290   1.606
  732SOL    HW214259   0.049   0.297   1.721
  733SOL     OW14260   0.027   1.715   1.648
  733SOL    HW114261   0.099   1.701   1.716
  733SOL    HW214262  -0.062   1.718   1.693
  734SOL     OW14263   0.195   0.371   0.672
  734SOL    HW114264   0.138   0.426   0.733
  734SOL    HW214265   0.265   0.323   0.725
  735SOL     OW14266   1.367   1.603   1.535
  735SOL    HW114267   1.320   1.671   1.590
  735SOL    HW214268   1.434   1.649   1.476
  736SOL     OW14269   0.332   0.562   0.270
  736SOL    HW114270   0.404   0.591   0.207
  736SOL    HW214271   0.288   0.642   0.310
  737SOL     OW14272   1.718   0.224   1.373
  737SOL    HW114273   1.674   0.272   1.449
  737SOL    HW214274   1.696   0.270   1.287
  738SOL     OW14275   0.447   1.825   0.736
  738SOL    HW114276   0.371   1.791   0.681
  738SOL    HW214277   0.533   1.788   0.701
  739SOL     OW14278   0.372   1.334   1.181
  739SOL    HW114279   0.384   1.350   1.278
  739SOL    HW214280   0.285   1.374   1.151
  740SOL     OW14281   1.256   1.538   1.827
  740SOL    HW114282   1.215   1.453   1.793
  740SOL    HW214283   1.236   1.612   1.763
  741SOL     OW14284   0.378   0.809   0.719
  741SOL    HW114285   0.370   0.907   0.737
  741SOL    HW214286   0.462   0.775   0.760
  742SOL     OW14287   0.224   0.289   0.234
  742SOL    HW114288   0.268   0.258   0.151
  742SOL    HW214289   0.225   0.389   0.238
  743SOL     OW14290   0.077   0.541   0.845
  743SOL    HW114291   0.041   0.634   0.837
  743SOL    HW214292   0.160   0.542   0.901
  744SOL     OW14293   0.512   1.128   0.231
  744SOL    HW114294   0.612   1.128   0.242
  744SOL    HW214295   0.481   1.221   0.210
  745SOL     OW14296   1.138   0.720   0.047
  745SOL    HW114297   1.069   0.777   0.003
  745SOL    HW214298   1.219   0.714  -0.012
  746SOL     OW14299   0.873   0.639   0.190
  746SOL    HW114300   0.963   0.640   0.145
  746SOL    HW214301   0.850   0.545   0.215
  747SOL     OW14302   1.324   0.156   0.484
  747SOL    HW114303   1.234   0.140   0.525
  747SOL    HW214304   1.332   0.252   0.458
  748SOL     OW14305   1.438   0.556   1.500
  748SOL    HW114306   1.390   0.579   1.584
  748SOL    HW214307   1.372   0.526   1.431
  749SOL     OW14308   0.073   0.071   0.144
  749SOL    HW114309   0.136  -0.006   0.152
  749SOL    HW214310   0.093   0.139   0.215
  750SOL     OW14311   0.346   1.046   1.145
  750SOL    HW114312   0.357   1.001   1.234
  750SOL    HW214313   0.373   1.142   1.152
  751SOL     OW14314   1.645   1.058   0.245
  751SOL    HW114315   1.716   1.128   0.247
  751SOL    HW214316   1.632   1.028   0.150
  752SOL     OW14317   0.627   0.659   1.167
  752SOL    HW114318   0.702   0.702   1.216
  752SOL    HW214319   0.560   0.624   1.233
  753SOL     OW14320   0.770   1.028   1.484
  753SOL    HW114321   0.839   1.080   1.434
  753SOL    HW214322   0.765   1.061   1.579
  754SOL     OW14323   1.162   1.049   1.644
  754SOL    HW114324   1.084   0.995   1.677
  754SOL    HW214325   1.243   1.027   1.699
  755SOL     OW14326   1.091   0.231   0.640
  755SOL    HW114327   1.150   0.291   0.695
  755SOL    HW214328   1.018   0.195   0.697
  756SOL     OW14329   1.201   1.763   1.680
  756SOL    HW114330   1.106   1.761   1.648
  756SOL    HW214331   1.222   1.854   1.717
  757SOL     OW14332   0.619   0.108   0.911
  757SOL    HW114333   0.547   0.041   0.897
  757SOL    HW214334   0.701   0.062   0.946
  758SOL     OW14335   0.319   1.773   1.278
  758SOL    HW114336   0.299   1.755   1.182
  758SOL    HW214337   0.246   1.735   1.335
  759SOL     OW14338   1.012   1.237   0.823
  759SOL    HW114339   1.051   1.280   0.742
  759SOL    HW214340   1.085   1.220   0.890
  760SOL     OW14341   0.045   0.975   1.151
  760SOL    HW114342   0.134   0.953   1.191
  760SOL    HW214343  -0.010   0.891   1.147
  761SOL     OW14344   0.273   0.020   0.431
  761SOL    HW114345   0.311   0.108   0.458
  761SOL    HW214346   0.196  -0.004   0.491
  762SOL     OW14347   0.689   0.637   1.759
  762SOL    HW114348   0.641   0.688   1.688
  762SOL    HW214349   0.782   0.616   1.729
  763SOL     OW14350   0.095   1.107   0.251
  763SOL    HW114351   0.085   1.010   0.230
  763SOL    HW214352   0.148   1.152   0.179
  764SOL     OW14353   1.792   0.219   0.852
  764SOL    HW114354   1.747   0.201   0.939
  764SOL    HW214355   1.890   0.236   0.868
  765SOL     OW14356   0.840   1.195   1.104
  765SOL    HW114357   0.791   1.110   1.085
  765SOL    HW214358   0.910   1.210   1.035
  766SOL     OW14359   1.178   0.618   0.313
  766SOL    HW114360   1.230   0.690   0.359
  766SOL    HW214361   1.191   0.625   0.215
  767SOL     OW14362   1.539   1.433   1.640
  767SOL    HW114363   1.524   1.335   1.654
  767SOL    HW214364   1.456   1.475   1.604
  768SOL     OW14365   0.296   0.875   1.380
  768SOL    HW114366   0.260   0.785   1.406
  768SOL    HW214367   0.257   0.945   1.440
  769SOL     OW14368   0.798   1.501   0.038
  769SOL    HW114369   0.773   1.578   0.097
  769SOL    HW214370   0.862   1.441   0.086
  770SOL     OW14371   0.616   1.708   1.072
  770SOL    HW114372   0.636   1.678   0.979
  770SOL    HW214373   0.541   1.653   1.109
  771SOL     OW14374   0.937   1.466   0.458
  771SOL    HW114375   0.987   1.454   0.373
  771SOL    HW214376   0.883   1.383   0.477
  772SOL     OW14377   0.064   0.930   1.785
  772SOL    HW114378  -0.021   0.881   1.766
  772SOL    HW214379   0.091   0.917   1.880
  773SOL     OW14380   0.961   1.839   1.491
  773SOL    HW114381   0.933   1.752   1.532
  773SOL    HW214382   0.905   1.913   1.528
  774SOL     OW14383   1.190   1.186   1.021
  774SOL    HW114384   1.174   1.280   1.052
  774SOL    HW214385   1.193   1.125   1.101
  775SOL     OW14386   0.464   0.457   1.785
  775SOL    HW114387   0.500   0.404   1.708
  775SOL    HW214388   0.525   0.534   1.803
  776SOL     OW14389   0.528   0.874   0.357
  776SOL    HW114390   0.478   0.939   0.301
  776SOL    HW214391   0.470   0.795   0.376
  777SOL     OW14392   1.609   0.905   1.055
  777SOL    HW114393   1.628   0.944   0.964
  777SOL    HW214394   1.563   0.974   1.111
  778SOL     OW14395   1.301   0.348   1.351
  778SOL    HW114396   1.372   0.320   1.415
  778SOL    HW214397   1.248   0.268   1.323
  779SOL     OW14398   0.002   0.047   0.552
  779SOL    HW114399  -0.085   0.034   0.505
  779SOL    HW214400   0.010   0.142   0.582
  780SOL     OW14401   1.223   0.148   1.793
  780SOL    HW114402   1.282   0.164   1.873
  780SOL    HW214403   1.170   0.231   1.774
  781SOL     OW14404   0.439   1.567   1.618
  781SOL    HW114405   0.381   1.632   1.667
  781SOL    HW214406   0.501   1.617   1.558
  782SOL     OW14407   1.795   1.454   1.559
  782SOL    HW114408   1.823   1.547   1.581
  782SOL    HW214409   1.702   1.438   1.592
  783SOL     OW14410   1.045   0.567   1.109
  783SOL    HW114411   1.131   0.618   1.108
  783SOL    HW214412   1.051   0.493   1.176
  784SOL     OW14413   0.449   1.513   0.681
  784SOL    HW114414   0.447   1.414   0.694
  784SOL    HW214415   0.358   1.546   0.658
  785SOL     OW14416   1.090   1.630   1.269
  785SOL    HW114417   1.016   1.694   1.287
  785SOL    HW214418   1.169   1.679   1.231
  786SOL     OW14419   0.299   1.760   1.768
  786SOL    HW114420   0.342   1.844   1.734
  786SOL    HW214421   0.324   1.747   1.864
  787SOL     OW14422   0.159   1.296   1.639
  787SOL    HW114423   0.138   1.201   1.612
  787SOL    HW214424   0.090   1.357   1.601
  788SOL     OW14425   0.248   1.661   1.043
  788SOL    HW114426   0.190   1.581   1.057
  788SOL    HW214427   0.272   1.668   0.946
  789SOL     OW14428   0.994   0.182   0.898
  789SOL    HW114429   1.090   0.183   0.926
  789SOL    HW214430   0.939   0.139   0.970
  790SOL     OW14431   1.056   1.188   0.414
  790SOL    HW114432   1.136   1.224   0.462
  790SOL    HW214433   1.014   1.115   0.470
  791SOL     OW14434   1.647   0.455   0.778
  791SOL    HW114435   1.666   0.541   0.825
  791SOL    HW214436   1.715   0.386   0.806
  792SOL     OW14437   0.790   1.127   0.264
  792SOL    HW114438   0.862   1.186   0.229
  792SOL    HW214439   0.830   1.043   0.300
  793SOL     OW14440   0.861   0.103   0.116
  793SOL    HW114441   0.936   0.037   0.128
  793SOL    HW214442   0.892   0.194   0.144
  794SOL     OW14443   0.540   0.532   0.728
  794SOL    HW114444   0.578   0.443   0.754
  794SOL    HW214445   0.607   0.582   0.673
  795SOL     OW14446   0.528   1.090   1.382
  795SOL    HW114447   0.624   1.070   1.402
  795SOL    HW214448   0.517   1.188   1.364
  796SOL     OW14449   1.750   1.133   1.351
  796SOL    HW114450   1.764   1.231   1.365
  796SOL    HW214451   1.807   1.102   1.275
  797SOL     OW14452   0.233   1.242   0.043
  797SOL    HW114453   0.225   1.254  -0.056
  797SOL    HW214454   0.292   1.313   0.081
  798SOL     OW14455   0.660   1.681   0.203
  798SOL    HW114456   0.635   1.776   0.187
  798SOL    HW214457   0.627   1.653   0.293
  799SOL     OW14458   1.310   1.104   1.427
  799SOL    HW114459   1.254   1.063   1.498
  799SOL    HW214460   1.290   1.202   1.421
  800SOL     OW14461   0.577   1.720   1.427
  800SOL    HW114462   0.626   1.800   1.391
  800SOL    HW214463   0.485   1.718   1.388
  801SOL     OW14464   0.220   0.601   1.789
  801SOL    HW114465   0.237   0.502   1.794
  801SOL    HW214466   0.284   0.649   1.850
  802SOL     OW14467   1.659   1.562   1.028
  802SOL    HW114468   1.631   1.655   1.052
  802SOL    HW214469   1.709   1.521   1.104
  803SOL     OW14470   0.055   0.935   0.589
  803SOL    HW114471   0.062   1.034   0.576
  803SOL    HW214472  -0.036   0.912   0.623
  804SOL     OW14473   0.564   0.733   1.527
  804SOL    HW114474   0.470   0.703   1.508
  804SOL    HW214475   0.573   0.830   1.504
  805SOL     OW14476   1.631   1.109   0.839
  805SOL    HW114477   1.593   1.198   0.812
  805SOL    HW214478   1.631   1.047   0.761
  806SOL     OW14479   0.789   0.515   1.008
  806SOL    HW114480   0.881   0.543   1.035
  806SOL    HW214481   0.721   0.566   1.062
  807SOL     OW14482   0.642   1.366   1.235
  807SOL    HW114483   0.555   1.365   1.186
  807SOL    HW214484   0.708   1.306   1.188
  808SOL     OW14485   0.379   1.354   1.447
  808SOL    HW114486   0.398   1.442   1.491
  808SOL    HW214487   0.284   1.328   1.465
  809SOL     OW14488   1.622   1.670   1.795
  809SOL    HW114489   1.591   1.592   1.740
  809SOL    HW214490   1.591   1.755   1.753
  810SOL     OW14491   1.330   1.208   0.516
  810SOL    HW114492   1.429   1.212   0.532
  810SOL    HW214493   1.313   1.194   0.418
  811SOL     OW14494   0.683   0.374   0.464
  811SOL    HW114495   0.585   0.368   0.444
  811SOL    HW214496   0.702   0.331   0.552
  812SOL     OW14497   1.603   0.057   0.723
  812SOL    HW114498   1.598   0.098   0.632
  812SOL    HW214499   1.684   0.091   0.770
  813SOL     OW14500   1.206   0.813   1.416
  813SOL    HW114501   1.305   0.822   1.406
  813SOL    HW214502   1.162   0.815   1.326
  814SOL     OW14503   1.365   1.480   1.030
  814SOL    HW114504   1.279   1.437   1.059
  814SOL    HW214505   1.354   1.520   0.939
  815SOL     OW14506   1.368   0.465   0.705
  815SOL    HW114507   1.367   0.457   0.606
  815SOL    HW214508   1.457   0.437   0.740
  816SOL     OW14509   1.095   1.481   2.537
  816SOL    HW114510   1.186   1.515   2.560
  816SOL    HW214511   1.067   1.519   2.449
  817SOL     OW14512   1.606   1.277   2.395
  817SOL    HW114513   1.617   1.361   2.449
  817SOL    HW214514   1.696   1.240   2.372
  818SOL     OW14515   0.353   0.196   1.864
  818SOL    HW114516   0.266   0.193   1.815
  818SOL    HW214517   0.404   0.278   1.836
  819SOL     OW14518   1.340   1.585   2.639
  819SOL    HW114519   1.329   1.682   2.662
  819SOL    HW214520   1.433   1.568   2.609
  820SOL     OW14521   1.218   0.096   3.197
  820SOL    HW114522   1.142   0.051   3.244
  820SOL    HW214523   1.247   0.041   3.119
  821SOL     OW14524   0.956   0.876   3.574
  821SOL    HW114525   0.921   0.851   3.484
  821SOL    HW214526   0.880   0.897   3.635
  822SOL     OW14527   0.563   1.550   2.268
  822SOL    HW114528   0.519   1.559   2.357
  822SOL    HW214529   0.634   1.480   2.272
  823SOL     OW14530   0.581   0.083   1.990
  823SOL    HW114531   0.669   0.111   1.951
  823SOL    HW214532   0.509   0.146   1.960
  824SOL     OW14533   1.551   1.068   3.373
  824SOL    HW114534   1.459   1.073   3.335
  824SOL    HW214535   1.616   1.106   3.307
  825SOL     OW14536   1.451   1.075   3.054
  825SOL    HW114537   1.376   1.064   3.119
  825SOL    HW214538   1.488   1.168   3.060
  826SOL     OW14539   0.947   1.330   3.354
  826SOL    HW114540   0.890   1.393   3.300
  826SOL    HW214541   0.980   1.256   3.295
  827SOL     OW14542   0.490   1.223   2.563
  827SOL    HW114543   0.423   1.177   2.622
  827SOL    HW214544   0.582   1.191   2.586
  828SOL     OW14545   0.420   1.392   2.047
  828SOL    HW114546   0.484   1.408   1.972
  828SOL    HW214547   0.444   1.450   2.125
  829SOL     OW14548   0.571   0.348   2.857
  829SOL    HW114549   0.647   0.413   2.853
  829SOL    HW214550   0.601   0.259   2.824
  830SOL     OW14551   0.268   0.774   2.275
  830SOL    HW114552   0.283   0.708   2.349
  830SOL    HW214553   0.218   0.853   2.310
  831SOL     OW14554   0.854   1.719   2.452
  831SOL    HW114555   0.919   1.652   2.416
  831SOL    HW214556   0.844   1.795   2.388
  832SOL     OW14557   1.746   1.601   2.194
  832SOL    HW114558   1.842   1.575   2.187
  832SOL    HW214559   1.722   1.661   2.118
  833SOL     OW14560   1.058   0.323   2.234
  833SOL    HW114561   1.083   0.417   2.255
  833SOL    HW214562   1.059   0.269   2.318
  834SOL     OW14563   0.182   1.036   3.419
  834SOL    HW114564   0.278   1.051   3.437
  834SOL    HW214565   0.144   0.974   3.488
  835SOL     OW14566   0.508   0.681   1.962
  835SOL    HW114567   0.468   0.760   1.915
  835SOL    HW214568   0.597   0.660   1.922
  836SOL     OW14569   0.681   1.605   2.660
  836SOL    HW114570   0.754   1.628   2.596
  836SOL    HW214571   0.610   1.552   2.614
  837SOL     OW14572   1.023   0.637   3.414
  837SOL    HW114573   1.056   0.554   3.461
  837SOL    HW214574   1.096   0.705   3.413
  838SOL     OW14575   1.627   1.437   2.636
  838SOL    HW114576   1.623   1.472   2.729
  838SOL    HW214577   1.686   1.496   2.580
  839SOL     OW14578   0.358   1.258   2.312
  839SOL    HW114579   0.404   1.232   2.397
  839SOL    HW214580   0.378   1.190   2.241
  840SOL     OW14581   1.216   0.313   2.023
  840SOL    HW114582   1.310   0.283   2.041
  840SOL    HW214583   1.164   0.313   2.109
  841SOL     OW14584   0.368   0.518   3.118
  841SOL    HW114585   0.358   0.431   3.070
  841SOL    HW214586   0.304   0.585   3.081
  842SOL     OW14587   1.450   0.798   3.156
  842SOL    HW114588   1.454   0.892   3.121
  842SOL    HW214589   1.543   0.767   3.178
  843SOL     OW14590   0.403   0.290   2.277
  843SOL    HW114591   0.357   0.330   2.356
  843SOL    HW214592   0.351   0.309   2.195
  844SOL     OW14593   1.531   1.817   3.189
  844SOL    HW114594   1.474   1.768   3.123
  844SOL    HW214595   1.617   1.844   3.146
  845SOL     OW14596   1.826   0.535   3.044
  845SOL    HW114597   1.883   0.617   3.046
  845SOL    HW214598   1.767   0.534   3.124
  846SOL     OW14599   1.843   1.761   2.957
  846SOL    HW114600   1.889   1.771   3.045
  846SOL    HW214601   1.910   1.764   2.884
  847SOL     OW14602   1.191   0.965   2.036
  847SOL    HW114603   1.228   0.915   2.114
  847SOL    HW214604   1.121   0.910   1.991
  848SOL     OW14605   1.033   0.387   3.657
  848SOL    HW114606   1.096   0.392   3.734
  848SOL    HW214607   0.941   0.365   3.690
  849SOL     OW14608   1.774   0.634   2.115
  849SOL    HW114609   1.795   0.553   2.061
  849SOL    HW214610   1.791   0.615   2.212
  850SOL     OW14611   1.068   1.772   2.023
  850SOL    HW114612   1.102   1.685   1.988
  850SOL    HW214613   1.036   1.760   2.117
  851SOL     OW14614   0.749   0.039   3.555
  851SOL    HW114615   0.756  -0.055   3.522
  851SOL    HW214616   0.806   0.049   3.637
  852SOL     OW14617   1.672   0.640   2.823
  852SOL    HW114618   1.657   0.731   2.860
  852SOL    HW214619   1.742   0.593   2.877
  853SOL     OW14620   1.082   1.306   3.589
  853SOL    HW114621   1.104   1.216   3.551
  853SOL    HW214622   1.017   1.353   3.530
  854SOL     OW14623   0.737   1.148   3.593
  854SOL    HW114624   0.708   1.225   3.650
  854SOL    HW214625   0.747   1.067   3.651
  855SOL     OW14626   1.372   0.012   2.699
  855SOL    HW114627   1.321   0.096   2.681
  855SOL    HW214628   1.458   0.014   2.648
  856SOL     OW14629   0.030   0.622   2.372
  856SOL    HW114630   0.032   0.573   2.459
  856SOL    HW214631   0.032   0.721   2.390
  857SOL     OW14632   0.351   0.210   2.693
  857SOL    HW114633   0.403   0.250   2.768
  857SOL    HW214634   0.404   0.137   2.650
  858SOL     OW14635   0.335   0.258   3.027
  858SOL    HW114636   0.300   0.165   3.027
  858SOL    HW214637   0.422   0.261   2.978
  859SOL     OW14638   0.203   1.507   2.226
  859SOL    HW114639   0.230   1.413   2.246
  859SOL    HW214640   0.228   1.529   2.132
  860SOL     OW14641   1.485   1.376   3.100
  860SOL    HW114642   1.456   1.413   3.011
  860SOL    HW214643   1.407   1.376   3.162
  861SOL     OW14644   0.217   1.650   2.463
  861SOL    HW114645   0.133   1.701   2.481
  861SOL    HW214646   0.208   1.599   2.378
  862SOL     OW14647   1.738   1.447   3.138
  862SOL    HW114648   1.769   1.461   3.232
  862SOL    HW214649   1.639   1.434   3.137
  863SOL     OW14650   0.490   0.947   1.865
  863SOL    HW114651   0.459   0.981   1.777
  863SOL    HW214652   0.494   1.022   1.931
  864SOL     OW14653   1.007   1.134   3.164
  864SOL    HW114654   1.057   1.049   3.148
  864SOL    HW214655   0.961   1.161   3.079
  865SOL     OW14656   0.094   0.839   2.038
  865SOL    HW114657   0.154   0.786   2.098
  865SOL    HW214658   0.000   0.807   2.050
  866SOL     OW14659   1.614   0.837   2.238
  866SOL    HW114660   1.682   0.771   2.205
  866SOL    HW214661   1.629   0.925   2.194
  867SOL     OW14662   0.862   1.824   2.886
  867SOL    HW114663   0.908   1.757   2.828
  867SOL    HW214664   0.788   1.780   2.936
  868SOL     OW14665   0.769   0.893   1.922
  868SOL    HW114666   0.798   0.812   1.973
  868SOL    HW214667   0.669   0.892   1.913
  869SOL     OW14668   1.365   0.425   2.268
  869SOL    HW114669   1.302   0.483   2.216
  869SOL    HW214670   1.458   0.459   2.256
  870SOL     OW14671   0.262   0.626   3.368
  870SOL    HW114672   0.282   0.531   3.343
  870SOL    HW214673   0.225   0.629   3.461
  871SOL     OW14674   0.144   0.281   3.258
  871SOL    HW114675   0.216   0.291   3.189
  871SOL    HW214676   0.055   0.280   3.213
  872SOL     OW14677   1.042   0.902   3.023
  872SOL    HW114678   1.036   0.888   2.924
  872SOL    HW214679   0.961   0.863   3.067
  873SOL     OW14680   1.633   0.436   2.338
  873SOL    HW114681   1.729   0.407   2.335
  873SOL    HW214682   1.594   0.414   2.427
  874SOL     OW14683   0.917   1.511   2.775
  874SOL    HW114684   0.975   1.522   2.694
  874SOL    HW214685   0.823   1.535   2.753
  875SOL     OW14686   0.867   0.377   2.060
  875SOL    HW114687   0.776   0.390   2.098
  875SOL    HW214688   0.927   0.337   2.130
  876SOL     OW14689   0.978   1.322   1.995
  876SOL    HW114690   1.031   1.262   2.055
  876SOL    HW214691   1.017   1.323   1.904
  877SOL     OW14692   1.729   1.617   2.480
  877SOL    HW114693   1.696   1.710   2.499
  877SOL    HW214694   1.727   1.601   2.381
  878SOL     OW14695   0.892   1.616   3.493
  878SOL    HW114696   0.880   1.547   3.422
  878SOL    HW214697   0.855   1.581   3.580
  879SOL     OW14698   1.336   0.930   2.672
  879SOL    HW114699   1.357   0.872   2.750
  879SOL    HW214700   1.345   1.026   2.698
  880SOL     OW14701   0.292   1.059   2.718
  880SOL    HW114702   0.215   1.121   2.711
  880SOL    HW214703   0.329   1.060   2.811
  881SOL     OW14704   1.229   1.395   3.256
  881SOL    HW114705   1.262   1.480   3.297
  881SOL    HW214706   1.130   1.391   3.263
  882SOL     OW14707   0.036   0.312   2.320
  882SOL    HW114708   0.096   0.263   2.258
  882SOL    HW214709   0.091   0.364   2.385
  883SOL     OW14710   1.659   1.810   2.011
  883SOL    HW114711   1.749   1.854   2.013
  883SOL    HW214712   1.658   1.741   1.939
  884SOL     OW14713   0.823   0.777   3.169
  884SOL    HW114714   0.825   0.863   3.220
  884SOL    HW214715   0.880   0.709   3.216
  885SOL     OW14716   0.060   1.804   3.240
  885SOL    HW114717   0.068   1.904   3.238
  885SOL    HW214718   0.036   1.775   3.333
  886SOL     OW14719   0.363   0.541   2.773
  886SOL    HW114720   0.419   0.534   2.690
  886SOL    HW214721   0.420   0.519   2.853
  887SOL     OW14722   0.360   1.739   2.044
  887SOL    HW114723   0.452   1.769   2.019
  887SOL    HW214724   0.335   1.778   2.133
  888SOL     OW14725   1.336   1.761   2.981
  888SOL    HW114726   1.355   1.824   2.907
  888SOL    HW214727   1.344   1.667   2.948
  889SOL     OW14728   0.041   1.156   2.793
  889SOL    HW114729  -0.049   1.172   2.754
  889SOL    HW214730   0.039   1.072   2.848
  890SOL     OW14731   0.792   0.061   2.243
  890SOL    HW114732   0.753   0.050   2.152
  890SOL    HW214733   0.748   0.137   2.290
  891SOL     OW14734   0.037   1.197   2.337
  891SOL    HW114735   0.115   1.255   2.361
  891SOL    HW214736   0.056   1.148   2.252
  892SOL     OW14737   0.718   0.308   2.574
  892SOL    HW114738   0.707   0.250   2.655
  892SOL    HW214739   0.803   0.360   2.582
  893SOL     OW14740   1.298   0.659   2.966
  893SOL    HW114741   1.352   0.699   2.892
  893SOL    HW214742   1.336   0.688   3.054
  894SOL     OW14743   0.567   1.380   3.645
  894SOL    HW114744   0.528   1.443   3.578
  894SOL    HW214745   0.650   1.420   3.685
  895SOL     OW14746   0.443   1.112   3.477
  895SOL    HW114747   0.462   1.136   3.382
  895SOL    HW214748   0.436   1.195   3.532
  896SOL     OW14749   0.104   1.402   2.951
  896SOL    HW114750   0.073   1.328   2.892
  896SOL    HW214751   0.036   1.420   3.022
  897SOL     OW14752   1.190   0.603   2.684
  897SOL    HW114753   1.272   0.580   2.632
  897SOL    HW214754   1.185   0.544   2.765
  898SOL     OW14755   1.361   0.403   2.939
  898SOL    HW114756   1.335   0.500   2.945
  898SOL    HW214757   1.361   0.363   3.031
  899SOL     OW14758   1.302   0.838   2.270
  899SOL    HW114759   1.248   0.836   2.354
  899SOL    HW214760   1.379   0.901   2.281
  900SOL     OW14761   1.599   0.934   2.490
  900SOL    HW114762   1.613   0.897   2.397
  900SOL    HW214763   1.510   0.904   2.524
  901SOL     OW14764   1.609   0.291   2.064
  901SOL    HW114765   1.614   0.333   2.155
  901SOL    HW214766   1.542   0.216   2.066
  902SOL     OW14767   0.756   1.506   3.284
  902SOL    HW114768   0.693   1.584   3.291
  902SOL    HW214769   0.724   1.444   3.212
  903SOL     OW14770   0.147   0.301   3.549
  903SOL    HW114771   0.165   0.290   3.451
  903SOL    HW214772   0.049   0.297   3.566
  904SOL     OW14773   0.027   1.715   3.493
  904SOL    HW114774   0.099   1.701   3.561
  904SOL    HW214775  -0.062   1.718   3.538
  905SOL     OW14776   0.195   0.371   2.517
  905SOL    HW114777   0.138   0.426   2.578
  905SOL    HW214778   0.265   0.323   2.570
  906SOL     OW14779   1.367   1.603   3.380
  906SOL    HW114780   1.320   1.671   3.435
  906SOL    HW214781   1.434   1.649   3.321
  907SOL     OW14782   0.332   0.562   2.115
  907SOL    HW114783   0.404   0.591   2.052
  907SOL    HW214784   0.288   0.642   2.155
  908SOL     OW14785   0.447   1.825   2.581
  908SOL    HW114786   0.371   1.791   2.526
  908SOL    HW214787   0.533   1.788   2.546
  909SOL     OW14788   0.372   1.334   3.026
  909SOL    HW114789   0.384   1.350   3.123
  909SOL    HW214790   0.285   1.374   2.996
  910SOL     OW14791   1.256   1.538   3.672
  910SOL    HW114792   1.215   1.453   3.638
  910SOL    HW214793   1.236   1.612   3.608
  911SOL     OW14794   0.746   1.258   2.362
  911SOL    HW114795   0.789   1.189   2.304
  911SOL    HW214796   0.710   1.215   2.445
  912SOL     OW14797   0.378   0.809   2.564
  912SOL    HW114798   0.370   0.907   2.582
  912SOL    HW214799   0.462   0.775   2.605
  913SOL     OW14800   0.224   0.289   2.079
  913SOL    HW114801   0.268   0.258   1.996
  913SOL    HW214802   0.225   0.389   2.083
  914SOL     OW14803   0.077   0.541   2.690
  914SOL    HW114804   0.041   0.634   2.682
  914SOL    HW214805   0.160   0.542   2.746
  915SOL     OW14806   0.512   1.128   2.076
  915SOL    HW114807   0.612   1.128   2.087
  915SOL    HW214808   0.481   1.221   2.055
  916SOL     OW14809   1.138   0.720   1.892
  916SOL    HW114810   1.069   0.777   1.848
  916SOL    HW214811   1.219   0.714   1.833
  917SOL     OW14812   0.873   0.639   2.035
  917SOL    HW114813   0.963   0.640   1.990
  917SOL    HW214814   0.850   0.545   2.060
  918SOL     OW14815   1.324   0.156   2.329
  918SOL    HW114816   1.234   0.140   2.370
  918SOL    HW214817   1.332   0.252   2.303
  919SOL     OW14818   1.438   0.556   3.345
  919SOL    HW114819   1.390   0.579   3.429
  919SOL    HW214820   1.372   0.526   3.276
  920SOL     OW14821   0.073   0.071   1.989
  920SOL    HW114822   0.136  -0.006   1.997
  920SOL    HW214823   0.093   0.139   2.060
  921SOL     OW14824   0.346   1.046   2.990
  921SOL    HW114825   0.357   1.001   3.079
  921SOL    HW214826   0.373   1.142   2.997
  922SOL     OW14827   1.645   1.058   2.090
  922SOL    HW114828   1.716   1.128   2.092
  922SOL    HW214829   1.632   1.028   1.995
  923SOL     OW14830   0.627   0.659   3.012
  923SOL    HW114831   0.702   0.702   3.061
  923SOL    HW214832   0.560   0.624   3.078
  924SOL     OW14833   0.770   1.028   3.329
  924SOL    HW114834   0.839   1.080   3.279
  924SOL    HW214835   0.765   1.061   3.424
  925SOL     OW14836   1.162   1.049   3.489
  925SOL    HW114837   1.084   0.995   3.522
  925SOL    HW214838   1.243   1.027   3.544
  926SOL     OW14839   1.091   0.231   2.485
  926SOL    HW114840   1.150   0.291   2.540
  926SOL    HW214841   1.018   0.195   2.542
  927SOL     OW14842   1.201   1.763   3.525
  927SOL    HW114843   1.106   1.761   3.493
  927SOL    HW214844   1.222   1.854   3.562
  928SOL     OW14845   0.619   0.108   2.756
  928SOL    HW114846   0.547   0.041   2.742
  928SOL    HW214847   0.701   0.062   2.791
  929SOL     OW14848   0.319   1.773   3.123
  929SOL    HW114849   0.299   1.755   3.027
  929SOL    HW214850   0.246   1.735   3.180
  930SOL     OW14851   1.012   1.237   2.668
  930SOL    HW114852   1.051   1.280   2.587
  930SOL    HW214853   1.085   1.220   2.735
  931SOL     OW14854   0.706   0.965   2.870
  931SOL    HW114855   0.704   0.881   2.815
  931SOL    HW214856   0.655   0.951   2.955
  932SOL     OW14857   0.045   0.975   2.996
  932SOL    HW114858   0.134   0.953   3.036
  932SOL    HW214859  -0.010   0.891   2.992
  933SOL     OW14860   0.273   0.020   2.276
  933SOL    HW114861   0.311   0.108   2.303
  933SOL    HW214862   0.196  -0.004   2.336
  934SOL     OW14863   0.689   0.637   3.604
  934SOL    HW114864   0.641   0.688   3.533
  934SOL    HW214865   0.782   0.616   3.574
  935SOL     OW14866   0.095   1.107   2.096
  935SOL    HW114867   0.085   1.010   2.075
  935SOL    HW214868   0.148   1.152   2.024
  936SOL     OW14869   0.840   1.195   2.949
  936SOL    HW114870   0.791   1.110   2.930
  936SOL    HW214871   0.910   1.210   2.880
  937SOL     OW14872   1.178   0.618   2.158
  937SOL    HW114873   1.230   0.690   2.204
  937SOL    HW214874   1.191   0.625   2.060
  938SOL     OW14875   1.539   1.433   3.485
  938SOL    HW114876   1.524   1.335   3.499
  938SOL    HW214877   1.456   1.475   3.449
  939SOL     OW14878   0.296   0.875   3.225
  939SOL    HW114879   0.260   0.785   3.251
  939SOL    HW214880   0.257   0.945   3.285
  940SOL     OW14881   0.798   1.501   1.883
  940SOL    HW114882   0.773   1.578   1.942
  940SOL    HW214883   0.862   1.441   1.931
  941SOL     OW14884   0.616   1.708   2.917
  941SOL    HW114885   0.636   1.678   2.824
  941SOL    HW214886   0.541   1.653   2.954
  942SOL     OW14887   0.759   1.119   2.634
  942SOL    HW114888   0.848   1.165   2.634
  942SOL    HW214889   0.752   1.059   2.713
  943SOL     OW14890   0.937   1.466   2.303
  943SOL    HW114891   0.987   1.454   2.218
  943SOL    HW214892   0.883   1.383   2.322
  944SOL     OW14893   0.127   0.813   2.703
  944SOL    HW114894   0.222   0.804   2.671
  944SOL    HW214895   0.093   0.905   2.682
  945SOL     OW14896   0.064   0.930   3.630
  945SOL    HW114897  -0.021   0.881   3.611
  945SOL    HW214898   0.091   0.917   3.725
  946SOL     OW14899   0.961   1.839   3.336
  946SOL    HW114900   0.933   1.752   3.377
  946SOL    HW214901   0.905   1.913   3.373
  947SOL     OW14902   1.190   1.186   2.866
  947SOL    HW114903   1.174   1.280   2.897
  947SOL    HW214904   1.193   1.125   2.946
  948SOL     OW14905   0.464   0.457   3.630
  948SOL    HW114906   0.500   0.404   3.553
  948SOL    HW214907   0.525   0.534   3.648
  949SOL     OW14908   0.528   0.874   2.202
  949SOL    HW114909   0.478   0.939   2.146
  949SOL    HW214910   0.470   0.795   2.221
  950SOL     OW14911   1.609   0.905   2.900
  950SOL    HW114912   1.628   0.944   2.809
  950SOL    HW214913   1.563   0.974   2.956
  951SOL     OW14914   1.301   0.348   3.196
  951SOL    HW114915   1.372   0.320   3.260
  951SOL    HW214916   1.248   0.268   3.168
  952SOL     OW14917   0.002   0.047   2.397
  952SOL    HW114918  -0.085   0.034   2.350
  952SOL    HW214919   0.010   0.142   2.427
  953SOL     OW14920   1.223   0.148   3.638
  953SOL    HW114921   1.282   0.164   3.718
  953SOL    HW214922   1.170   0.231   3.619
  954SOL     OW14923   0.439   1.567   3.463
  954SOL    HW114924   0.381   1.632   3.512
  954SOL    HW214925   0.501   1.617   3.403
  955SOL     OW14926   1.795   1.454   3.404
  955SOL    HW114927   1.823   1.547   3.426
  955SOL    HW214928   1.702   1.438   3.437
  956SOL     OW14929   1.045   0.567   2.954
  956SOL    HW114930   1.131   0.618   2.953
  956SOL    HW214931   1.051   0.493   3.021
  957SOL     OW14932   0.449   1.513   2.526
  957SOL    HW114933   0.447   1.414   2.539
  957SOL    HW214934   0.358   1.546   2.503
  958SOL     OW14935   1.090   1.630   3.114
  958SOL    HW114936   1.016   1.694   3.132
  958SOL    HW214937   1.169   1.679   3.076
  959SOL     OW14938   0.299   1.760   3.613
  959SOL    HW114939   0.342   1.844   3.579
  959SOL    HW214940   0.324   1.747   3.709
  960SOL     OW14941   0.159   1.296   3.484
  960SOL    HW114942   0.138   1.201   3.457
  960SOL    HW214943   0.090   1.357   3.446
  961SOL     OW14944   0.248   1.661   2.888
  961SOL    HW114945   0.190   1.581   2.902
  961SOL    HW214946   0.272   1.668   2.791
  962SOL     OW14947   0.994   0.182   2.743
  962SOL    HW114948   1.090   0.183   2.771
  962SOL    HW214949   0.939   0.139   2.815
  963SOL     OW14950   1.056   1.188   2.259
  963SOL    HW114951   1.136   1.224   2.307
  963SOL    HW214952   1.014   1.115   2.315
  964SOL     OW14953   0.790   1.127   2.109
  964SOL    HW114954   0.862   1.186   2.074
  964SOL    HW214955   0.830   1.043   2.145
  965SOL     OW14956   0.861   0.103   1.961
  965SOL    HW114957   0.936   0.037   1.973
  965SOL    HW214958   0.892   0.194   1.989
  966SOL     OW14959   0.540   0.532   2.573
  966SOL    HW114960   0.578   0.443   2.599
  966SOL    HW214961   0.607   0.582   2.518
  967SOL     OW14962   0.528   1.090   3.227
  967SOL    HW114963   0.624   1.070   3.247
  967SOL    HW214964   0.517   1.188   3.209
  968SOL     OW14965   1.750   1.133   3.196
  968SOL    HW114966   1.764   1.231   3.210
  968SOL    HW214967   1.807   1.102   3.120
  969SOL     OW14968   0.233   1.242   1.888
  969SOL    HW114969   0.225   1.254   1.789
  969SOL    HW214970   0.292   1.313   1.926
  970SOL     OW14971   0.660   1.681   2.048
  970SOL    HW114972   0.635   1.776   2.032
  970SOL    HW214973   0.627   1.653   2.138
  971SOL     OW14974   1.310   1.104   3.272
  971SOL    HW114975   1.254   1.063   3.343
  971SOL    HW214976   1.290   1.202   3.266
  972SOL     OW14977   0.577   1.720   3.272
  972SOL    HW114978   0.626   1.800   3.236
  972SOL    HW214979   0.485   1.718   3.233
  973SOL     OW14980   0.220   0.601   3.634
  973SOL    HW114981   0.237   0.502   3.639
  973SOL    HW214982   0.284   0.649   3.695
  974SOL     OW14983   1.659   1.562   2.873
  974SOL    HW114984   1.631   1.655   2.897
  974SOL    HW214985   1.709   1.521   2.949
  975SOL     OW14986   0.055   0.935   2.434
  975SOL    HW114987   0.062   1.034   2.421
  975SOL    HW214988  -0.036   0.912   2.468
  976SOL     OW14989   0.564   0.733   3.372
  976SOL    HW114990   0.470   0.703   3.353
  976SOL    HW214991   0.573   0.830   3.349
  977SOL     OW14992   1.631   1.109   2.684
  977SOL    HW114993   1.593   1.198   2.657
  977SOL    HW214994   1.631   1.047   2.606
  978SOL     OW14995   0.789   0.515   2.853
  978SOL    HW114996   0.881   0.543   2.880
  978SOL    HW214997   0.721   0.566   2.907
  979SOL     OW14998   0.642   1.366   3.080
  979SOL    HW114999   0.555   1.365   3.031
  979SOL    HW215000   0.708   1.306   3.033
  980SOL     OW15001   0.208   0.708   2.994
  980SOL    HW115002   0.246   0.767   3.065
  980SOL    HW215003   0.191   0.761   2.912
  981SOL     OW15004   0.379   1.354   3.292
  981SOL    HW115005   0.398   1.442   3.336
  981SOL    HW215006   0.284   1.328   3.310
  982SOL     OW15007   1.622   1.670   3.640
  982SOL    HW115008   1.591   1.592   3.585
  982SOL    HW215009   1.591   1.755   3.598
  983SOL     OW15010   1.330   1.208   2.361
  983SOL    HW115011   1.429   1.212   2.377
  983SOL    HW215012   1.313   1.194   2.263
  984SOL     OW15013   0.683   0.374   2.309
  984SOL    HW115014   0.585   0.368   2.289
  984SOL    HW215015   0.702   0.331   2.397
  985SOL     OW15016   1.206   0.813   3.261
  985SOL    HW115017   1.305   0.822   3.251
  985SOL    HW215018   1.162   0.815   3.171
  986SOL     OW15019   1.365   1.480   2.875
  986SOL    HW115020   1.279   1.437   2.904
  986SOL    HW215021   1.354   1.520   2.784
  987SOL     OW15022   1.368   0.465   2.550
  987SOL    HW115023   1.367   0.457   2.451
  987SOL    HW215024   1.457   0.437   2.585
  988SOL     OW15025   1.095   1.481   4.383
  988SOL    HW115026   1.186   1.515   4.406
  988SOL    HW215027   1.067   1.519   4.295
  989SOL     OW15028   1.606   1.277   4.241
  989SOL    HW115029   1.617   1.361   4.295
  989SOL    HW215030   1.696   1.240   4.218
  990SOL     OW15031   1.686   0.559   5.105
  990SOL    HW115032   1.588   0.551   5.127
  990SOL    HW215033   1.739   0.548   5.189
  991SOL     OW15034   0.353   0.196   3.710
  991SOL    HW115035   0.266   0.193   3.661
  991SOL    HW215036   0.404   0.278   3.682
  992SOL     OW15037   1.340   1.585   4.485
  992SOL    HW115038   1.329   1.682   4.508
  992SOL    HW215039   1.433   1.568   4.455
  993SOL     OW15040   1.218   0.096   5.043
  993SOL    HW115041   1.142   0.051   5.090
  993SOL    HW215042   1.247   0.041   4.965
  994SOL     OW15043   0.956   0.876   5.420
  994SOL    HW115044   0.921   0.851   5.330
  994SOL    HW215045   0.880   0.897   5.481
  995SOL     OW15046   0.563   1.550   4.114
  995SOL    HW115047   0.519   1.559   4.203
  995SOL    HW215048   0.634   1.480   4.118
  996SOL     OW15049   0.581   0.083   3.836
  996SOL    HW115050   0.669   0.111   3.797
  996SOL    HW215051   0.509   0.146   3.806
  997SOL     OW15052   1.551   1.068   5.219
  997SOL    HW115053   1.459   1.073   5.181
  997SOL    HW215054   1.616   1.106   5.153
  998SOL     OW15055   1.451   1.075   4.900
  998SOL    HW115056   1.376   1.064   4.965
  998SOL    HW215057   1.488   1.168   4.906
  999SOL     OW15058   0.947   1.330   5.200
  999SOL    HW115059   0.890   1.393   5.146
  999SOL    HW215060   0.980   1.256   5.141
 1000SOL     OW15061   0.490   1.223   4.409
 1000SOL    HW115062   0.423   1.177   4.468
 1000SOL    HW215063   0.582   1.191   4.432
 1001SOL     OW15064   0.717   0.629   4.240
 1001SOL    HW115065   0.756   0.699   4.181
 1001SOL    HW215066   0.691   0.549   4.186
 1002SOL     OW15067   1.337   0.537   5.449
 1002SOL    HW115068   1.433   0.541   5.475
 1002SOL    HW215069   1.293   0.461   5.496
 1003SOL     OW15070   0.420   1.392   3.893
 1003SOL    HW115071   0.484   1.408   3.818
 1003SOL    HW215072   0.444   1.450   3.971
 1004SOL     OW15073   0.571   0.348   4.703
 1004SOL    HW115074   0.647   0.413   4.699
 1004SOL    HW215075   0.601   0.259   4.670
 1005SOL     OW15076   0.268   0.774   4.121
 1005SOL    HW115077   0.283   0.708   4.195
 1005SOL    HW215078   0.218   0.853   4.156
 1006SOL     OW15079   0.854   1.719   4.298
 1006SOL    HW115080   0.919   1.652   4.262
 1006SOL    HW215081   0.844   1.795   4.234
 1007SOL     OW15082   1.746   1.601   4.040
 1007SOL    HW115083   1.842   1.575   4.033
 1007SOL    HW215084   1.722   1.661   3.964
 1008SOL     OW15085   1.658   0.294   4.811
 1008SOL    HW115086   1.709   0.366   4.764
 1008SOL    HW215087   1.563   0.321   4.820
 1009SOL     OW15088   1.058   0.323   4.080
 1009SOL    HW115089   1.083   0.417   4.101
 1009SOL    HW215090   1.059   0.269   4.164
 1010SOL     OW15091   0.182   1.036   5.265
 1010SOL    HW115092   0.278   1.051   5.283
 1010SOL    HW215093   0.144   0.974   5.334
 1011SOL     OW15094   0.508   0.681   3.808
 1011SOL    HW115095   0.468   0.760   3.761
 1011SOL    HW215096   0.597   0.660   3.768
 1012SOL     OW15097   0.681   1.605   4.506
 1012SOL    HW115098   0.754   1.628   4.442
 1012SOL    HW215099   0.610   1.552   4.460
 1013SOL     OW15100   1.023   0.637   5.260
 1013SOL    HW115101   1.056   0.554   5.307
 1013SOL    HW215102   1.096   0.705   5.259
 1014SOL     OW15103   1.627   1.437   4.482
 1014SOL    HW115104   1.623   1.472   4.575
 1014SOL    HW215105   1.686   1.496   4.426
 1015SOL     OW15106   0.358   1.258   4.158
 1015SOL    HW115107   0.404   1.232   4.243
 1015SOL    HW215108   0.378   1.190   4.087
 1016SOL     OW15109   1.216   0.313   3.869
 1016SOL    HW115110   1.310   0.283   3.887
 1016SOL    HW215111   1.164   0.313   3.955
 1017SOL     OW15112   0.368   0.518   4.964
 1017SOL    HW115113   0.358   0.431   4.916
 1017SOL    HW215114   0.304   0.585   4.927
 1018SOL     OW15115   1.450   0.798   5.002
 1018SOL    HW115116   1.454   0.892   4.967
 1018SOL    HW215117   1.543   0.767   5.024
 1019SOL     OW15118   0.403   0.290   4.123
 1019SOL    HW115119   0.357   0.330   4.202
 1019SOL    HW215120   0.351   0.309   4.041
 1020SOL     OW15121   1.826   0.535   4.890
 1020SOL    HW115122   1.883   0.617   4.892
 1020SOL    HW215123   1.767   0.534   4.970
 1021SOL     OW15124   1.843   1.761   4.803
 1021SOL    HW115125   1.889   1.771   4.891
 1021SOL    HW215126   1.910   1.764   4.730
 1022SOL     OW15127   0.956   0.501   4.365
 1022SOL    HW115128   1.032   0.529   4.424
 1022SOL    HW215129   0.912   0.581   4.326
 1023SOL     OW15130   1.191   0.965   3.882
 1023SOL    HW115131   1.228   0.915   3.960
 1023SOL    HW215132   1.121   0.910   3.837
 1024SOL     OW15133   1.033   0.387   5.503
 1024SOL    HW115134   1.096   0.392   5.580
 1024SOL    HW215135   0.941   0.365   5.536
 1025SOL     OW15136   1.774   0.634   3.961
 1025SOL    HW115137   1.795   0.553   3.907
 1025SOL    HW215138   1.791   0.615   4.058
 1026SOL     OW15139   1.068   1.772   3.869
 1026SOL    HW115140   1.102   1.685   3.834
 1026SOL    HW215141   1.036   1.760   3.963
 1027SOL     OW15142   0.749   0.039   5.401
 1027SOL    HW115143   0.756  -0.055   5.368
 1027SOL    HW215144   0.806   0.049   5.483
 1028SOL     OW15145   1.672   0.640   4.669
 1028SOL    HW115146   1.657   0.731   4.706
 1028SOL    HW215147   1.742   0.593   4.723
 1029SOL     OW15148   1.082   1.306   5.435
 1029SOL    HW115149   1.104   1.216   5.397
 1029SOL    HW215150   1.017   1.353   5.376
 1030SOL     OW15151   0.737   1.148   5.439
 1030SOL    HW115152   0.708   1.225   5.496
 1030SOL    HW215153   0.747   1.067   5.497
 1031SOL     OW15154   1.372   0.012   4.545
 1031SOL    HW115155   1.321   0.096   4.527
 1031SOL    HW215156   1.458   0.014   4.494
 1032SOL     OW15157   1.727   0.218   5.474
 1032SOL    HW115158   1.704   0.239   5.569
 1032SOL    HW215159   1.703   0.123   5.454
 1033SOL     OW15160   0.351   0.210   4.539
 1033SOL    HW115161   0.403   0.250   4.614
 1033SOL    HW215162   0.404   0.137   4.496
 1034SOL     OW15163   0.335   0.258   4.873
 1034SOL    HW115164   0.300   0.165   4.873
 1034SOL    HW215165   0.422   0.261   4.824
 1035SOL     OW15166   1.002   0.880   4.613
 1035SOL    HW115167   1.028   0.960   4.559
 1035SOL    HW215168   0.996   0.800   4.553
 1036SOL     OW15169   0.203   1.507   4.072
 1036SOL    HW115170   0.230   1.413   4.092
 1036SOL    HW215171   0.228   1.529   3.978
 1037SOL     OW15172   1.485   1.376   4.946
 1037SOL    HW115173   1.456   1.413   4.857
 1037SOL    HW215174   1.407   1.376   5.008
 1038SOL     OW15175   0.217   1.650   4.309
 1038SOL    HW115176   0.133   1.701   4.327
 1038SOL    HW215177   0.208   1.599   4.224
 1039SOL     OW15178   1.738   1.447   4.984
 1039SOL    HW115179   1.769   1.461   5.078
 1039SOL    HW215180   1.639   1.434   4.983
 1040SOL     OW15181   0.490   0.947   3.711
 1040SOL    HW115182   0.459   0.981   3.623
 1040SOL    HW215183   0.494   1.022   3.777
 1041SOL     OW15184   1.007   1.134   5.010
 1041SOL    HW115185   1.057   1.049   4.994
 1041SOL    HW215186   0.961   1.161   4.925
 1042SOL     OW15187   0.094   0.839   3.884
 1042SOL    HW115188   0.154   0.786   3.944
 1042SOL    HW215189   0.000   0.807   3.896
 1043SOL     OW15190   1.614   0.837   4.084
 1043SOL    HW115191   1.682   0.771   4.051
 1043SOL    HW215192   1.629   0.925   4.040
 1044SOL     OW15193   0.769   0.893   3.768
 1044SOL    HW115194   0.798   0.812   3.819
 1044SOL    HW215195   0.669   0.892   3.759
 1045SOL     OW15196   1.365   0.425   4.114
 1045SOL    HW115197   1.302   0.483   4.062
 1045SOL    HW215198   1.458   0.459   4.102
 1046SOL     OW15199   0.262   0.626   5.214
 1046SOL    HW115200   0.282   0.531   5.189
 1046SOL    HW215201   0.225   0.629   5.307
 1047SOL     OW15202   0.144   0.281   5.104
 1047SOL    HW115203   0.216   0.291   5.035
 1047SOL    HW215204   0.055   0.280   5.059
 1048SOL     OW15205   1.042   0.902   4.869
 1048SOL    HW115206   1.036   0.888   4.770
 1048SOL    HW215207   0.961   0.863   4.913
 1049SOL     OW15208   1.633   0.436   4.184
 1049SOL    HW115209   1.729   0.407   4.181
 1049SOL    HW215210   1.594   0.414   4.273
 1050SOL     OW15211   0.917   1.511   4.621
 1050SOL    HW115212   0.975   1.522   4.540
 1050SOL    HW215213   0.823   1.535   4.599
 1051SOL     OW15214   0.867   0.377   3.906
 1051SOL    HW115215   0.776   0.390   3.944
 1051SOL    HW215216   0.927   0.337   3.976
 1052SOL     OW15217   0.978   1.322   3.841
 1052SOL    HW115218   1.031   1.262   3.901
 1052SOL    HW215219   1.017   1.323   3.750
 1053SOL     OW15220   1.729   1.617   4.326
 1053SOL    HW115221   1.696   1.710   4.345
 1053SOL    HW215222   1.727   1.601   4.227
 1054SOL     OW15223   1.144   0.890   4.315
 1054SOL    HW115224   1.209   0.918   4.386
 1054SOL    HW215225   1.065   0.951   4.317
 1055SOL     OW15226   0.892   1.616   5.339
 1055SOL    HW115227   0.880   1.547   5.268
 1055SOL    HW215228   0.855   1.581   5.426
 1056SOL     OW15229   1.336   0.930   4.518
 1056SOL    HW115230   1.357   0.872   4.596
 1056SOL    HW215231   1.345   1.026   4.544
 1057SOL     OW15232   0.925   1.007   4.263
 1057SOL    HW115233   0.912   0.918   4.220
 1057SOL    HW215234   0.856   1.021   4.334
 1058SOL     OW15235   1.229   1.395   5.102
 1058SOL    HW115236   1.262   1.480   5.143
 1058SOL    HW215237   1.130   1.391   5.109
 1059SOL     OW15238   0.036   0.312   4.166
 1059SOL    HW115239   0.096   0.263   4.104
 1059SOL    HW215240   0.091   0.364   4.231
 1060SOL     OW15241   1.659   1.810   3.857
 1060SOL    HW115242   1.749   1.854   3.859
 1060SOL    HW215243   1.658   1.741   3.785
 1061SOL     OW15244   0.823   0.777   5.015
 1061SOL    HW115245   0.825   0.863   5.066
 1061SOL    HW215246   0.880   0.709   5.062
 1062SOL     OW15247   0.841   0.823   4.080
 1062SOL    HW115248   0.752   0.851   4.045
 1062SOL    HW215249   0.882   0.757   4.016
 1063SOL     OW15250   0.363   0.541   4.619
 1063SOL    HW115251   0.419   0.534   4.536
 1063SOL    HW215252   0.420   0.519   4.699
 1064SOL     OW15253   0.360   1.739   3.890
 1064SOL    HW115254   0.452   1.769   3.865
 1064SOL    HW215255   0.335   1.778   3.979
 1065SOL     OW15256   1.336   1.761   4.827
 1065SOL    HW115257   1.355   1.824   4.753
 1065SOL    HW215258   1.344   1.667   4.794
 1066SOL     OW15259   0.792   0.061   4.089
 1066SOL    HW115260   0.753   0.050   3.998
 1066SOL    HW215261   0.748   0.137   4.136
 1067SOL     OW15262   0.037   1.197   4.183
 1067SOL    HW115263   0.115   1.255   4.207
 1067SOL    HW215264   0.056   1.148   4.098
 1068SOL     OW15265   1.567   0.325   5.267
 1068SOL    HW115266   1.506   0.403   5.264
 1068SOL    HW215267   1.622   0.329   5.350
 1069SOL     OW15268   1.283   0.271   4.558
 1069SOL    HW115269   1.282   0.349   4.495
 1069SOL    HW215270   1.326   0.298   4.644
 1070SOL     OW15271   1.403   0.077   3.854
 1070SOL    HW115272   1.483   0.017   3.851
 1070SOL    HW215273   1.329   0.030   3.902
 1071SOL     OW15274   1.616   0.049   5.288
 1071SOL    HW115275   1.642   0.006   5.202
 1071SOL    HW215276   1.566   0.133   5.270
 1072SOL     OW15277   0.718   0.308   4.420
 1072SOL    HW115278   0.707   0.250   4.501
 1072SOL    HW215279   0.803   0.360   4.428
 1073SOL     OW15280   1.298   0.659   4.812
 1073SOL    HW115281   1.352   0.699   4.738
 1073SOL    HW215282   1.336   0.688   4.900
 1074SOL     OW15283   1.591   0.065   4.128
 1074SOL    HW115284   1.598   0.019   4.040
 1074SOL    HW215285   1.495   0.075   4.153
 1075SOL     OW15286   0.567   1.380   5.491
 1075SOL    HW115287   0.528   1.443   5.424
 1075SOL    HW215288   0.650   1.420   5.531
 1076SOL     OW15289   0.443   1.112   5.323
 1076SOL    HW115290   0.462   1.136   5.228
 1076SOL    HW215291   0.436   1.195   5.378
 1077SOL     OW15292   0.104   1.402   4.797
 1077SOL    HW115293   0.073   1.328   4.738
 1077SOL    HW215294   0.036   1.420   4.868
 1078SOL     OW15295   1.190   0.603   4.530
 1078SOL    HW115296   1.272   0.580   4.478
 1078SOL    HW215297   1.185   0.544   4.611
 1079SOL     OW15298   1.790   0.630   5.366
 1079SOL    HW115299   1.779   0.716   5.315
 1079SOL    HW215300   1.884   0.621   5.396
 1080SOL     OW15301   1.361   0.403   4.785
 1080SOL    HW115302   1.335   0.500   4.791
 1080SOL    HW215303   1.361   0.363   4.877
 1081SOL     OW15304   1.591   0.535   5.536
 1081SOL    HW115305   1.671   0.560   5.480
 1081SOL    HW215306   1.622   0.500   5.624
 1082SOL     OW15307   1.302   0.838   4.116
 1082SOL    HW115308   1.248   0.836   4.200
 1082SOL    HW215309   1.379   0.901   4.127
 1083SOL     OW15310   1.599   0.934   4.336
 1083SOL    HW115311   1.613   0.897   4.243
 1083SOL    HW215312   1.510   0.904   4.370
 1084SOL     OW15313   1.755   0.871   5.231
 1084SOL    HW115314   1.657   0.892   5.233
 1084SOL    HW215315   1.804   0.947   5.190
 1085SOL     OW15316   0.147   0.301   5.395
 1085SOL    HW115317   0.165   0.290   5.297
 1085SOL    HW215318   0.049   0.297   5.412
 1086SOL     OW15319   0.195   0.371   4.363
 1086SOL    HW115320   0.138   0.426   4.424
 1086SOL    HW215321   0.265   0.323   4.416
 1087SOL     OW15322   0.332   0.562   3.961
 1087SOL    HW115323   0.404   0.591   3.898
 1087SOL    HW215324   0.288   0.642   4.001
 1088SOL     OW15325   1.718   0.224   5.064
 1088SOL    HW115326   1.674   0.272   5.140
 1088SOL    HW215327   1.696   0.270   4.978
 1089SOL     OW15328   0.447   1.825   4.427
 1089SOL    HW115329   0.371   1.791   4.372
 1089SOL    HW215330   0.533   1.788   4.392
 1090SOL     OW15331   1.256   1.538   5.518
 1090SOL    HW115332   1.215   1.453   5.484
 1090SOL    HW215333   1.236   1.612   5.454
 1091SOL     OW15334   0.746   1.258   4.208
 1091SOL    HW115335   0.789   1.189   4.150
 1091SOL    HW215336   0.710   1.215   4.291
 1092SOL     OW15337   0.378   0.809   4.410
 1092SOL    HW115338   0.370   0.907   4.428
 1092SOL    HW215339   0.462   0.775   4.451
 1093SOL     OW15340   0.224   0.289   3.925
 1093SOL    HW115341   0.268   0.258   3.842
 1093SOL    HW215342   0.225   0.389   3.929
 1094SOL     OW15343   0.512   1.128   3.922
 1094SOL    HW115344   0.612   1.128   3.933
 1094SOL    HW215345   0.481   1.221   3.901
 1095SOL     OW15346   1.138   0.720   3.738
 1095SOL    HW115347   1.069   0.777   3.694
 1095SOL    HW215348   1.219   0.714   3.679
 1096SOL     OW15349   0.873   0.639   3.881
 1096SOL    HW115350   0.963   0.640   3.836
 1096SOL    HW215351   0.850   0.545   3.906
 1097SOL     OW15352   1.324   0.156   4.175
 1097SOL    HW115353   1.234   0.140   4.216
 1097SOL    HW215354   1.332   0.252   4.149
 1098SOL     OW15355   1.438   0.556   5.191
 1098SOL    HW115356   1.390   0.579   5.275
 1098SOL    HW215357   1.372   0.526   5.122
 1099SOL     OW15358   0.073   0.071   3.835
 1099SOL    HW115359   0.136  -0.006   3.843
 1099SOL    HW215360   0.093   0.139   3.906
 1100SOL     OW15361   1.645   1.058   3.936
 1100SOL    HW115362   1.716   1.128   3.938
 1100SOL    HW215363   1.632   1.028   3.841
 1101SOL     OW15364   0.627   0.659   4.858
 1101SOL    HW115365   0.702   0.702   4.907
 1101SOL    HW215366   0.560   0.624   4.924
 1102SOL     OW15367   0.770   1.028   5.175
 1102SOL    HW115368   0.839   1.080   5.125
 1102SOL    HW215369   0.765   1.061   5.270
 1103SOL     OW15370   1.162   1.049   5.335
 1103SOL    HW115371   1.084   0.995   5.368
 1103SOL    HW215372   1.243   1.027   5.390
 1104SOL     OW15373   1.091   0.231   4.331
 1104SOL    HW115374   1.150   0.291   4.386
 1104SOL    HW215375   1.018   0.195   4.388
 1105SOL     OW15376   0.619   0.108   4.602
 1105SOL    HW115377   0.547   0.041   4.588
 1105SOL    HW215378   0.701   0.062   4.637
 1106SOL     OW15379   1.012   1.237   4.514
 1106SOL    HW115380   1.051   1.280   4.433
 1106SOL    HW215381   1.085   1.220   4.581
 1107SOL     OW15382   0.706   0.965   4.716
 1107SOL    HW115383   0.704   0.881   4.661
 1107SOL    HW215384   0.655   0.951   4.801
 1108SOL     OW15385   0.273   0.020   4.122
 1108SOL    HW115386   0.311   0.108   4.149
 1108SOL    HW215387   0.196  -0.004   4.182
 1109SOL     OW15388   0.689   0.637   5.450
 1109SOL    HW115389   0.641   0.688   5.379
 1109SOL    HW215390   0.782   0.616   5.420
 1110SOL     OW15391   0.095   1.107   3.942
 1110SOL    HW115392   0.085   1.010   3.921
 1110SOL    HW215393   0.148   1.152   3.870
 1111SOL     OW15394   1.792   0.219   4.543
 1111SOL    HW115395   1.747   0.201   4.630
 1111SOL    HW215396   1.890   0.236   4.559
 1112SOL     OW15397   0.840   1.195   4.795
 1112SOL    HW115398   0.791   1.110   4.776
 1112SOL    HW215399   0.910   1.210   4.726
 1113SOL     OW15400   1.178   0.618   4.004
 1113SOL    HW115401   1.230   0.690   4.050
 1113SOL    HW215402   1.191   0.625   3.906
 1114SOL     OW15403   1.539   1.433   5.331
 1114SOL    HW115404   1.524   1.335   5.345
 1114SOL    HW215405   1.456   1.475   5.295
 1115SOL     OW15406   0.296   0.875   5.071
 1115SOL    HW115407   0.260   0.785   5.097
 1115SOL    HW215408   0.257   0.945   5.131
 1116SOL     OW15409   0.798   1.501   3.729
 1116SOL    HW115410   0.773   1.578   3.788
 1116SOL    HW215411   0.862   1.441   3.777
 1117SOL     OW15412   0.616   1.708   4.763
 1117SOL    HW115413   0.636   1.678   4.670
 1117SOL    HW215414   0.541   1.653   4.800
 1118SOL     OW15415   0.759   1.119   4.480
 1118SOL    HW115416   0.848   1.165   4.480
 1118SOL    HW215417   0.752   1.059   4.559
 1119SOL     OW15418   0.937   1.466   4.149
 1119SOL    HW115419   0.987   1.454   4.064
 1119SOL    HW215420   0.883   1.383   4.168
 1120SOL     OW15421   0.064   0.930   5.476
 1120SOL    HW115422  -0.021   0.881   5.457
 1120SOL    HW215423   0.091   0.917   5.571
 1121SOL     OW15424   1.190   1.186   4.712
 1121SOL    HW115425   1.174   1.280   4.743
 1121SOL    HW215426   1.193   1.125   4.792
 1122SOL     OW15427   0.464   0.457   5.476
 1122SOL    HW115428   0.500   0.404   5.399
 1122SOL    HW215429   0.525   0.534   5.494
 1123SOL     OW15430   0.528   0.874   4.048
 1123SOL    HW115431   0.478   0.939   3.992
 1123SOL    HW215432   0.470   0.795   4.067
 1124SOL     OW15433   1.609   0.905   4.746
 1124SOL    HW115434   1.628   0.944   4.655
 1124SOL    HW215435   1.563   0.974   4.802
 1125SOL     OW15436   1.301   0.348   5.042
 1125SOL    HW115437   1.372   0.320   5.106
 1125SOL    HW215438   1.248   0.268   5.014
 1126SOL     OW15439   0.002   0.047   4.243
 1126SOL    HW115440  -0.085   0.034   4.196
 1126SOL    HW215441   0.010   0.142   4.273
 1127SOL     OW15442   1.223   0.148   5.484
 1127SOL    HW115443   1.282   0.164   5.564
 1127SOL    HW215444   1.170   0.231   5.465
 1128SOL     OW15445   0.439   1.567   5.309
 1128SOL    HW115446   0.381   1.632   5.358
 1128SOL    HW215447   0.501   1.617   5.249
 1129SOL     OW15448   1.795   1.454   5.250
 1129SOL    HW115449   1.823   1.547   5.272
 1129SOL    HW215450   1.702   1.438   5.283
 1130SOL     OW15451   1.045   0.567   4.800
 1130SOL    HW115452   1.131   0.618   4.799
 1130SOL    HW215453   1.051   0.493   4.867
 1131SOL     OW15454   0.449   1.513   4.372
 1131SOL    HW115455   0.447   1.414   4.385
 1131SOL    HW215456   0.358   1.546   4.349
 1132SOL     OW15457   1.090   1.630   4.960
 1132SOL    HW115458   1.016   1.694   4.978
 1132SOL    HW215459   1.169   1.679   4.922
 1133SOL     OW15460   0.299   1.760   5.459
 1133SOL    HW115461   0.342   1.844   5.425
 1133SOL    HW215462   0.324   1.747   5.555
 1134SOL     OW15463   0.248   1.661   4.734
 1134SOL    HW115464   0.190   1.581   4.748
 1134SOL    HW215465   0.272   1.668   4.637
 1135SOL     OW15466   0.994   0.182   4.589
 1135SOL    HW115467   1.090   0.183   4.617
 1135SOL    HW215468   0.939   0.139   4.661
 1136SOL     OW15469   1.056   1.188   4.105
 1136SOL    HW115470   1.136   1.224   4.153
 1136SOL    HW215471   1.014   1.115   4.161
 1137SOL     OW15472   1.647   0.455   4.469
 1137SOL    HW115473   1.666   0.541   4.516
 1137SOL    HW215474   1.715   0.386   4.497
 1138SOL     OW15475   0.790   1.127   3.955
 1138SOL    HW115476   0.862   1.186   3.920
 1138SOL    HW215477   0.830   1.043   3.991
 1139SOL     OW15478   0.861   0.103   3.807
 1139SOL    HW115479   0.936   0.037   3.819
 1139SOL    HW215480   0.892   0.194   3.835
 1140SOL     OW15481   0.540   0.532   4.419
 1140SOL    HW115482   0.578   0.443   4.445
 1140SOL    HW215483   0.607   0.582   4.364
 1141SOL     OW15484   0.528   1.090   5.073
 1141SOL    HW115485   0.624   1.070   5.093
 1141SOL    HW215486   0.517   1.188   5.055
 1142SOL     OW15487   1.750   1.133   5.042
 1142SOL    HW115488   1.764   1.231   5.056
 1142SOL    HW215489   1.807   1.102   4.966
 1143SOL     OW15490   0.233   1.242   3.734
 1143SOL    HW115491   0.225   1.254   3.635
 1143SOL    HW215492   0.292   1.313   3.772
 1144SOL     OW15493   0.660   1.681   3.894
 1144SOL    HW115494   0.635   1.776   3.878
 1144SOL    HW215495   0.627   1.653   3.984
 1145SOL     OW15496   1.310   1.104   5.118
 1145SOL    HW115497   1.254   1.063   5.189
 1145SOL    HW215498   1.290   1.202   5.112
 1146SOL     OW15499   0.220   0.601   5.480
 1146SOL    HW115500   0.237   0.502   5.485
 1146SOL    HW215501   0.284   0.649   5.541
 1147SOL     OW15502   1.659   1.562   4.719
 1147SOL    HW115503   1.631   1.655   4.743
 1147SOL    HW215504   1.709   1.521   4.795
 1148SOL     OW15505   0.564   0.733   5.218
 1148SOL    HW115506   0.470   0.703   5.199
 1148SOL    HW215507   0.573   0.830   5.195
 1149SOL     OW15508   1.631   1.109   4.530
 1149SOL    HW115509   1.593   1.198   4.503
 1149SOL    HW215510   1.631   1.047   4.452
 1150SOL     OW15511   0.789   0.515   4.699
 1150SOL    HW115512   0.881   0.543   4.726
 1150SOL    HW215513   0.721   0.566   4.753
 1151SOL     OW15514   0.642   1.366   4.926
 1151SOL    HW115515   0.555   1.365   4.877
 1151SOL    HW215516   0.708   1.306   4.879
 1152SOL     OW15517   0.379   1.354   5.138
 1152SOL    HW115518   0.398   1.442   5.182
 1152SOL    HW215519   0.284   1.328   5.156
 1153SOL     OW15520   1.330   1.208   4.207
 1153SOL    HW115521   1.429   1.212   4.223
 1153SOL    HW215522   1.313   1.194   4.109
 1154SOL     OW15523   0.683   0.374   4.155
 1154SOL    HW115524   0.585   0.368   4.135
 1154SOL    HW215525   0.702   0.331   4.243
 1155SOL     OW15526   1.603   0.057   4.414
 1155SOL    HW115527   1.598   0.098   4.323
 1155SOL    HW215528   1.684   0.091   4.461
 1156SOL     OW15529   1.206   0.813   5.107
 1156SOL    HW115530   1.305   0.822   5.097
 1156SOL    HW215531   1.162   0.815   5.017
 1157SOL     OW15532   0.700   0.773   4.509
 1157SOL    HW115533   0.722   0.695   4.567
 1157SOL    HW215534   0.709   0.747   4.413
 1158SOL     OW15535   1.365   1.480   4.721
 1158SOL    HW115536   1.279   1.437   4.750
 1158SOL    HW215537   1.354   1.520   4.630
 1159SOL     OW15538   1.368   0.465   4.396
 1159SOL    HW115539   1.367   0.457   4.297
 1159SOL    HW215540   1.457   0.437   4.431
 1160SOL     OW15541   1.095   1.481   6.228
 1160SOL    HW115542   1.186   1.515   6.251
 1160SOL    HW215543   1.067   1.519   6.140
 1161SOL     OW15544   1.606   1.277   6.086
 1161SOL    HW115545   1.617   1.361   6.140
 1161SOL    HW215546   1.696   1.240   6.063
 1162SOL     OW15547   1.686   0.559   6.950
 1162SOL    HW115548   1.588   0.551   6.972
 1162SOL    HW215549   1.739   0.548   7.034
 1163SOL     OW15550   0.353   0.196   5.555
 1163SOL    HW115551   0.266   0.193   5.506
 1163SOL    HW215552   0.404   0.278   5.527
 1164SOL     OW15553   1.340   1.585   6.330
 1164SOL    HW115554   1.329   1.682   6.353
 1164SOL    HW215555   1.433   1.568   6.300
 1165SOL     OW15556   1.218   0.096   6.888
 1165SOL    HW115557   1.142   0.051   6.935
 1165SOL    HW215558   1.247   0.041   6.810
 1166SOL     OW15559   0.956   0.876   7.265
 1166SOL    HW115560   0.921   0.851   7.175
 1166SOL    HW215561   0.880   0.897   7.326
 1167SOL     OW15562   0.563   1.550   5.959
 1167SOL    HW115563   0.519   1.559   6.048
 1167SOL    HW215564   0.634   1.480   5.963
 1168SOL     OW15565   0.581   0.083   5.681
 1168SOL    HW115566   0.669   0.111   5.642
 1168SOL    HW215567   0.509   0.146   5.651
 1169SOL     OW15568   1.551   1.068   7.064
 1169SOL    HW115569   1.459   1.073   7.026
 1169SOL    HW215570   1.616   1.106   6.998
 1170SOL     OW15571   1.451   1.075   6.745
 1170SOL    HW115572   1.376   1.064   6.810
 1170SOL    HW215573   1.488   1.168   6.751
 1171SOL     OW15574   0.947   1.330   7.045
 1171SOL    HW115575   0.890   1.393   6.991
 1171SOL    HW215576   0.980   1.256   6.986
 1172SOL     OW15577   0.490   1.223   6.254
 1172SOL    HW115578   0.423   1.177   6.313
 1172SOL    HW215579   0.582   1.191   6.277
 1173SOL     OW15580   0.717   0.629   6.085
 1173SOL    HW115581   0.756   0.699   6.026
 1173SOL    HW215582   0.691   0.549   6.031
 1174SOL     OW15583   1.337   0.537   7.294
 1174SOL    HW115584   1.433   0.541   7.320
 1174SOL    HW215585   1.293   0.461   7.341
 1175SOL     OW15586   0.420   1.392   5.738
 1175SOL    HW115587   0.484   1.408   5.663
 1175SOL    HW215588   0.444   1.450   5.816
 1176SOL     OW15589   0.571   0.348   6.548
 1176SOL    HW115590   0.647   0.413   6.544
 1176SOL    HW215591   0.601   0.259   6.515
 1177SOL     OW15592   0.268   0.774   5.966
 1177SOL    HW115593   0.283   0.708   6.040
 1177SOL    HW215594   0.218   0.853   6.001
 1178SOL     OW15595   1.746   1.601   5.885
 1178SOL    HW115596   1.842   1.575   5.878
 1178SOL    HW215597   1.722   1.661   5.809
 1179SOL     OW15598   1.658   0.294   6.656
 1179SOL    HW115599   1.709   0.366   6.609
 1179SOL    HW215600   1.563   0.321   6.665
 1180SOL     OW15601   1.058   0.323   5.925
 1180SOL    HW115602   1.083   0.417   5.946
 1180SOL    HW215603   1.059   0.269   6.009
 1181SOL     OW15604   0.182   1.036   7.110
 1181SOL    HW115605   0.278   1.051   7.128
 1181SOL    HW215606   0.144   0.974   7.179
 1182SOL     OW15607   0.508   0.681   5.653
 1182SOL    HW115608   0.468   0.760   5.606
 1182SOL    HW215609   0.597   0.660   5.613
 1183SOL     OW15610   1.023   0.637   7.105
 1183SOL    HW115611   1.056   0.554   7.152
 1183SOL    HW215612   1.096   0.705   7.104
 1184SOL     OW15613   1.627   1.437   6.327
 1184SOL    HW115614   1.623   1.472   6.420
 1184SOL    HW215615   1.686   1.496   6.271
 1185SOL     OW15616   0.358   1.258   6.003
 1185SOL    HW115617   0.404   1.232   6.088
 1185SOL    HW215618   0.378   1.190   5.932
 1186SOL     OW15619   1.216   0.313   5.714
 1186SOL    HW115620   1.310   0.283   5.732
 1186SOL    HW215621   1.164   0.313   5.800
 1187SOL     OW15622   0.368   0.518   6.809
 1187SOL    HW115623   0.358   0.431   6.761
 1187SOL    HW215624   0.304   0.585   6.772
 1188SOL     OW15625   1.450   0.798   6.847
 1188SOL    HW115626   1.454   0.892   6.812
 1188SOL    HW215627   1.543   0.767   6.869
 1189SOL     OW15628   0.403   0.290   5.968
 1189SOL    HW115629   0.357   0.330   6.047
 1189SOL    HW215630   0.351   0.309   5.886
 1190SOL     OW15631   1.531   1.817   6.880
 1190SOL    HW115632   1.474   1.768   6.814
 1190SOL    HW215633   1.617   1.844   6.837
 1191SOL     OW15634   1.826   0.535   6.735
 1191SOL    HW115635   1.883   0.617   6.737
 1191SOL    HW215636   1.767   0.534   6.815
 1192SOL     OW15637   1.843   1.761   6.648
 1192SOL    HW115638   1.889   1.771   6.736
 1192SOL    HW215639   1.910   1.764   6.575
 1193SOL     OW15640   0.956   0.501   6.210
 1193SOL    HW115641   1.032   0.529   6.269
 1193SOL    HW215642   0.912   0.581   6.171
 1194SOL     OW15643   1.191   0.965   5.727
 1194SOL    HW115644   1.228   0.915   5.805
 1194SOL    HW215645   1.121   0.910   5.682
 1195SOL     OW15646   1.033   0.387   7.348
 1195SOL    HW115647   1.096   0.392   7.425
 1195SOL    HW215648   0.941   0.365   7.381
 1196SOL     OW15649   1.774   0.634   5.806
 1196SOL    HW115650   1.795   0.553   5.752
 1196SOL    HW215651   1.791   0.615   5.903
 1197SOL     OW15652   0.749   0.039   7.246
 1197SOL    HW115653   0.756  -0.055   7.213
 1197SOL    HW215654   0.806   0.049   7.328
 1198SOL     OW15655   1.672   0.640   6.514
 1198SOL    HW115656   1.657   0.731   6.551
 1198SOL    HW215657   1.742   0.593   6.568
 1199SOL     OW15658   1.082   1.306   7.280
 1199SOL    HW115659   1.104   1.216   7.242
 1199SOL    HW215660   1.017   1.353   7.221
 1200SOL     OW15661   0.737   1.148   7.284
 1200SOL    HW115662   0.708   1.225   7.341
 1200SOL    HW215663   0.747   1.067   7.342
 1201SOL     OW15664   1.372   0.012   6.390
 1201SOL    HW115665   1.321   0.096   6.372
 1201SOL    HW215666   1.458   0.014   6.339
 1202SOL     OW15667   1.727   0.218   7.319
 1202SOL    HW115668   1.704   0.239   7.414
 1202SOL    HW215669   1.703   0.123   7.299
 1203SOL     OW15670   0.030   0.622   6.063
 1203SOL    HW115671   0.032   0.573   6.150
 1203SOL    HW215672   0.032   0.721   6.081
 1204SOL     OW15673   0.351   0.210   6.384
 1204SOL    HW115674   0.403   0.250   6.459
 1204SOL    HW215675   0.404   0.137   6.341
 1205SOL     OW15676   0.335   0.258   6.718
 1205SOL    HW115677   0.300   0.165   6.718
 1205SOL    HW215678   0.422   0.261   6.669
 1206SOL     OW15679   1.002   0.880   6.458
 1206SOL    HW115680   1.028   0.960   6.404
 1206SOL    HW215681   0.996   0.800   6.398
 1207SOL     OW15682   0.203   1.507   5.917
 1207SOL    HW115683   0.230   1.413   5.937
 1207SOL    HW215684   0.228   1.529   5.823
 1208SOL     OW15685   1.485   1.376   6.791
 1208SOL    HW115686   1.456   1.413   6.702
 1208SOL    HW215687   1.407   1.376   6.853
 1209SOL     OW15688   1.738   1.447   6.829
 1209SOL    HW115689   1.769   1.461   6.923
 1209SOL    HW215690   1.639   1.434   6.828
 1210SOL     OW15691   0.490   0.947   5.556
 1210SOL    HW115692   0.459   0.981   5.468
 1210SOL    HW215693   0.494   1.022   5.622
 1211SOL     OW15694   1.007   1.134   6.855
 1211SOL    HW115695   1.057   1.049   6.839
 1211SOL    HW215696   0.961   1.161   6.770
 1212SOL     OW15697   0.094   0.839   5.729
 1212SOL    HW115698   0.154   0.786   5.789
 1212SOL    HW215699   0.000   0.807   5.741
 1213SOL     OW15700   1.614   0.837   5.929
 1213SOL    HW115701   1.682   0.771   5.896
 1213SOL    HW215702   1.629   0.925   5.885
 1214SOL     OW15703   0.862   1.824   6.577
 1214SOL    HW115704   0.908   1.757   6.519
 1214SOL    HW215705   0.788   1.780   6.627
 1215SOL     OW15706   0.769   0.893   5.613
 1215SOL    HW115707   0.798   0.812   5.664
 1215SOL    HW215708   0.669   0.892   5.604
 1216SOL     OW15709   1.365   0.425   5.959
 1216SOL    HW115710   1.302   0.483   5.907
 1216SOL    HW215711   1.458   0.459   5.947
 1217SOL     OW15712   0.262   0.626   7.059
 1217SOL    HW115713   0.282   0.531   7.034
 1217SOL    HW215714   0.225   0.629   7.152
 1218SOL     OW15715   0.144   0.281   6.949
 1218SOL    HW115716   0.216   0.291   6.880
 1218SOL    HW215717   0.055   0.280   6.904
 1219SOL     OW15718   1.042   0.902   6.714
 1219SOL    HW115719   1.036   0.888   6.615
 1219SOL    HW215720   0.961   0.863   6.758
 1220SOL     OW15721   1.633   0.436   6.029
 1220SOL    HW115722   1.729   0.407   6.026
 1220SOL    HW215723   1.594   0.414   6.118
 1221SOL     OW15724   0.917   1.511   6.466
 1221SOL    HW115725   0.975   1.522   6.385
 1221SOL    HW215726   0.823   1.535   6.444
 1222SOL     OW15727   0.867   0.377   5.751
 1222SOL    HW115728   0.776   0.390   5.789
 1222SOL    HW215729   0.927   0.337   5.821
 1223SOL     OW15730   0.978   1.322   5.686
 1223SOL    HW115731   1.031   1.262   5.746
 1223SOL    HW215732   1.017   1.323   5.595
 1224SOL     OW15733   1.729   1.617   6.171
 1224SOL    HW115734   1.696   1.710   6.190
 1224SOL    HW215735   1.727   1.601   6.072
 1225SOL     OW15736   1.144   0.890   6.160
 1225SOL    HW115737   1.209   0.918   6.231
 1225SOL    HW215738   1.065   0.951   6.162
 1226SOL     OW15739   0.892   1.616   7.184
 1226SOL    HW115740   0.880   1.547   7.113
 1226SOL    HW215741   0.855   1.581   7.271
 1227SOL     OW15742   1.336   0.930   6.363
 1227SOL    HW115743   1.357   0.872   6.441
 1227SOL    HW215744   1.345   1.026   6.389
 1228SOL     OW15745   0.292   1.059   6.409
 1228SOL    HW115746   0.215   1.121   6.402
 1228SOL    HW215747   0.329   1.060   6.502
 1229SOL     OW15748   0.925   1.007   6.108
 1229SOL    HW115749   0.912   0.918   6.065
 1229SOL    HW215750   0.856   1.021   6.179
 1230SOL     OW15751   1.229   1.395   6.947
 1230SOL    HW115752   1.262   1.480   6.988
 1230SOL    HW215753   1.130   1.391   6.954
 1231SOL     OW15754   0.036   0.312   6.011
 1231SOL    HW115755   0.096   0.263   5.949
 1231SOL    HW215756   0.091   0.364   6.076
 1232SOL     OW15757   1.659   1.810   5.702
 1232SOL    HW115758   1.749   1.854   5.704
 1232SOL    HW215759   1.658   1.741   5.630
 1233SOL     OW15760   0.823   0.777   6.860
 1233SOL    HW115761   0.825   0.863   6.911
 1233SOL    HW215762   0.880   0.709   6.907
 1234SOL     OW15763   0.060   1.804   6.931
 1234SOL    HW115764   0.068   1.904   6.929
 1234SOL    HW215765   0.036   1.775   7.024
 1235SOL     OW15766   0.841   0.823   5.925
 1235SOL    HW115767   0.752   0.851   5.890
 1235SOL    HW215768   0.882   0.757   5.861
 1236SOL     OW15769   0.363   0.541   6.464
 1236SOL    HW115770   0.419   0.534   6.381
 1236SOL    HW215771   0.420   0.519   6.544
 1237SOL     OW15772   0.360   1.739   5.735
 1237SOL    HW115773   0.452   1.769   5.710
 1237SOL    HW215774   0.335   1.778   5.824
 1238SOL     OW15775   1.336   1.761   6.672
 1238SOL    HW115776   1.355   1.824   6.598
 1238SOL    HW215777   1.344   1.667   6.639
 1239SOL     OW15778   0.041   1.156   6.484
 1239SOL    HW115779  -0.049   1.172   6.445
 1239SOL    HW215780   0.039   1.072   6.539
 1240SOL     OW15781   0.792   0.061   5.934
 1240SOL    HW115782   0.753   0.050   5.843
 1240SOL    HW215783   0.748   0.137   5.981
 1241SOL     OW15784   0.037   1.197   6.028
 1241SOL    HW115785   0.115   1.255   6.052
 1241SOL    HW215786   0.056   1.148   5.943
 1242SOL     OW15787   1.567   0.325   7.112
 1242SOL    HW115788   1.506   0.403   7.109
 1242SOL    HW215789   1.622   0.329   7.195
 1243SOL     OW15790   1.283   0.271   6.403
 1243SOL    HW115791   1.282   0.349   6.340
 1243SOL    HW215792   1.326   0.298   6.489
 1244SOL     OW15793   1.403   0.077   5.699
 1244SOL    HW115794   1.483   0.017   5.696
 1244SOL    HW215795   1.329   0.030   5.747
 1245SOL     OW15796   1.616   0.049   7.133
 1245SOL    HW115797   1.642   0.006   7.047
 1245SOL    HW215798   1.566   0.133   7.115
 1246SOL     OW15799   0.718   0.308   6.265
 1246SOL    HW115800   0.707   0.250   6.346
 1246SOL    HW215801   0.803   0.360   6.273
 1247SOL     OW15802   1.298   0.659   6.657
 1247SOL    HW115803   1.352   0.699   6.583
 1247SOL    HW215804   1.336   0.688   6.745
 1248SOL     OW15805   1.591   0.065   5.973
 1248SOL    HW115806   1.598   0.019   5.885
 1248SOL    HW215807   1.495   0.075   5.998
 1249SOL     OW15808   0.567   1.380   7.336
 1249SOL    HW115809   0.528   1.443   7.269
 1249SOL    HW215810   0.650   1.420   7.376
 1250SOL     OW15811   0.443   1.112   7.168
 1250SOL    HW115812   0.462   1.136   7.073
 1250SOL    HW215813   0.436   1.195   7.223
 1251SOL     OW15814   0.104   1.402   6.642
 1251SOL    HW115815   0.073   1.328   6.583
 1251SOL    HW215816   0.036   1.420   6.713
 1252SOL     OW15817   1.190   0.603   6.375
 1252SOL    HW115818   1.272   0.580   6.323
 1252SOL    HW215819   1.185   0.544   6.456
 1253SOL     OW15820   1.790   0.630   7.211
 1253SOL    HW115821   1.779   0.716   7.160
 1253SOL    HW215822   1.884   0.621   7.241
 1254SOL     OW15823   1.361   0.403   6.630
 1254SOL    HW115824   1.335   0.500   6.636
 1254SOL    HW215825   1.361   0.363   6.722
 1255SOL     OW15826   1.591   0.535   7.381
 1255SOL    HW115827   1.671   0.560   7.325
 1255SOL    HW215828   1.622   0.500   7.469
 1256SOL     OW15829   1.302   0.838   5.961
 1256SOL    HW115830   1.248   0.836   6.045
 1256SOL    HW215831   1.379   0.901   5.972
 1257SOL     OW15832   1.599   0.934   6.181
 1257SOL    HW115833   1.613   0.897   6.088
 1257SOL    HW215834   1.510   0.904   6.215
 1258SOL     OW15835   1.755   0.871   7.076
 1258SOL    HW115836   1.657   0.892   7.078
 1258SOL    HW215837   1.804   0.947   7.035
 1259SOL     OW15838   1.609   0.291   5.755
 1259SOL    HW115839   1.614   0.333   5.846
 1259SOL    HW215840   1.542   0.216   5.757
 1260SOL     OW15841   0.756   1.506   6.975
 1260SOL    HW115842   0.693   1.584   6.982
 1260SOL    HW215843   0.724   1.444   6.903
 1261SOL     OW15844   0.147   0.301   7.240
 1261SOL    HW115845   0.165   0.290   7.142
 1261SOL    HW215846   0.049   0.297   7.257
 1262SOL     OW15847   0.027   1.715   7.184
 1262SOL    HW115848   0.099   1.701   7.252
 1262SOL    HW215849  -0.062   1.718   7.229
 1263SOL     OW15850   0.195   0.371   6.208
 1263SOL    HW115851   0.138   0.426   6.269
 1263SOL    HW215852   0.265   0.323   6.261
 1264SOL     OW15853   1.367   1.603   7.071
 1264SOL    HW115854   1.320   1.671   7.126
 1264SOL    HW215855   1.434   1.649   7.012
 1265SOL     OW15856   0.332   0.562   5.806
 1265SOL    HW115857   0.404   0.591   5.743
 1265SOL    HW215858   0.288   0.642   5.846
 1266SOL     OW15859   1.718   0.224   6.909
 1266SOL    HW115860   1.674   0.272   6.985
 1266SOL    HW215861   1.696   0.270   6.823
 1267SOL     OW15862   0.372   1.334   6.717
 1267SOL    HW115863   0.384   1.350   6.814
 1267SOL    HW215864   0.285   1.374   6.687
 1268SOL     OW15865   1.256   1.538   7.363
 1268SOL    HW115866   1.215   1.453   7.329
 1268SOL    HW215867   1.236   1.612   7.299
 1269SOL     OW15868   0.746   1.258   6.053
 1269SOL    HW115869   0.789   1.189   5.995
 1269SOL    HW215870   0.710   1.215   6.136
 1270SOL     OW15871   0.378   0.809   6.255
 1270SOL    HW115872   0.370   0.907   6.273
 1270SOL    HW215873   0.462   0.775   6.296
 1271SOL     OW15874   0.224   0.289   5.770
 1271SOL    HW115875   0.268   0.258   5.687
 1271SOL    HW215876   0.225   0.389   5.774
 1272SOL     OW15877   0.077   0.541   6.381
 1272SOL    HW115878   0.041   0.634   6.373
 1272SOL    HW215879   0.160   0.542   6.437
 1273SOL     OW15880   0.512   1.128   5.767
 1273SOL    HW115881   0.612   1.128   5.778
 1273SOL    HW215882   0.481   1.221   5.746
 1274SOL     OW15883   1.138   0.720   5.583
 1274SOL    HW115884   1.069   0.777   5.539
 1274SOL    HW215885   1.219   0.714   5.524
 1275SOL     OW15886   0.873   0.639   5.726
 1275SOL    HW115887   0.963   0.640   5.681
 1275SOL    HW215888   0.850   0.545   5.751
 1276SOL     OW15889   1.324   0.156   6.020
 1276SOL    HW115890   1.234   0.140   6.061
 1276SOL    HW215891   1.332   0.252   5.994
 1277SOL     OW15892   1.438   0.556   7.036
 1277SOL    HW115893   1.390   0.579   7.120
 1277SOL    HW215894   1.372   0.526   6.967
 1278SOL     OW15895   0.073   0.071   5.680
 1278SOL    HW115896   0.136  -0.006   5.688
 1278SOL    HW215897   0.093   0.139   5.751
 1279SOL     OW15898   0.346   1.046   6.681
 1279SOL    HW115899   0.357   1.001   6.770
 1279SOL    HW215900   0.373   1.142   6.688
 1280SOL     OW15901   1.645   1.058   5.781
 1280SOL    HW115902   1.716   1.128   5.783
 1280SOL    HW215903   1.632   1.028   5.686
 1281SOL     OW15904   0.627   0.659   6.703
 1281SOL    HW115905   0.702   0.702   6.752
 1281SOL    HW215906   0.560   0.624   6.769
 1282SOL     OW15907   0.770   1.028   7.020
 1282SOL    HW115908   0.839   1.080   6.970
 1282SOL    HW215909   0.765   1.061   7.115
 1283SOL     OW15910   1.162   1.049   7.180
 1283SOL    HW115911   1.084   0.995   7.213
 1283SOL    HW215912   1.243   1.027   7.235
 1284SOL     OW15913   1.091   0.231   6.176
 1284SOL    HW115914   1.150   0.291   6.231
 1284SOL    HW215915   1.018   0.195   6.233
 1285SOL     OW15916   1.201   1.763   7.216
 1285SOL    HW115917   1.106   1.761   7.184
 1285SOL    HW215918   1.222   1.854   7.253
 1286SOL     OW15919   0.619   0.108   6.447
 1286SOL    HW115920   0.547   0.041   6.433
 1286SOL    HW215921   0.701   0.062   6.482
 1287SOL     OW15922   0.319   1.773   6.814
 1287SOL    HW115923   0.299   1.755   6.718
 1287SOL    HW215924   0.246   1.735   6.871
 1288SOL     OW15925   1.012   1.237   6.359
 1288SOL    HW115926   1.051   1.280   6.278
 1288SOL    HW215927   1.085   1.220   6.426
 1289SOL     OW15928   0.706   0.965   6.561
 1289SOL    HW115929   0.704   0.881   6.506
 1289SOL    HW215930   0.655   0.951   6.646
 1290SOL     OW15931   0.045   0.975   6.687
 1290SOL    HW115932   0.134   0.953   6.727
 1290SOL    HW215933  -0.010   0.891   6.683
 1291SOL     OW15934   0.273   0.020   5.967
 1291SOL    HW115935   0.311   0.108   5.994
 1291SOL    HW215936   0.196  -0.004   6.027
 1292SOL     OW15937   0.689   0.637   7.295
 1292SOL    HW115938   0.641   0.688   7.224
 1292SOL    HW215939   0.782   0.616   7.265
 1293SOL     OW15940   0.095   1.107   5.787
 1293SOL    HW115941   0.085   1.010   5.766
 1293SOL    HW215942   0.148   1.152   5.715
 1294SOL     OW15943   1.792   0.219   6.388
 1294SOL    HW115944   1.747   0.201   6.475
 1294SOL    HW215945   1.890   0.236   6.404
 1295SOL     OW15946   0.840   1.195   6.640
 1295SOL    HW115947   0.791   1.110   6.621
 1295SOL    HW215948   0.910   1.210   6.571
 1296SOL     OW15949   1.178   0.618   5.849
 1296SOL    HW115950   1.230   0.690   5.895
 1296SOL    HW215951   1.191   0.625   5.751
 1297SOL     OW15952   1.539   1.433   7.176
 1297SOL    HW115953   1.524   1.335   7.190
 1297SOL    HW215954   1.456   1.475   7.140
 1298SOL     OW15955   0.296   0.875   6.916
 1298SOL    HW115956   0.260   0.785   6.942
 1298SOL    HW215957   0.257   0.945   6.976
 1299SOL     OW15958   0.798   1.501   5.574
 1299SOL    HW115959   0.773   1.578   5.633
 1299SOL    HW215960   0.862   1.441   5.622
 1300SOL     OW15961   0.616   1.708   6.608
 1300SOL    HW115962   0.636   1.678   6.515
 1300SOL    HW215963   0.541   1.653   6.645
 1301SOL     OW15964   0.759   1.119   6.325
 1301SOL    HW115965   0.848   1.165   6.325
 1301SOL    HW215966   0.752   1.059   6.404
 1302SOL     OW15967   0.937   1.466   5.994
 1302SOL    HW115968   0.987   1.454   5.909
 1302SOL    HW215969   0.883   1.383   6.013
 1303SOL     OW15970   0.127   0.813   6.394
 1303SOL    HW115971   0.222   0.804   6.362
 1303SOL    HW215972   0.093   0.905   6.373
 1304SOL     OW15973   0.064   0.930   7.321
 1304SOL    HW115974  -0.021   0.881   7.302
 1304SOL    HW215975   0.091   0.917   7.416
 1305SOL     OW15976   0.961   1.839   7.027
 1305SOL    HW115977   0.933   1.752   7.068
 1305SOL    HW215978   0.905   1.913   7.064
 1306SOL     OW15979   1.190   1.186   6.557
 1306SOL    HW115980   1.174   1.280   6.588
 1306SOL    HW215981   1.193   1.125   6.637
 1307SOL     OW15982   0.464   0.457   7.321
 1307SOL    HW115983   0.500   0.404   7.244
 1307SOL    HW215984   0.525   0.534   7.339
 1308SOL     OW15985   0.528   0.874   5.893
 1308SOL    HW115986   0.478   0.939   5.837
 1308SOL    HW215987   0.470   0.795   5.912
 1309SOL     OW15988   1.609   0.905   6.591
 1309SOL    HW115989   1.628   0.944   6.500
 1309SOL    HW215990   1.563   0.974   6.647
 1310SOL     OW15991   1.301   0.348   6.887
 1310SOL    HW115992   1.372   0.320   6.951
 1310SOL    HW215993   1.248   0.268   6.859
 1311SOL     OW15994   0.002   0.047   6.088
 1311SOL    HW115995  -0.085   0.034   6.041
 1311SOL    HW215996   0.010   0.142   6.118
 1312SOL     OW15997   1.223   0.148   7.329
 1312SOL    HW115998   1.282   0.164   7.409
 1312SOL    HW215999   1.170   0.231   7.310
 1313SOL     OW16000   0.439   1.567   7.154
 1313SOL    HW116001   0.381   1.632   7.203
 1313SOL    HW216002   0.501   1.617   7.094
 1314SOL     OW16003   1.795   1.454   7.095
 1314SOL    HW116004   1.823   1.547   7.117
 1314SOL    HW216005   1.702   1.438   7.128
 1315SOL     OW16006   1.045   0.567   6.645
 1315SOL    HW116007   1.131   0.618   6.644
 1315SOL    HW216008   1.051   0.493   6.712
 1316SOL     OW16009   0.449   1.513   6.217
 1316SOL    HW116010   0.447   1.414   6.230
 1316SOL    HW216011   0.358   1.546   6.194
 1317SOL     OW16012   1.090   1.630   6.805
 1317SOL    HW116013   1.016   1.694   6.823
 1317SOL    HW216014   1.169   1.679   6.767
 1318SOL     OW16015   0.299   1.760   7.304
 1318SOL    HW116016   0.342   1.844   7.270
 1318SOL    HW216017   0.324   1.747   7.400
 1319SOL     OW16018   0.159   1.296   7.175
 1319SOL    HW116019   0.138   1.201   7.148
 1319SOL    HW216020   0.090   1.357   7.137
 1320SOL     OW16021   0.248   1.661   6.579
 1320SOL    HW116022   0.190   1.581   6.593
 1320SOL    HW216023   0.272   1.668   6.482
 1321SOL     OW16024   0.994   0.182   6.434
 1321SOL    HW116025   1.090   0.183   6.462
 1321SOL    HW216026   0.939   0.139   6.506
 1322SOL     OW16027   1.056   1.188   5.950
 1322SOL    HW116028   1.136   1.224   5.998
 1322SOL    HW216029   1.014   1.115   6.006
 1323SOL     OW16030   1.647   0.455   6.314
 1323SOL    HW116031   1.666   0.541   6.361
 1323SOL    HW216032   1.715   0.386   6.342
 1324SOL     OW16033   0.790   1.127   5.800
 1324SOL    HW116034   0.862   1.186   5.765
 1324SOL    HW216035   0.830   1.043   5.836
 1325SOL     OW16036   0.861   0.103   5.652
 1325SOL    HW116037   0.936   0.037   5.664
 1325SOL    HW216038   0.892   0.194   5.680
 1326SOL     OW16039   0.540   0.532   6.264
 1326SOL    HW116040   0.578   0.443   6.290
 1326SOL    HW216041   0.607   0.582   6.209
 1327SOL     OW16042   0.528   1.090   6.918
 1327SOL    HW116043   0.624   1.070   6.938
 1327SOL    HW216044   0.517   1.188   6.900
 1328SOL     OW16045   1.750   1.133   6.887
 1328SOL    HW116046   1.764   1.231   6.901
 1328SOL    HW216047   1.807   1.102   6.811
 1329SOL     OW16048   0.233   1.242   5.579
 1329SOL    HW116049   0.225   1.254   5.480
 1329SOL    HW216050   0.292   1.313   5.617
 1330SOL     OW16051   0.660   1.681   5.739
 1330SOL    HW116052   0.635   1.776   5.723
 1330SOL    HW216053   0.627   1.653   5.829
 1331SOL     OW16054   1.310   1.104   6.963
 1331SOL    HW116055   1.254   1.063   7.034
 1331SOL    HW216056   1.290   1.202   6.957
 1332SOL     OW16057   0.577   1.720   6.963
 1332SOL    HW116058   0.626   1.800   6.927
 1332SOL    HW216059   0.485   1.718   6.924
 1333SOL     OW16060   0.220   0.601   7.325
 1333SOL    HW116061   0.237   0.502   7.330
 1333SOL    HW216062   0.284   0.649   7.386
 1334SOL     OW16063   1.659   1.562   6.564
 1334SOL    HW116064   1.631   1.655   6.588
 1334SOL    HW216065   1.709   1.521   6.640
 1335SOL     OW16066   0.055   0.935   6.125
 1335SOL    HW116067   0.062   1.034   6.112
 1335SOL    HW216068  -0.036   0.912   6.159
 1336SOL     OW16069   0.564   0.733   7.063
 1336SOL    HW116070   0.470   0.703   7.044
 1336SOL    HW216071   0.573   0.830   7.040
 1337SOL     OW16072   1.631   1.109   6.375
 1337SOL    HW116073   1.593   1.198   6.348
 1337SOL    HW216074   1.631   1.047   6.297
 1338SOL     OW16075   0.789   0.515   6.544
 1338SOL    HW116076   0.881   0.543   6.571
 1338SOL    HW216077   0.721   0.566   6.598
 1339SOL     OW16078   0.642   1.366   6.771
 1339SOL    HW116079   0.555   1.365   6.722
 1339SOL    HW216080   0.708   1.306   6.724
 1340SOL     OW16081   0.208   0.708   6.685
 1340SOL    HW116082   0.246   0.767   6.756
 1340SOL    HW216083   0.191   0.761   6.603
 1341SOL     OW16084   0.379   1.354   6.983
 1341SOL    HW116085   0.398   1.442   7.027
 1341SOL    HW216086   0.284   1.328   7.001
 1342SOL     OW16087   1.622   1.670   7.331
 1342SOL    HW116088   1.591   1.592   7.276
 1342SOL    HW216089   1.591   1.755   7.289
 1343SOL     OW16090   1.330   1.208   6.052
 1343SOL    HW116091   1.429   1.212   6.068
 1343SOL    HW216092   1.313   1.194   5.954
 1344SOL     OW16093   0.683   0.374   6.000
 1344SOL    HW116094   0.585   0.368   5.980
 1344SOL    HW216095   0.702   0.331   6.088
 1345SOL     OW16096   1.603   0.057   6.259
 1345SOL    HW116097   1.598   0.098   6.168
 1345SOL    HW216098   1.684   0.091   6.306
 1346SOL     OW16099   1.206   0.813   6.952
 1346SOL    HW116100   1.305   0.822   6.942
 1346SOL    HW216101   1.162   0.815   6.862
 1347SOL     OW16102   0.700   0.773   6.354
 1347SOL    HW116103   0.722   0.695   6.412
 1347SOL    HW216104   0.709   0.747   6.258
 1348SOL     OW16105   1.365   1.480   6.566
 1348SOL    HW116106   1.279   1.437   6.595
 1348SOL    HW216107   1.354   1.520   6.475
 1349SOL     OW16108   1.368   0.465   6.241
 1349SOL    HW116109   1.367   0.457   6.142
 1349SOL    HW216110   1.457   0.437   6.276
 1350SOL     OW16111   1.095   1.481   8.074
 1350SOL    HW116112   1.186   1.515   8.097
 1350SOL    HW216113   1.067   1.519   7.986
 1351SOL     OW16114   1.606   1.277   7.932
 1351SOL    HW116115   1.617   1.361   7.986
 1351SOL    HW216116   1.696   1.240   7.909
 1352SOL     OW16117   1.686   0.559   8.796
 1352SOL    HW116118   1.588   0.551   8.818
 1352SOL    HW216119   1.739   0.548   8.880
 1353SOL     OW16120   0.353   0.196   7.401
 1353SOL    HW116121   0.266   0.193   7.352
 1353SOL    HW216122   0.404   0.278   7.373
 1354SOL     OW16123   1.340   1.585   8.176
 1354SOL    HW116124   1.329   1.682   8.199
 1354SOL    HW216125   1.433   1.568   8.146
 1355SOL     OW16126   1.218   0.096   8.734
 1355SOL    HW116127   1.142   0.051   8.781
 1355SOL    HW216128   1.247   0.041   8.656
 1356SOL     OW16129   0.956   0.876   9.111
 1356SOL    HW116130   0.921   0.851   9.021
 1356SOL    HW216131   0.880   0.897   9.172
 1357SOL     OW16132   0.563   1.550   7.805
 1357SOL    HW116133   0.519   1.559   7.894
 1357SOL    HW216134   0.634   1.480   7.809
 1358SOL     OW16135   0.581   0.083   7.527
 1358SOL    HW116136   0.669   0.111   7.488
 1358SOL    HW216137   0.509   0.146   7.497
 1359SOL     OW16138   1.551   1.068   8.910
 1359SOL    HW116139   1.459   1.073   8.872
 1359SOL    HW216140   1.616   1.106   8.844
 1360SOL     OW16141   1.451   1.075   8.591
 1360SOL    HW116142   1.376   1.064   8.656
 1360SOL    HW216143   1.488   1.168   8.597
 1361SOL     OW16144   0.947   1.330   8.891
 1361SOL    HW116145   0.890   1.393   8.837
 1361SOL    HW216146   0.980   1.256   8.832
 1362SOL     OW16147   0.490   1.223   8.100
 1362SOL    HW116148   0.423   1.177   8.159
 1362SOL    HW216149   0.582   1.191   8.123
 1363SOL     OW16150   0.717   0.629   7.931
 1363SOL    HW116151   0.756   0.699   7.872
 1363SOL    HW216152   0.691   0.549   7.877
 1364SOL     OW16153   1.337   0.537   9.140
 1364SOL    HW116154   1.433   0.541   9.166
 1364SOL    HW216155   1.293   0.461   9.187
 1365SOL     OW16156   0.420   1.392   7.584
 1365SOL    HW116157   0.484   1.408   7.509
 1365SOL    HW216158   0.444   1.450   7.662
 1366SOL     OW16159   0.571   0.348   8.394
 1366SOL    HW116160   0.647   0.413   8.390
 1366SOL    HW216161   0.601   0.259   8.361
 1367SOL     OW16162   0.268   0.774   7.812
 1367SOL    HW116163   0.283   0.708   7.886
 1367SOL    HW216164   0.218   0.853   7.847
 1368SOL     OW16165   0.854   1.719   7.989
 1368SOL    HW116166   0.919   1.652   7.953
 1368SOL    HW216167   0.844   1.795   7.925
 1369SOL     OW16168   1.746   1.601   7.731
 1369SOL    HW116169   1.842   1.575   7.724
 1369SOL    HW216170   1.722   1.661   7.655
 1370SOL     OW16171   1.658   0.294   8.502
 1370SOL    HW116172   1.709   0.366   8.455
 1370SOL    HW216173   1.563   0.321   8.511
 1371SOL     OW16174   1.058   0.323   7.771
 1371SOL    HW116175   1.083   0.417   7.792
 1371SOL    HW216176   1.059   0.269   7.855
 1372SOL     OW16177   0.182   1.036   8.956
 1372SOL    HW116178   0.278   1.051   8.974
 1372SOL    HW216179   0.144   0.974   9.025
 1373SOL     OW16180   0.508   0.681   7.499
 1373SOL    HW116181   0.468   0.760   7.452
 1373SOL    HW216182   0.597   0.660   7.459
 1374SOL     OW16183   0.681   1.605   8.197
 1374SOL    HW116184   0.754   1.628   8.133
 1374SOL    HW216185   0.610   1.552   8.151
 1375SOL     OW16186   1.023   0.637   8.951
 1375SOL    HW116187   1.056   0.554   8.998
 1375SOL    HW216188   1.096   0.705   8.950
 1376SOL     OW16189   1.627   1.437   8.173
 1376SOL    HW116190   1.623   1.472   8.266
 1376SOL    HW216191   1.686   1.496   8.117
 1377SOL     OW16192   0.358   1.258   7.849
 1377SOL    HW116193   0.404   1.232   7.934
 1377SOL    HW216194   0.378   1.190   7.778
 1378SOL     OW16195   1.216   0.313   7.560
 1378SOL    HW116196   1.310   0.283   7.578
 1378SOL    HW216197   1.164   0.313   7.646
 1379SOL     OW16198   0.368   0.518   8.655
 1379SOL    HW116199   0.358   0.431   8.607
 1379SOL    HW216200   0.304   0.585   8.618
 1380SOL     OW16201   1.450   0.798   8.693
 1380SOL    HW116202   1.454   0.892   8.658
 1380SOL    HW216203   1.543   0.767   8.715
 1381SOL     OW16204   0.403   0.290   7.814
 1381SOL    HW116205   0.357   0.330   7.893
 1381SOL    HW216206   0.351   0.309   7.732
 1382SOL     OW16207   1.531   1.817   8.726
 1382SOL    HW116208   1.474   1.768   8.660
 1382SOL    HW216209   1.617   1.844   8.683
 1383SOL     OW16210   1.826   0.535   8.581
 1383SOL    HW116211   1.883   0.617   8.583
 1383SOL    HW216212   1.767   0.534   8.661
 1384SOL     OW16213   1.843   1.761   8.494
 1384SOL    HW116214   1.889   1.771   8.582
 1384SOL    HW216215   1.910   1.764   8.421
 1385SOL     OW16216   0.956   0.501   8.056
 1385SOL    HW116217   1.032   0.529   8.115
 1385SOL    HW216218   0.912   0.581   8.017
 1386SOL     OW16219   1.191   0.965   7.573
 1386SOL    HW116220   1.228   0.915   7.651
 1386SOL    HW216221   1.121   0.910   7.528
 1387SOL     OW16222   1.033   0.387   9.194
 1387SOL    HW116223   1.096   0.392   9.271
 1387SOL    HW216224   0.941   0.365   9.227
 1388SOL     OW16225   1.774   0.634   7.652
 1388SOL    HW116226   1.795   0.553   7.598
 1388SOL    HW216227   1.791   0.615   7.749
 1389SOL     OW16228   1.068   1.772   7.560
 1389SOL    HW116229   1.102   1.685   7.525
 1389SOL    HW216230   1.036   1.760   7.654
 1390SOL     OW16231   0.749   0.039   9.092
 1390SOL    HW116232   0.756  -0.055   9.059
 1390SOL    HW216233   0.806   0.049   9.174
 1391SOL     OW16234   1.672   0.640   8.360
 1391SOL    HW116235   1.657   0.731   8.397
 1391SOL    HW216236   1.742   0.593   8.414
 1392SOL     OW16237   1.082   1.306   9.126
 1392SOL    HW116238   1.104   1.216   9.088
 1392SOL    HW216239   1.017   1.353   9.067
 1393SOL     OW16240   0.737   1.148   9.130
 1393SOL    HW116241   0.708   1.225   9.187
 1393SOL    HW216242   0.747   1.067   9.188
 1394SOL     OW16243   1.372   0.012   8.236
 1394SOL    HW116244   1.321   0.096   8.218
 1394SOL    HW216245   1.458   0.014   8.185
 1395SOL     OW16246   1.727   0.218   9.165
 1395SOL    HW116247   1.704   0.239   9.260
 1395SOL    HW216248   1.703   0.123   9.145
 1396SOL     OW16249   0.030   0.622   7.909
 1396SOL    HW116250   0.032   0.573   7.996
 1396SOL    HW216251   0.032   0.721   7.927
 1397SOL     OW16252   0.351   0.210   8.230
 1397SOL    HW116253   0.403   0.250   8.305
 1397SOL    HW216254   0.404   0.137   8.187
 1398SOL     OW16255   0.335   0.258   8.564
 1398SOL    HW116256   0.300   0.165   8.564
 1398SOL    HW216257   0.422   0.261   8.515
 1399SOL     OW16258   1.002   0.880   8.304
 1399SOL    HW116259   1.028   0.960   8.250
 1399SOL    HW216260   0.996   0.800   8.244
 1400SOL     OW16261   0.203   1.507   7.763
 1400SOL    HW116262   0.230   1.413   7.783
 1400SOL    HW216263   0.228   1.529   7.669
 1401SOL     OW16264   1.485   1.376   8.637
 1401SOL    HW116265   1.456   1.413   8.548
 1401SOL    HW216266   1.407   1.376   8.699
 1402SOL     OW16267   0.217   1.650   8.000
 1402SOL    HW116268   0.133   1.701   8.018
 1402SOL    HW216269   0.208   1.599   7.915
 1403SOL     OW16270   1.738   1.447   8.675
 1403SOL    HW116271   1.769   1.461   8.769
 1403SOL    HW216272   1.639   1.434   8.674
 1404SOL     OW16273   0.490   0.947   7.402
 1404SOL    HW116274   0.459   0.981   7.314
 1404SOL    HW216275   0.494   1.022   7.468
 1405SOL     OW16276   1.007   1.134   8.701
 1405SOL    HW116277   1.057   1.049   8.685
 1405SOL    HW216278   0.961   1.161   8.616
 1406SOL     OW16279   0.094   0.839   7.575
 1406SOL    HW116280   0.154   0.786   7.635
 1406SOL    HW216281   0.000   0.807   7.587
 1407SOL     OW16282   1.614   0.837   7.775
 1407SOL    HW116283   1.682   0.771   7.742
 1407SOL    HW216284   1.629   0.925   7.731
 1408SOL     OW16285   0.862   1.824   8.423
 1408SOL    HW116286   0.908   1.757   8.365
 1408SOL    HW216287   0.788   1.780   8.473
 1409SOL     OW16288   0.769   0.893   7.459
 1409SOL    HW116289   0.798   0.812   7.510
 1409SOL    HW216290   0.669   0.892   7.450
 1410SOL     OW16291   1.365   0.425   7.805
 1410SOL    HW116292   1.302   0.483   7.753
 1410SOL    HW216293   1.458   0.459   7.793
 1411SOL     OW16294   0.262   0.626   8.905
 1411SOL    HW116295   0.282   0.531   8.880
 1411SOL    HW216296   0.225   0.629   8.998
 1412SOL     OW16297   0.144   0.281   8.795
 1412SOL    HW116298   0.216   0.291   8.726
 1412SOL    HW216299   0.055   0.280   8.750
 1413SOL     OW16300   1.042   0.902   8.560
 1413SOL    HW116301   1.036   0.888   8.461
 1413SOL    HW216302   0.961   0.863   8.604
 1414SOL     OW16303   1.633   0.436   7.875
 1414SOL    HW116304   1.729   0.407   7.872
 1414SOL    HW216305   1.594   0.414   7.964
 1415SOL     OW16306   0.917   1.511   8.312
 1415SOL    HW116307   0.975   1.522   8.231
 1415SOL    HW216308   0.823   1.535   8.290
 1416SOL     OW16309   0.867   0.377   7.597
 1416SOL    HW116310   0.776   0.390   7.635
 1416SOL    HW216311   0.927   0.337   7.667
 1417SOL     OW16312   0.978   1.322   7.532
 1417SOL    HW116313   1.031   1.262   7.592
 1417SOL    HW216314   1.017   1.323   7.441
 1418SOL     OW16315   1.729   1.617   8.017
 1418SOL    HW116316   1.696   1.710   8.036
 1418SOL    HW216317   1.727   1.601   7.918
 1419SOL     OW16318   1.144   0.890   8.006
 1419SOL    HW116319   1.209   0.918   8.077
 1419SOL    HW216320   1.065   0.951   8.008
 1420SOL     OW16321   0.892   1.616   9.030
 1420SOL    HW116322   0.880   1.547   8.959
 1420SOL    HW216323   0.855   1.581   9.117
 1421SOL     OW16324   1.336   0.930   8.209
 1421SOL    HW116325   1.357   0.872   8.287
 1421SOL    HW216326   1.345   1.026   8.235
 1422SOL     OW16327   0.292   1.059   8.255
 1422SOL    HW116328   0.215   1.121   8.248
 1422SOL    HW216329   0.329   1.060   8.348
 1423SOL     OW16330   0.925   1.007   7.954
 1423SOL    HW116331   0.912   0.918   7.911
 1423SOL    HW216332   0.856   1.021   8.025
 1424SOL     OW16333   1.229   1.395   8.793
 1424SOL    HW116334   1.262   1.480   8.834
 1424SOL    HW216335   1.130   1.391   8.800
 1425SOL     OW16336   0.036   0.312   7.857
 1425SOL    HW116337   0.096   0.263   7.795
 1425SOL    HW216338   0.091   0.364   7.922
 1426SOL     OW16339   1.659   1.810   7.548
 1426SOL    HW116340   1.749   1.854   7.550
 1426SOL    HW216341   1.658   1.741   7.476
 1427SOL     OW16342   0.823   0.777   8.706
 1427SOL    HW116343   0.825   0.863   8.757
 1427SOL    HW216344   0.880   0.709   8.753
 1428SOL     OW16345   0.060   1.804   8.777
 1428SOL    HW116346   0.068   1.904   8.775
 1428SOL    HW216347   0.036   1.775   8.870
 1429SOL     OW16348   0.841   0.823   7.771
 1429SOL    HW116349   0.752   0.851   7.736
 1429SOL    HW216350   0.882   0.757   7.707
 1430SOL     OW16351   0.363   0.541   8.310
 1430SOL    HW116352   0.419   0.534   8.227
 1430SOL    HW216353   0.420   0.519   8.390
 1431SOL     OW16354   0.360   1.739   7.581
 1431SOL    HW116355   0.452   1.769   7.556
 1431SOL    HW216356   0.335   1.778   7.670
 1432SOL     OW16357   1.336   1.761   8.518
 1432SOL    HW116358   1.355   1.824   8.444
 1432SOL    HW216359   1.344   1.667   8.485
 1433SOL     OW16360   0.041   1.156   8.330
 1433SOL    HW116361  -0.049   1.172   8.291
 1433SOL    HW216362   0.039   1.072   8.385
 1434SOL     OW16363   0.792   0.061   7.780
 1434SOL    HW116364   0.753   0.050   7.689
 1434SOL    HW216365   0.748   0.137   7.827
 1435SOL     OW16366   0.037   1.197   7.874
 1435SOL    HW116367   0.115   1.255   7.898
 1435SOL    HW216368   0.056   1.148   7.789
 1436SOL     OW16369   1.567   0.325   8.958
 1436SOL    HW116370   1.506   0.403   8.955
 1436SOL    HW216371   1.622   0.329   9.041
 1437SOL     OW16372   1.283   0.271   8.249
 1437SOL    HW116373   1.282   0.349   8.186
 1437SOL    HW216374   1.326   0.298   8.335
 1438SOL     OW16375   1.403   0.077   7.545
 1438SOL    HW116376   1.483   0.017   7.542
 1438SOL    HW216377   1.329   0.030   7.593
 1439SOL     OW16378   1.616   0.049   8.979
 1439SOL    HW116379   1.642   0.006   8.893
 1439SOL    HW216380   1.566   0.133   8.961
 1440SOL     OW16381   0.718   0.308   8.111
 1440SOL    HW116382   0.707   0.250   8.192
 1440SOL    HW216383   0.803   0.360   8.119
 1441SOL     OW16384   1.298   0.659   8.503
 1441SOL    HW116385   1.352   0.699   8.429
 1441SOL    HW216386   1.336   0.688   8.591
 1442SOL     OW16387   1.591   0.065   7.819
 1442SOL    HW116388   1.598   0.019   7.731
 1442SOL    HW216389   1.495   0.075   7.844
 1443SOL     OW16390   0.567   1.380   9.182
 1443SOL    HW116391   0.528   1.443   9.115
 1443SOL    HW216392   0.650   1.420   9.222
 1444SOL     OW16393   0.443   1.112   9.014
 1444SOL    HW116394   0.462   1.136   8.919
 1444SOL    HW216395   0.436   1.195   9.069
 1445SOL     OW16396   0.104   1.402   8.488
 1445SOL    HW116397   0.073   1.328   8.429
 1445SOL    HW216398   0.036   1.420   8.559
 1446SOL     OW16399   1.190   0.603   8.221
 1446SOL    HW116400   1.272   0.580   8.169
 1446SOL    HW216401   1.185   0.544   8.302
 1447SOL     OW16402   1.790   0.630   9.057
 1447SOL    HW116403   1.779   0.716   9.006
 1447SOL    HW216404   1.884   0.621   9.087
 1448SOL     OW16405   1.361   0.403   8.476
 1448SOL    HW116406   1.335   0.500   8.482
 1448SOL    HW216407   1.361   0.363   8.568
 1449SOL     OW16408   1.591   0.535   9.227
 1449SOL    HW116409   1.671   0.560   9.171
 1449SOL    HW216410   1.622   0.500   9.315
 1450SOL     OW16411   1.302   0.838   7.807
 1450SOL    HW116412   1.248   0.836   7.891
 1450SOL    HW216413   1.379   0.901   7.818
 1451SOL     OW16414   1.599   0.934   8.027
 1451SOL    HW116415   1.613   0.897   7.934
 1451SOL    HW216416   1.510   0.904   8.061
 1452SOL     OW16417   1.755   0.871   8.922
 1452SOL    HW116418   1.657   0.892   8.924
 1452SOL    HW216419   1.804   0.947   8.881
 1453SOL     OW16420   1.609   0.291   7.601
 1453SOL    HW116421   1.614   0.333   7.692
 1453SOL    HW216422   1.542   0.216   7.603
 1454SOL     OW16423   0.756   1.506   8.821
 1454SOL    HW116424   0.693   1.584   8.828
 1454SOL    HW216425   0.724   1.444   8.749
 1455SOL     OW16426   0.147   0.301   9.086
 1455SOL    HW116427   0.165   0.290   8.988
 1455SOL    HW216428   0.049   0.297   9.103
 1456SOL     OW16429   0.027   1.715   9.030
 1456SOL    HW116430   0.099   1.701   9.098
 1456SOL    HW216431  -0.062   1.718   9.075
 1457SOL     OW16432   0.195   0.371   8.054
 1457SOL    HW116433   0.138   0.426   8.115
 1457SOL    HW216434   0.265   0.323   8.107
 1458SOL     OW16435   1.367   1.603   8.917
 1458SOL    HW116436   1.320   1.671   8.972
 1458SOL    HW216437   1.434   1.649   8.858
 1459SOL     OW16438   0.332   0.562   7.652
 1459SOL    HW116439   0.404   0.591   7.589
 1459SOL    HW216440   0.288   0.642   7.692
 1460SOL     OW16441   1.718   0.224   8.755
 1460SOL    HW116442   1.674   0.272   8.831
 1460SOL    HW216443   1.696   0.270   8.669
 1461SOL     OW16444   0.447   1.825   8.118
 1461SOL    HW116445   0.371   1.791   8.063
 1461SOL    HW216446   0.533   1.788   8.083
 1462SOL     OW16447   0.372   1.334   8.563
 1462SOL    HW116448   0.384   1.350   8.660
 1462SOL    HW216449   0.285   1.374   8.533
 1463SOL     OW16450   1.256   1.538   9.209
 1463SOL    HW116451   1.215   1.453   9.175
 1463SOL    HW216452   1.236   1.612   9.145
 1464SOL     OW16453   0.746   1.258   7.899
 1464SOL    HW116454   0.789   1.189   7.841
 1464SOL    HW216455   0.710   1.215   7.982
 1465SOL     OW16456   0.378   0.809   8.101
 1465SOL    HW116457   0.370   0.907   8.119
 1465SOL    HW216458   0.462   0.775   8.142
 1466SOL     OW16459   0.224   0.289   7.616
 1466SOL    HW116460   0.268   0.258   7.533
 1466SOL    HW216461   0.225   0.389   7.620
 1467SOL     OW16462   0.077   0.541   8.227
 1467SOL    HW116463   0.041   0.634   8.219
 1467SOL    HW216464   0.160   0.542   8.283
 1468SOL     OW16465   0.512   1.128   7.613
 1468SOL    HW116466   0.612   1.128   7.624
 1468SOL    HW216467   0.481   1.221   7.592
 1469SOL     OW16468   1.138   0.720   7.429
 1469SOL    HW116469   1.069   0.777   7.385
 1469SOL    HW216470   1.219   0.714   7.370
 1470SOL     OW16471   0.873   0.639   7.572
 1470SOL    HW116472   0.963   0.640   7.527
 1470SOL    HW216473   0.850   0.545   7.597
 1471SOL     OW16474   1.324   0.156   7.866
 1471SOL    HW116475   1.234   0.140   7.907
 1471SOL    HW216476   1.332   0.252   7.840
 1472SOL     OW16477   1.438   0.556   8.882
 1472SOL    HW116478   1.390   0.579   8.966
 1472SOL    HW216479   1.372   0.526   8.813
 1473SOL     OW16480   0.073   0.071   7.526
 1473SOL    HW116481   0.136  -0.006   7.534
 1473SOL    HW216482   0.093   0.139   7.597
 1474SOL     OW16483   0.346   1.046   8.527
 1474SOL    HW116484   0.357   1.001   8.616
 1474SOL    HW216485   0.373   1.142   8.534
 1475SOL     OW16486   1.645   1.058   7.627
 1475SOL    HW116487   1.716   1.128   7.629
 1475SOL    HW216488   1.632   1.028   7.532
 1476SOL     OW16489   0.627   0.659   8.549
 1476SOL    HW116490   0.702   0.702   8.598
 1476SOL    HW216491   0.560   0.624   8.615
 1477SOL     OW16492   0.770   1.028   8.866
 1477SOL    HW116493   0.839   1.080   8.816
 1477SOL    HW216494   0.765   1.061   8.961
 1478SOL     OW16495   1.162   1.049   9.026
 1478SOL    HW116496   1.084   0.995   9.059
 1478SOL    HW216497   1.243   1.027   9.081
 1479SOL     OW16498   1.091   0.231   8.022
 1479SOL    HW116499   1.150   0.291   8.077
 1479SOL    HW216500   1.018   0.195   8.079
 1480SOL     OW16501   1.201   1.763   9.062
 1480SOL    HW116502   1.106   1.761   9.030
 1480SOL    HW216503   1.222   1.854   9.099
 1481SOL     OW16504   0.619   0.108   8.293
 1481SOL    HW116505   0.547   0.041   8.279
 1481SOL    HW216506   0.701   0.062   8.328
 1482SOL     OW16507   0.319   1.773   8.660
 1482SOL    HW116508   0.299   1.755   8.564
 1482SOL    HW216509   0.246   1.735   8.717
 1483SOL     OW16510   1.012   1.237   8.205
 1483SOL    HW116511   1.051   1.280   8.124
 1483SOL    HW216512   1.085   1.220   8.272
 1484SOL     OW16513   0.706   0.965   8.407
 1484SOL    HW116514   0.704   0.881   8.352
 1484SOL    HW216515   0.655   0.951   8.492
 1485SOL     OW16516   0.045   0.975   8.533
 1485SOL    HW116517   0.134   0.953   8.573
 1485SOL    HW216518  -0.010   0.891   8.529
 1486SOL     OW16519   0.273   0.020   7.813
 1486SOL    HW116520   0.311   0.108   7.840
 1486SOL    HW216521   0.196  -0.004   7.873
 1487SOL     OW16522   0.689   0.637   9.141
 1487SOL    HW116523   0.641   0.688   9.070
 1487SOL    HW216524   0.782   0.616   9.111
 1488SOL     OW16525   0.095   1.107   7.633
 1488SOL    HW116526   0.085   1.010   7.612
 1488SOL    HW216527   0.148   1.152   7.561
 1489SOL     OW16528   1.792   0.219   8.234
 1489SOL    HW116529   1.747   0.201   8.321
 1489SOL    HW216530   1.890   0.236   8.250
 1490SOL     OW16531   0.840   1.195   8.486
 1490SOL    HW116532   0.791   1.110   8.467
 1490SOL    HW216533   0.910   1.210   8.417
 1491SOL     OW16534   1.178   0.618   7.695
 1491SOL    HW116535   1.230   0.690   7.741
 1491SOL    HW216536   1.191   0.625   7.597
 1492SOL     OW16537   1.539   1.433   9.022
 1492SOL    HW116538   1.524   1.335   9.036
 1492SOL    HW216539   1.456   1.475   8.986
 1493SOL     OW16540   0.296   0.875   8.762
 1493SOL    HW116541   0.260   0.785   8.788
 1493SOL    HW216542   0.257   0.945   8.822
 1494SOL     OW16543   0.798   1.501   7.420
 1494SOL    HW116544   0.773   1.578   7.479
 1494SOL    HW216545   0.862   1.441   7.468
 1495SOL     OW16546   0.616   1.708   8.454
 1495SOL    HW116547   0.636   1.678   8.361
 1495SOL    HW216548   0.541   1.653   8.491
 1496SOL     OW16549   0.759   1.119   8.171
 1496SOL    HW116550   0.848   1.165   8.171
 1496SOL    HW216551   0.752   1.059   8.250
 1497SOL     OW16552   0.937   1.466   7.840
 1497SOL    HW116553   0.987   1.454   7.755
 1497SOL    HW216554   0.883   1.383   7.859
 1498SOL     OW16555   0.127   0.813   8.240
 1498SOL    HW116556   0.222   0.804   8.208
 1498SOL    HW216557   0.093   0.905   8.219
 1499SOL     OW16558   0.064   0.930   9.167
 1499SOL    HW116559  -0.021   0.881   9.148
 1499SOL    HW216560   0.091   0.917   9.262
 1500SOL     OW16561   0.961   1.839   8.873
 1500SOL    HW116562   0.933   1.752   8.914
 1500SOL    HW216563   0.905   1.913   8.910
 1501SOL     OW16564   1.190   1.186   8.403
 1501SOL    HW116565   1.174   1.280   8.434
 1501SOL    HW216566   1.193   1.125   8.483
 1502SOL     OW16567   0.464   0.457   9.167
 1502SOL    HW116568   0.500   0.404   9.090
 1502SOL    HW216569   0.525   0.534   9.185
 1503SOL     OW16570   0.528   0.874   7.739
 1503SOL    HW116571   0.478   0.939   7.683
 1503SOL    HW216572   0.470   0.795   7.758
 1504SOL     OW16573   1.609   0.905   8.437
 1504SOL    HW116574   1.628   0.944   8.346
 1504SOL    HW216575   1.563   0.974   8.493
 1505SOL     OW16576   1.301   0.348   8.733
 1505SOL    HW116577   1.372   0.320   8.797
 1505SOL    HW216578   1.248   0.268   8.705
 1506SOL     OW16579   0.002   0.047   7.934
 1506SOL    HW116580  -0.085   0.034   7.887
 1506SOL    HW216581   0.010   0.142   7.964
 1507SOL     OW16582   1.223   0.148   9.175
 1507SOL    HW116583   1.282   0.164   9.255
 1507SOL    HW216584   1.170   0.231   9.156
 1508SOL     OW16585   0.439   1.567   9.000
 1508SOL    HW116586   0.381   1.632   9.049
 1508SOL    HW216587   0.501   1.617   8.940
 1509SOL     OW16588   1.795   1.454   8.941
 1509SOL    HW116589   1.823   1.547   8.963
 1509SOL    HW216590   1.702   1.438   8.974
 1510SOL     OW16591   1.045   0.567   8.491
 1510SOL    HW116592   1.131   0.618   8.490
 1510SOL    HW216593   1.051   0.493   8.558
 1511SOL     OW16594   0.449   1.513   8.063
 1511SOL    HW116595   0.447   1.414   8.076
 1511SOL    HW216596   0.358   1.546   8.040
 1512SOL     OW16597   1.090   1.630   8.651
 1512SOL    HW116598   1.016   1.694   8.669
 1512SOL    HW216599   1.169   1.679   8.613
 1513SOL     OW16600   0.299   1.760   9.150
 1513SOL    HW116601   0.342   1.844   9.116
 1513SOL    HW216602   0.324   1.747   9.246
 1514SOL     OW16603   0.159   1.296   9.021
 1514SOL    HW116604   0.138   1.201   8.994
 1514SOL    HW216605   0.090   1.357   8.983
 1515SOL     OW16606   0.248   1.661   8.425
 1515SOL    HW116607   0.190   1.581   8.439
 1515SOL    HW216608   0.272   1.668   8.328
 1516SOL     OW16609   0.994   0.182   8.280
 1516SOL    HW116610   1.090   0.183   8.308
 1516SOL    HW216611   0.939   0.139   8.352
 1517SOL     OW16612   1.056   1.188   7.796
 1517SOL    HW116613   1.136   1.224   7.844
 1517SOL    HW216614   1.014   1.115   7.852
 1518SOL     OW16615   1.647   0.455   8.160
 1518SOL    HW116616   1.666   0.541   8.207
 1518SOL    HW216617   1.715   0.386   8.188
 1519SOL     OW16618   0.790   1.127   7.646
 1519SOL    HW116619   0.862   1.186   7.611
 1519SOL    HW216620   0.830   1.043   7.682
 1520SOL     OW16621   0.861   0.103   7.498
 1520SOL    HW116622   0.936   0.037   7.510
 1520SOL    HW216623   0.892   0.194   7.526
 1521SOL     OW16624   0.540   0.532   8.110
 1521SOL    HW116625   0.578   0.443   8.136
 1521SOL    HW216626   0.607   0.582   8.055
 1522SOL     OW16627   0.528   1.090   8.764
 1522SOL    HW116628   0.624   1.070   8.784
 1522SOL    HW216629   0.517   1.188   8.746
 1523SOL     OW16630   1.750   1.133   8.733
 1523SOL    HW116631   1.764   1.231   8.747
 1523SOL    HW216632   1.807   1.102   8.657
 1524SOL     OW16633   0.233   1.242   7.425
 1524SOL    HW116634   0.225   1.254   7.326
 1524SOL    HW216635   0.292   1.313   7.463
 1525SOL     OW16636   0.660   1.681   7.585
 1525SOL    HW116637   0.635   1.776   7.569
 1525SOL    HW216638   0.627   1.653   7.675
 1526SOL     OW16639   1.310   1.104   8.809
 1526SOL    HW116640   1.254   1.063   8.880
 1526SOL    HW216641   1.290   1.202   8.803
 1527SOL     OW16642   0.577   1.720   8.809
 1527SOL    HW116643   0.626   1.800   8.773
 1527SOL    HW216644   0.485   1.718   8.770
 1528SOL     OW16645   0.220   0.601   9.171
 1528SOL    HW116646   0.237   0.502   9.176
 1528SOL    HW216647   0.284   0.649   9.232
 1529SOL     OW16648   1.659   1.562   8.410
 1529SOL    HW116649   1.631   1.655   8.434
 1529SOL    HW216650   1.709   1.521   8.486
 1530SOL     OW16651   0.055   0.935   7.971
 1530SOL    HW116652   0.062   1.034   7.958
 1530SOL    HW216653  -0.036   0.912   8.005
 1531SOL     OW16654   0.564   0.733   8.909
 1531SOL    HW116655   0.470   0.703   8.890
 1531SOL    HW216656   0.573   0.830   8.886
 1532SOL     OW16657   1.631   1.109   8.221
 1532SOL    HW116658   1.593   1.198   8.194
 1532SOL    HW216659   1.631   1.047   8.143
 1533SOL     OW16660   0.789   0.515   8.390
 1533SOL    HW116661   0.881   0.543   8.417
 1533SOL    HW216662   0.721   0.566   8.444
 1534SOL     OW16663   0.642   1.366   8.617
 1534SOL    HW116664   0.555   1.365   8.568
 1534SOL    HW216665   0.708   1.306   8.570
 1535SOL     OW16666   0.208   0.708   8.531
 1535SOL    HW116667   0.246   0.767   8.602
 1535SOL    HW216668   0.191   0.761   8.449
 1536SOL     OW16669   0.379   1.354   8.829
 1536SOL    HW116670   0.398   1.442   8.873
 1536SOL    HW216671   0.284   1.328   8.847
 1537SOL     OW16672   1.622   1.670   9.177
 1537SOL    HW116673   1.591   1.592   9.122
 1537SOL    HW216674   1.591   1.755   9.135
 1538SOL     OW16675   1.330   1.208   7.898
 1538SOL    HW116676   1.429   1.212   7.914
 1538SOL    HW216677   1.313   1.194   7.800
 1539SOL     OW16678   0.683   0.374   7.846
 1539SOL    HW116679   0.585   0.368   7.826
 1539SOL    HW216680   0.702   0.331   7.934
 1540SOL     OW16681   1.603   0.057   8.105
 1540SOL    HW116682   1.598   0.098   8.014
 1540SOL    HW216683   1.684   0.091   8.152
 1541SOL     OW16684   1.206   0.813   8.798
 1541SOL    HW116685   1.305   0.822   8.788
 1541SOL    HW216686   1.162   0.815   8.708
 1542SOL     OW16687   0.700   0.773   8.200
 1542SOL    HW116688   0.722   0.695   8.258
 1542SOL    HW216689   0.709   0.747   8.104
 1543SOL     OW16690   1.365   1.480   8.412
 1543SOL    HW116691   1.279   1.437   8.441
 1543SOL    HW216692   1.354   1.520   8.321
 1544SOL     OW16693   1.368   0.465   8.087
 1544SOL    HW116694   1.367   0.457   7.988
 1544SOL    HW216695   1.457   0.437   8.122
 1545SOL     OW16696   1.095   1.481   9.919
 1545SOL    HW116697   1.186   1.515   9.942
 1545SOL    HW216698   1.067   1.519   9.831
 1546SOL     OW16699   1.606   1.277   9.777
 1546SOL    HW116700   1.617   1.361   9.831
 1546SOL    HW216701   1.696   1.240   9.754
 1547SOL     OW16702   0.353   0.196   9.246
 1547SOL    HW116703   0.266   0.193   9.197
 1547SOL    HW216704   0.404   0.278   9.218
 1548SOL     OW16705   0.563   1.550   9.650
 1548SOL    HW116706   0.519   1.559   9.739
 1548SOL    HW216707   0.634   1.480   9.654
 1549SOL     OW16708   0.581   0.083   9.372
 1549SOL    HW116709   0.669   0.111   9.333
 1549SOL    HW216710   0.509   0.146   9.342
 1550SOL     OW16711   0.490   1.223   9.945
 1550SOL    HW116712   0.423   1.177  10.004
 1550SOL    HW216713   0.582   1.191   9.968
 1551SOL     OW16714   0.717   0.629   9.776
 1551SOL    HW116715   0.756   0.699   9.717
 1551SOL    HW216716   0.691   0.549   9.722
 1552SOL     OW16717   0.420   1.392   9.429
 1552SOL    HW116718   0.484   1.408   9.354
 1552SOL    HW216719   0.444   1.450   9.507
 1553SOL     OW16720   0.268   0.774   9.657
 1553SOL    HW116721   0.283   0.708   9.731
 1553SOL    HW216722   0.218   0.853   9.692
 1554SOL     OW16723   0.854   1.719   9.834
 1554SOL    HW116724   0.919   1.652   9.798
 1554SOL    HW216725   0.844   1.795   9.770
 1555SOL     OW16726   1.746   1.601   9.576
 1555SOL    HW116727   1.842   1.575   9.569
 1555SOL    HW216728   1.722   1.661   9.500
 1556SOL     OW16729   1.058   0.323   9.616
 1556SOL    HW116730   1.083   0.417   9.637
 1556SOL    HW216731   1.059   0.269   9.700
 1557SOL     OW16732   0.508   0.681   9.344
 1557SOL    HW116733   0.468   0.760   9.297
 1557SOL    HW216734   0.597   0.660   9.304
 1558SOL     OW16735   1.627   1.437  10.018
 1558SOL    HW116736   1.623   1.472  10.111
 1558SOL    HW216737   1.686   1.496   9.962
 1559SOL     OW16738   0.358   1.258   9.694
 1559SOL    HW116739   0.404   1.232   9.779
 1559SOL    HW216740   0.378   1.190   9.623
 1560SOL     OW16741   1.216   0.313   9.405
 1560SOL    HW116742   1.310   0.283   9.423
 1560SOL    HW216743   1.164   0.313   9.491
 1561SOL     OW16744   0.403   0.290   9.659
 1561SOL    HW116745   0.357   0.330   9.738
 1561SOL    HW216746   0.351   0.309   9.577
 1562SOL     OW16747   1.843   1.761  10.339
 1562SOL    HW116748   1.889   1.771  10.427
 1562SOL    HW216749   1.910   1.764  10.266
 1563SOL     OW16750   0.956   0.501   9.901
 1563SOL    HW116751   1.032   0.529   9.960
 1563SOL    HW216752   0.912   0.581   9.862
 1564SOL     OW16753   1.191   0.965   9.418
 1564SOL    HW116754   1.228   0.915   9.496
 1564SOL    HW216755   1.121   0.910   9.373
 1565SOL     OW16756   1.774   0.634   9.497
 1565SOL    HW116757   1.795   0.553   9.443
 1565SOL    HW216758   1.791   0.615   9.594
 1566SOL     OW16759   1.068   1.772   9.405
 1566SOL    HW116760   1.102   1.685   9.370
 1566SOL    HW216761   1.036   1.760   9.499
 1567SOL     OW16762   0.030   0.622   9.754
 1567SOL    HW116763   0.032   0.573   9.841
 1567SOL    HW216764   0.032   0.721   9.772
 1568SOL     OW16765   0.203   1.507   9.608
 1568SOL    HW116766   0.230   1.413   9.628
 1568SOL    HW216767   0.228   1.529   9.514
 1569SOL     OW16768   0.217   1.650   9.845
 1569SOL    HW116769   0.133   1.701   9.863
 1569SOL    HW216770   0.208   1.599   9.760
 1570SOL     OW16771   0.490   0.947   9.247
 1570SOL    HW116772   0.459   0.981   9.159
 1570SOL    HW216773   0.494   1.022   9.313
 1571SOL     OW16774   0.094   0.839   9.420
 1571SOL    HW116775   0.154   0.786   9.480
 1571SOL    HW216776   0.000   0.807   9.432
 1572SOL     OW16777   1.614   0.837   9.620
 1572SOL    HW116778   1.682   0.771   9.587
 1572SOL    HW216779   1.629   0.925   9.576
 1573SOL     OW16780   0.769   0.893   9.304
 1573SOL    HW116781   0.798   0.812   9.355
 1573SOL    HW216782   0.669   0.892   9.295
 1574SOL     OW16783   1.365   0.425   9.650
 1574SOL    HW116784   1.302   0.483   9.598
 1574SOL    HW216785   1.458   0.459   9.638
 1575SOL     OW16786   1.633   0.436   9.720
 1575SOL    HW116787   1.729   0.407   9.717
 1575SOL    HW216788   1.594   0.414   9.809
 1576SOL     OW16789   0.867   0.377   9.442
 1576SOL    HW116790   0.776   0.390   9.480
 1576SOL    HW216791   0.927   0.337   9.512
 1577SOL     OW16792   0.978   1.322   9.377
 1577SOL    HW116793   1.031   1.262   9.437
 1577SOL    HW216794   1.017   1.323   9.286
 1578SOL     OW16795   1.729   1.617   9.862
 1578SOL    HW116796   1.696   1.710   9.881
 1578SOL    HW216797   1.727   1.601   9.763
 1579SOL     OW16798   1.144   0.890   9.851
 1579SOL    HW116799   1.209   0.918   9.922
 1579SOL    HW216800   1.065   0.951   9.853
 1580SOL     OW16801   1.336   0.930  10.054
 1580SOL    HW116802   1.357   0.872  10.132
 1580SOL    HW216803   1.345   1.026  10.080
 1581SOL     OW16804   0.925   1.007   9.799
 1581SOL    HW116805   0.912   0.918   9.756
 1581SOL    HW216806   0.856   1.021   9.870
 1582SOL     OW16807   0.036   0.312   9.702
 1582SOL    HW116808   0.096   0.263   9.640
 1582SOL    HW216809   0.091   0.364   9.767
 1583SOL     OW16810   1.659   1.810   9.393
 1583SOL    HW116811   1.749   1.854   9.395
 1583SOL    HW216812   1.658   1.741   9.321
 1584SOL     OW16813   0.841   0.823   9.616
 1584SOL    HW116814   0.752   0.851   9.581
 1584SOL    HW216815   0.882   0.757   9.552
 1585SOL     OW16816   0.360   1.739   9.426
 1585SOL    HW116817   0.452   1.769   9.401
 1585SOL    HW216818   0.335   1.778   9.515
 1586SOL     OW16819   0.792   0.061   9.625
 1586SOL    HW116820   0.753   0.050   9.534
 1586SOL    HW216821   0.748   0.137   9.672
 1587SOL     OW16822   0.037   1.197   9.719
 1587SOL    HW116823   0.115   1.255   9.743
 1587SOL    HW216824   0.056   1.148   9.634
 1588SOL     OW16825   1.403   0.077   9.390
 1588SOL    HW116826   1.483   0.017   9.387
 1588SOL    HW216827   1.329   0.030   9.438
 1589SOL     OW16828   0.718   0.308   9.956
 1589SOL    HW116829   0.707   0.250  10.037
 1589SOL    HW216830   0.803   0.360   9.964
 1590SOL     OW16831   1.591   0.065   9.664
 1590SOL    HW116832   1.598   0.019   9.576
 1590SOL    HW216833   1.495   0.075   9.689
 1591SOL     OW16834   1.302   0.838   9.652
 1591SOL    HW116835   1.248   0.836   9.736
 1591SOL    HW216836   1.379   0.901   9.663
 1592SOL     OW16837   1.599   0.934   9.872
 1592SOL    HW116838   1.613   0.897   9.779
 1592SOL    HW216839   1.510   0.904   9.906
 1593SOL     OW16840   1.609   0.291   9.446
 1593SOL    HW116841   1.614   0.333   9.537
 1593SOL    HW216842   1.542   0.216   9.448
 1594SOL     OW16843   0.332   0.562   9.497
 1594SOL    HW116844   0.404   0.591   9.434
 1594SOL    HW216845   0.288   0.642   9.537
 1595SOL     OW16846   0.447   1.825   9.963
 1595SOL    HW116847   0.371   1.791   9.908
 1595SOL    HW216848   0.533   1.788   9.928
 1596SOL     OW16849   0.746   1.258   9.744
 1596SOL    HW116850   0.789   1.189   9.686
 1596SOL    HW216851   0.710   1.215   9.827
 1597SOL     OW16852   0.224   0.289   9.461
 1597SOL    HW116853   0.268   0.258   9.378
 1597SOL    HW216854   0.225   0.389   9.465
 1598SOL     OW16855   0.077   0.541  10.072
 1598SOL    HW116856   0.041   0.634  10.064
 1598SOL    HW216857   0.160   0.542  10.128
 1599SOL     OW16858   0.512   1.128   9.458
 1599SOL    HW116859   0.612   1.128   9.469
 1599SOL    HW216860   0.481   1.221   9.437
 1600SOL     OW16861   1.138   0.720   9.274
 1600SOL    HW116862   1.069   0.777   9.230
 1600SOL    HW216863   1.219   0.714   9.215
 1601SOL     OW16864   0.873   0.639   9.417
 1601SOL    HW116865   0.963   0.640   9.372
 1601SOL    HW216866   0.850   0.545   9.442
 1602SOL     OW16867   1.324   0.156   9.711
 1602SOL    HW116868   1.234   0.140   9.752
 1602SOL    HW216869   1.332   0.252   9.685
 1603SOL     OW16870   0.073   0.071   9.371
 1603SOL    HW116871   0.136  -0.006   9.379
 1603SOL    HW216872   0.093   0.139   9.442
 1604SOL     OW16873   1.645   1.058   9.472
 1604SOL    HW116874   1.716   1.128   9.474
 1604SOL    HW216875   1.632   1.028   9.377
 1605SOL     OW16876   1.091   0.231   9.867
 1605SOL    HW116877   1.150   0.291   9.922
 1605SOL    HW216878   1.018   0.195   9.924
 1606SOL     OW16879   0.273   0.020   9.658
 1606SOL    HW116880   0.311   0.108   9.685
 1606SOL    HW216881   0.196  -0.004   9.718
 1607SOL     OW16882   0.095   1.107   9.478
 1607SOL    HW116883   0.085   1.010   9.457
 1607SOL    HW216884   0.148   1.152   9.406
 1608SOL     OW16885   1.792   0.219  10.079
 1608SOL    HW116886   1.747   0.201  10.166
 1608SOL    HW216887   1.890   0.236  10.095
 1609SOL     OW16888   1.178   0.618   9.540
 1609SOL    HW116889   1.230   0.690   9.586
 1609SOL    HW216890   1.191   0.625   9.442
 1610SOL     OW16891   0.798   1.501   9.265
 1610SOL    HW116892   0.773   1.578   9.324
 1610SOL    HW216893   0.862   1.441   9.313
 1611SOL     OW16894   0.759   1.119  10.016
 1611SOL    HW116895   0.848   1.165  10.016
 1611SOL    HW216896   0.752   1.059  10.095
 1612SOL     OW16897   0.937   1.466   9.685
 1612SOL    HW116898   0.987   1.454   9.600
 1612SOL    HW216899   0.883   1.383   9.704
 1613SOL     OW16900   0.528   0.874   9.584
 1613SOL    HW116901   0.478   0.939   9.528
 1613SOL    HW216902   0.470   0.795   9.603
 1614SOL     OW16903   0.002   0.047   9.779
 1614SOL    HW116904  -0.085   0.034   9.732
 1614SOL    HW216905   0.010   0.142   9.809
 1615SOL     OW16906   0.449   1.513   9.908
 1615SOL    HW116907   0.447   1.414   9.921
 1615SOL    HW216908   0.358   1.546   9.885
 1616SOL     OW16909   1.056   1.188   9.641
 1616SOL    HW116910   1.136   1.224   9.689
 1616SOL    HW216911   1.014   1.115   9.697
 1617SOL     OW16912   1.647   0.455  10.005
 1617SOL    HW116913   1.666   0.541  10.052
 1617SOL    HW216914   1.715   0.386  10.033
 1618SOL     OW16915   0.790   1.127   9.491
 1618SOL    HW116916   0.862   1.186   9.456
 1618SOL    HW216917   0.830   1.043   9.527
 1619SOL     OW16918   0.861   0.103   9.343
 1619SOL    HW116919   0.936   0.037   9.355
 1619SOL    HW216920   0.892   0.194   9.371
 1620SOL     OW16921   0.540   0.532   9.955
 1620SOL    HW116922   0.578   0.443   9.981
 1620SOL    HW216923   0.607   0.582   9.900
 1621SOL     OW16924   0.233   1.242   9.270
 1621SOL    HW116925   0.225   1.254   9.171
 1621SOL    HW216926   0.292   1.313   9.308
 1622SOL     OW16927   0.660   1.681   9.430
 1622SOL    HW116928   0.635   1.776   9.414
 1622SOL    HW216929   0.627   1.653   9.520
 1623SOL     OW16930   0.055   0.935   9.816
 1623SOL    HW116931   0.062   1.034   9.803
 1623SOL    HW216932  -0.036   0.912   9.850
 1624SOL     OW16933   1.330   1.208   9.743
 1624SOL    HW116934   1.429   1.212   9.759
 1624SOL    HW216935   1.313   1.194   9.645
 1625SOL     OW16936   0.683   0.374   9.691
 1625SOL    HW116937   0.585   0.368   9.671
 1625SOL    HW216938   0.702   0.331   9.779
 1626SOL     OW16939   1.603   0.057   9.950
 1626SOL    HW116940   1.598   0.098   9.859
 1626SOL    HW216941   1.684   0.091   9.997
 1627SOL     OW16942   1.368   0.465   9.932
 1627SOL    HW116943   1.367   0.457   9.833
 1627SOL    HW216944   1.457   0.437   9.967
 1628SOL     OW16945   1.095   3.326   0.692
 1628SOL    HW116946   1.186   3.360   0.715
 1628SOL    HW216947   1.067   3.364   0.604
 1629SOL     OW16948   1.606   3.122   0.550
 1629SOL    HW116949   1.617   3.206   0.604
 1629SOL    HW216950   1.696   3.085   0.527
 1630SOL     OW16951   0.353   2.041   0.019
 1630SOL    HW116952   0.266   2.038  -0.030
 1630SOL    HW216953   0.404   2.123  -0.009
 1631SOL     OW16954   1.340   3.430   0.794
 1631SOL    HW116955   1.329   3.527   0.817
 1631SOL    HW216956   1.433   3.413   0.764
 1632SOL     OW16957   1.218   1.941   1.352
 1632SOL    HW116958   1.142   1.896   1.399
 1632SOL    HW216959   1.247   1.886   1.274
 1633SOL     OW16960   0.563   3.395   0.423
 1633SOL    HW116961   0.519   3.404   0.512
 1633SOL    HW216962   0.634   3.325   0.427
 1634SOL     OW16963   0.581   1.928   0.145
 1634SOL    HW116964   0.669   1.956   0.106
 1634SOL    HW216965   0.509   1.991   0.115
 1635SOL     OW16966   0.947   3.175   1.509
 1635SOL    HW116967   0.890   3.238   1.455
 1635SOL    HW216968   0.980   3.101   1.450
 1636SOL     OW16969   0.717   2.474   0.549
 1636SOL    HW116970   0.756   2.544   0.490
 1636SOL    HW216971   0.691   2.394   0.495
 1637SOL     OW16972   0.420   3.237   0.202
 1637SOL    HW116973   0.484   3.253   0.127
 1637SOL    HW216974   0.444   3.295   0.280
 1638SOL     OW16975   0.571   2.193   1.012
 1638SOL    HW116976   0.647   2.258   1.008
 1638SOL    HW216977   0.601   2.104   0.979
 1639SOL     OW16978   0.854   3.564   0.607
 1639SOL    HW116979   0.919   3.497   0.571
 1639SOL    HW216980   0.844   3.640   0.543
 1640SOL     OW16981   1.746   3.446   0.349
 1640SOL    HW116982   1.842   3.420   0.342
 1640SOL    HW216983   1.722   3.506   0.273
 1641SOL     OW16984   1.058   2.168   0.389
 1641SOL    HW116985   1.083   2.262   0.410
 1641SOL    HW216986   1.059   2.114   0.473
 1642SOL     OW16987   0.182   2.881   1.574
 1642SOL    HW116988   0.278   2.896   1.592
 1642SOL    HW216989   0.144   2.819   1.643
 1643SOL     OW16990   0.508   2.526   0.117
 1643SOL    HW116991   0.468   2.605   0.070
 1643SOL    HW216992   0.597   2.505   0.077
 1644SOL     OW16993   0.681   3.450   0.815
 1644SOL    HW116994   0.754   3.473   0.751
 1644SOL    HW216995   0.610   3.397   0.769
 1645SOL     OW16996   1.216   2.158   0.178
 1645SOL    HW116997   1.310   2.128   0.196
 1645SOL    HW216998   1.164   2.158   0.264
 1646SOL     OW16999   0.368   2.363   1.273
 1646SOL    HW117000   0.358   2.276   1.225
 1646SOL    HW217001   0.304   2.430   1.236
 1647SOL     OW17002   0.403   2.135   0.432
 1647SOL    HW117003   0.357   2.175   0.511
 1647SOL    HW217004   0.351   2.154   0.350
 1648SOL     OW17005   1.531   3.662   1.344
 1648SOL    HW117006   1.474   3.613   1.278
 1648SOL    HW217007   1.617   3.689   1.301
 1649SOL     OW17008   1.826   2.380   1.199
 1649SOL    HW117009   1.883   2.462   1.201
 1649SOL    HW217010   1.767   2.379   1.279
 1650SOL     OW17011   1.843   3.606   1.112
 1650SOL    HW117012   1.889   3.616   1.200
 1650SOL    HW217013   1.910   3.609   1.039
 1651SOL     OW17014   0.956   2.346   0.674
 1651SOL    HW117015   1.032   2.374   0.733
 1651SOL    HW217016   0.912   2.426   0.635
 1652SOL     OW17017   1.191   2.810   0.191
 1652SOL    HW117018   1.228   2.760   0.269
 1652SOL    HW217019   1.121   2.755   0.146
 1653SOL     OW17020   1.033   2.232   1.812
 1653SOL    HW117021   1.096   2.237   1.889
 1653SOL    HW217022   0.941   2.210   1.845
 1654SOL     OW17023   1.774   2.479   0.270
 1654SOL    HW117024   1.795   2.398   0.216
 1654SOL    HW217025   1.791   2.460   0.367
 1655SOL     OW17026   1.068   3.617   0.178
 1655SOL    HW117027   1.102   3.530   0.143
 1655SOL    HW217028   1.036   3.605   0.272
 1656SOL     OW17029   0.749   1.884   1.710
 1656SOL    HW117030   0.756   1.790   1.677
 1656SOL    HW217031   0.806   1.894   1.792
 1657SOL     OW17032   1.672   2.485   0.978
 1657SOL    HW117033   1.657   2.576   1.015
 1657SOL    HW217034   1.742   2.438   1.032
 1658SOL     OW17035   1.372   1.857   0.854
 1658SOL    HW117036   1.321   1.941   0.836
 1658SOL    HW217037   1.458   1.859   0.803
 1659SOL     OW17038   1.727   2.063   1.783
 1659SOL    HW117039   1.704   2.084   1.878
 1659SOL    HW217040   1.703   1.968   1.763
 1660SOL     OW17041   0.030   2.467   0.527
 1660SOL    HW117042   0.032   2.418   0.614
 1660SOL    HW217043   0.032   2.566   0.545
 1661SOL     OW17044   0.351   2.055   0.848
 1661SOL    HW117045   0.403   2.095   0.923
 1661SOL    HW217046   0.404   1.982   0.805
 1662SOL     OW17047   0.335   2.103   1.182
 1662SOL    HW117048   0.300   2.010   1.182
 1662SOL    HW217049   0.422   2.106   1.133
 1663SOL     OW17050   1.002   2.725   0.922
 1663SOL    HW117051   1.028   2.805   0.868
 1663SOL    HW217052   0.996   2.645   0.862
 1664SOL     OW17053   0.203   3.352   0.381
 1664SOL    HW117054   0.230   3.258   0.401
 1664SOL    HW217055   0.228   3.374   0.287
 1665SOL     OW17056   1.485   3.221   1.255
 1665SOL    HW117057   1.456   3.258   1.166
 1665SOL    HW217058   1.407   3.221   1.317
 1666SOL     OW17059   0.217   3.495   0.618
 1666SOL    HW117060   0.133   3.546   0.636
 1666SOL    HW217061   0.208   3.444   0.533
 1667SOL     OW17062   1.738   3.292   1.293
 1667SOL    HW117063   1.769   3.306   1.387
 1667SOL    HW217064   1.639   3.279   1.292
 1668SOL     OW17065   0.490   2.792   0.020
 1668SOL    HW117066   0.459   2.826  -0.068
 1668SOL    HW217067   0.494   2.867   0.086
 1669SOL     OW17068   0.094   2.684   0.193
 1669SOL    HW117069   0.154   2.631   0.253
 1669SOL    HW217070   0.000   2.652   0.205
 1670SOL     OW17071   1.614   2.682   0.393
 1670SOL    HW117072   1.682   2.616   0.360
 1670SOL    HW217073   1.629   2.770   0.349
 1671SOL     OW17074   0.862   3.669   1.041
 1671SOL    HW117075   0.908   3.602   0.983
 1671SOL    HW217076   0.788   3.625   1.091
 1672SOL     OW17077   0.769   2.738   0.077
 1672SOL    HW117078   0.798   2.657   0.128
 1672SOL    HW217079   0.669   2.737   0.068
 1673SOL     OW17080   1.365   2.270   0.423
 1673SOL    HW117081   1.302   2.328   0.371
 1673SOL    HW217082   1.458   2.304   0.411
 1674SOL     OW17083   0.262   2.471   1.523
 1674SOL    HW117084   0.282   2.376   1.498
 1674SOL    HW217085   0.225   2.474   1.616
 1675SOL     OW17086   0.144   2.126   1.413
 1675SOL    HW117087   0.216   2.136   1.344
 1675SOL    HW217088   0.055   2.125   1.368
 1676SOL     OW17089   1.042   2.747   1.178
 1676SOL    HW117090   1.036   2.733   1.079
 1676SOL    HW217091   0.961   2.708   1.222
 1677SOL     OW17092   1.633   2.281   0.493
 1677SOL    HW117093   1.729   2.252   0.490
 1677SOL    HW217094   1.594   2.259   0.582
 1678SOL     OW17095   0.917   3.356   0.930
 1678SOL    HW117096   0.975   3.367   0.849
 1678SOL    HW217097   0.823   3.380   0.908
 1679SOL     OW17098   0.867   2.222   0.215
 1679SOL    HW117099   0.776   2.235   0.253
 1679SOL    HW217100   0.927   2.182   0.285
 1680SOL     OW17101   0.978   3.167   0.150
 1680SOL    HW117102   1.031   3.107   0.210
 1680SOL    HW217103   1.017   3.168   0.059
 1681SOL     OW17104   1.144   2.735   0.624
 1681SOL    HW117105   1.209   2.763   0.695
 1681SOL    HW217106   1.065   2.796   0.626
 1682SOL     OW17107   0.892   3.461   1.648
 1682SOL    HW117108   0.880   3.392   1.577
 1682SOL    HW217109   0.855   3.426   1.735
 1683SOL     OW17110   1.336   2.775   0.827
 1683SOL    HW117111   1.357   2.717   0.905
 1683SOL    HW217112   1.345   2.871   0.853
 1684SOL     OW17113   0.292   2.904   0.873
 1684SOL    HW117114   0.215   2.966   0.866
 1684SOL    HW217115   0.329   2.905   0.966
 1685SOL     OW17116   1.229   3.240   1.411
 1685SOL    HW117117   1.262   3.325   1.452
 1685SOL    HW217118   1.130   3.236   1.418
 1686SOL     OW17119   0.036   2.157   0.475
 1686SOL    HW117120   0.096   2.108   0.413
 1686SOL    HW217121   0.091   2.209   0.540
 1687SOL     OW17122   0.823   2.622   1.324
 1687SOL    HW117123   0.825   2.708   1.375
 1687SOL    HW217124   0.880   2.554   1.371
 1688SOL     OW17125   0.060   3.649   1.395
 1688SOL    HW117126   0.068   3.749   1.393
 1688SOL    HW217127   0.036   3.620   1.488
 1689SOL     OW17128   0.841   2.668   0.389
 1689SOL    HW117129   0.752   2.696   0.354
 1689SOL    HW217130   0.882   2.602   0.325
 1690SOL     OW17131   0.363   2.386   0.928
 1690SOL    HW117132   0.419   2.379   0.845
 1690SOL    HW217133   0.420   2.364   1.008
 1691SOL     OW17134   0.360   3.584   0.199
 1691SOL    HW117135   0.452   3.614   0.174
 1691SOL    HW217136   0.335   3.623   0.288
 1692SOL     OW17137   1.336   3.606   1.136
 1692SOL    HW117138   1.355   3.669   1.062
 1692SOL    HW217139   1.344   3.512   1.103
 1693SOL     OW17140   0.041   3.001   0.948
 1693SOL    HW117141  -0.049   3.017   0.909
 1693SOL    HW217142   0.039   2.917   1.003
 1694SOL     OW17143   0.792   1.906   0.398
 1694SOL    HW117144   0.753   1.895   0.307
 1694SOL    HW217145   0.748   1.982   0.445
 1695SOL     OW17146   0.037   3.042   0.492
 1695SOL    HW117147   0.115   3.100   0.516
 1695SOL    HW217148   0.056   2.993   0.407
 1696SOL     OW17149   1.567   2.170   1.576
 1696SOL    HW117150   1.506   2.248   1.573
 1696SOL    HW217151   1.622   2.174   1.659
 1697SOL     OW17152   1.283   2.116   0.867
 1697SOL    HW117153   1.282   2.194   0.804
 1697SOL    HW217154   1.326   2.143   0.953
 1698SOL     OW17155   1.403   1.922   0.163
 1698SOL    HW117156   1.483   1.862   0.160
 1698SOL    HW217157   1.329   1.875   0.211
 1699SOL     OW17158   1.616   1.894   1.597
 1699SOL    HW117159   1.642   1.851   1.511
 1699SOL    HW217160   1.566   1.978   1.579
 1700SOL     OW17161   0.718   2.153   0.729
 1700SOL    HW117162   0.707   2.095   0.810
 1700SOL    HW217163   0.803   2.205   0.737
 1701SOL     OW17164   1.298   2.504   1.121
 1701SOL    HW117165   1.352   2.544   1.047
 1701SOL    HW217166   1.336   2.533   1.209
 1702SOL     OW17167   1.591   1.910   0.437
 1702SOL    HW117168   1.598   1.864   0.349
 1702SOL    HW217169   1.495   1.920   0.462
 1703SOL     OW17170   0.567   3.225   1.800
 1703SOL    HW117171   0.528   3.288   1.733
 1703SOL    HW217172   0.650   3.265   1.840
 1704SOL     OW17173   0.443   2.957   1.632
 1704SOL    HW117174   0.462   2.981   1.537
 1704SOL    HW217175   0.436   3.040   1.687
 1705SOL     OW17176   0.104   3.247   1.106
 1705SOL    HW117177   0.073   3.173   1.047
 1705SOL    HW217178   0.036   3.265   1.177
 1706SOL     OW17179   1.190   2.448   0.839
 1706SOL    HW117180   1.272   2.425   0.787
 1706SOL    HW217181   1.185   2.389   0.920
 1707SOL     OW17182   1.361   2.248   1.094
 1707SOL    HW117183   1.335   2.345   1.100
 1707SOL    HW217184   1.361   2.208   1.186
 1708SOL     OW17185   1.591   2.380   1.845
 1708SOL    HW117186   1.671   2.405   1.789
 1708SOL    HW217187   1.622   2.345   1.933
 1709SOL     OW17188   1.302   2.683   0.425
 1709SOL    HW117189   1.248   2.681   0.509
 1709SOL    HW217190   1.379   2.746   0.436
 1710SOL     OW17191   1.599   2.779   0.645
 1710SOL    HW117192   1.613   2.742   0.552
 1710SOL    HW217193   1.510   2.749   0.679
 1711SOL     OW17194   1.609   2.136   0.219
 1711SOL    HW117195   1.614   2.178   0.310
 1711SOL    HW217196   1.542   2.061   0.221
 1712SOL     OW17197   0.756   3.351   1.439
 1712SOL    HW117198   0.693   3.429   1.446
 1712SOL    HW217199   0.724   3.289   1.367
 1713SOL     OW17200   0.147   2.146   1.704
 1713SOL    HW117201   0.165   2.135   1.606
 1713SOL    HW217202   0.049   2.142   1.721
 1714SOL     OW17203   0.027   3.560   1.648
 1714SOL    HW117204   0.099   3.546   1.716
 1714SOL    HW217205  -0.062   3.563   1.693
 1715SOL     OW17206   0.195   2.216   0.672
 1715SOL    HW117207   0.138   2.271   0.733
 1715SOL    HW217208   0.265   2.168   0.725
 1716SOL     OW17209   1.367   3.448   1.535
 1716SOL    HW117210   1.320   3.516   1.590
 1716SOL    HW217211   1.434   3.494   1.476
 1717SOL     OW17212   0.332   2.407   0.270
 1717SOL    HW117213   0.404   2.436   0.207
 1717SOL    HW217214   0.288   2.487   0.310
 1718SOL     OW17215   1.718   2.069   1.373
 1718SOL    HW117216   1.674   2.117   1.449
 1718SOL    HW217217   1.696   2.115   1.287
 1719SOL     OW17218   0.447   3.670   0.736
 1719SOL    HW117219   0.371   3.636   0.681
 1719SOL    HW217220   0.533   3.633   0.701
 1720SOL     OW17221   0.372   3.179   1.181
 1720SOL    HW117222   0.384   3.195   1.278
 1720SOL    HW217223   0.285   3.219   1.151
 1721SOL     OW17224   0.224   2.134   0.234
 1721SOL    HW117225   0.268   2.103   0.151
 1721SOL    HW217226   0.225   2.234   0.238
 1722SOL     OW17227   0.077   2.386   0.845
 1722SOL    HW117228   0.041   2.479   0.837
 1722SOL    HW217229   0.160   2.387   0.901
 1723SOL     OW17230   0.512   2.973   0.231
 1723SOL    HW117231   0.612   2.973   0.242
 1723SOL    HW217232   0.481   3.066   0.210
 1724SOL     OW17233   1.138   2.565   0.047
 1724SOL    HW117234   1.069   2.622   0.003
 1724SOL    HW217235   1.219   2.559  -0.012
 1725SOL     OW17236   0.873   2.484   0.190
 1725SOL    HW117237   0.963   2.485   0.145
 1725SOL    HW217238   0.850   2.390   0.215
 1726SOL     OW17239   1.324   2.001   0.484
 1726SOL    HW117240   1.234   1.985   0.525
 1726SOL    HW217241   1.332   2.097   0.458
 1727SOL     OW17242   0.346   2.891   1.145
 1727SOL    HW117243   0.357   2.846   1.234
 1727SOL    HW217244   0.373   2.987   1.152
 1728SOL     OW17245   1.645   2.903   0.245
 1728SOL    HW117246   1.716   2.973   0.247
 1728SOL    HW217247   1.632   2.873   0.150
 1729SOL     OW17248   0.627   2.504   1.167
 1729SOL    HW117249   0.702   2.547   1.216
 1729SOL    HW217250   0.560   2.469   1.233
 1730SOL     OW17251   1.091   2.076   0.640
 1730SOL    HW117252   1.150   2.136   0.695
 1730SOL    HW217253   1.018   2.040   0.697
 1731SOL     OW17254   1.201   3.608   1.680
 1731SOL    HW117255   1.106   3.606   1.648
 1731SOL    HW217256   1.222   3.699   1.717
 1732SOL     OW17257   0.619   1.953   0.911
 1732SOL    HW117258   0.547   1.886   0.897
 1732SOL    HW217259   0.701   1.907   0.946
 1733SOL     OW17260   0.319   3.618   1.278
 1733SOL    HW117261   0.299   3.600   1.182
 1733SOL    HW217262   0.246   3.580   1.335
 1734SOL     OW17263   1.012   3.082   0.823
 1734SOL    HW117264   1.051   3.125   0.742
 1734SOL    HW217265   1.085   3.065   0.890
 1735SOL     OW17266   0.706   2.810   1.025
 1735SOL    HW117267   0.704   2.726   0.970
 1735SOL    HW217268   0.655   2.796   1.110
 1736SOL     OW17269   0.045   2.820   1.151
 1736SOL    HW117270   0.134   2.798   1.191
 1736SOL    HW217271  -0.010   2.736   1.147
 1737SOL     OW17272   0.273   1.865   0.431
 1737SOL    HW117273   0.311   1.953   0.458
 1737SOL    HW217274   0.196   1.841   0.491
 1738SOL     OW17275   0.689   2.482   1.759
 1738SOL    HW117276   0.641   2.533   1.688
 1738SOL    HW217277   0.782   2.461   1.729
 1739SOL     OW17278   0.840   3.040   1.104
 1739SOL    HW117279   0.791   2.955   1.085
 1739SOL    HW217280   0.910   3.055   1.035
 1740SOL     OW17281   1.178   2.463   0.313
 1740SOL    HW117282   1.230   2.535   0.359
 1740SOL    HW217283   1.191   2.470   0.215
 1741SOL     OW17284   1.539   3.278   1.640
 1741SOL    HW117285   1.524   3.180   1.654
 1741SOL    HW217286   1.456   3.320   1.604
 1742SOL     OW17287   0.296   2.720   1.380
 1742SOL    HW117288   0.260   2.630   1.406
 1742SOL    HW217289   0.257   2.790   1.440
 1743SOL     OW17290   0.798   3.346   0.038
 1743SOL    HW117291   0.773   3.423   0.097
 1743SOL    HW217292   0.862   3.286   0.086
 1744SOL     OW17293   0.616   3.553   1.072
 1744SOL    HW117294   0.636   3.523   0.979
 1744SOL    HW217295   0.541   3.498   1.109
 1745SOL     OW17296   0.759   2.964   0.789
 1745SOL    HW117297   0.848   3.010   0.789
 1745SOL    HW217298   0.752   2.904   0.868
 1746SOL     OW17299   0.937   3.311   0.458
 1746SOL    HW117300   0.987   3.299   0.373
 1746SOL    HW217301   0.883   3.228   0.477
 1747SOL     OW17302   0.127   2.658   0.858
 1747SOL    HW117303   0.222   2.649   0.826
 1747SOL    HW217304   0.093   2.750   0.837
 1748SOL     OW17305   0.064   2.775   1.785
 1748SOL    HW117306  -0.021   2.726   1.766
 1748SOL    HW217307   0.091   2.762   1.880
 1749SOL     OW17308   0.961   3.684   1.491
 1749SOL    HW117309   0.933   3.597   1.532
 1749SOL    HW217310   0.905   3.758   1.528
 1750SOL     OW17311   1.190   3.031   1.021
 1750SOL    HW117312   1.174   3.125   1.052
 1750SOL    HW217313   1.193   2.970   1.101
 1751SOL     OW17314   0.464   2.302   1.785
 1751SOL    HW117315   0.500   2.249   1.708
 1751SOL    HW217316   0.525   2.379   1.803
 1752SOL     OW17317   0.528   2.719   0.357
 1752SOL    HW117318   0.478   2.784   0.301
 1752SOL    HW217319   0.470   2.640   0.376
 1753SOL     OW17320   1.609   2.750   1.055
 1753SOL    HW117321   1.628   2.789   0.964
 1753SOL    HW217322   1.563   2.819   1.111
 1754SOL     OW17323   1.301   2.193   1.351
 1754SOL    HW117324   1.372   2.165   1.415
 1754SOL    HW217325   1.248   2.113   1.323
 1755SOL     OW17326   0.002   1.892   0.552
 1755SOL    HW117327  -0.085   1.879   0.505
 1755SOL    HW217328   0.010   1.987   0.582
 1756SOL     OW17329   1.223   1.993   1.793
 1756SOL    HW117330   1.282   2.009   1.873
 1756SOL    HW217331   1.170   2.076   1.774
 1757SOL     OW17332   0.439   3.412   1.618
 1757SOL    HW117333   0.381   3.477   1.667
 1757SOL    HW217334   0.501   3.462   1.558
 1758SOL     OW17335   1.795   3.299   1.559
 1758SOL    HW117336   1.823   3.392   1.581
 1758SOL    HW217337   1.702   3.283   1.592
 1759SOL     OW17338   1.045   2.412   1.109
 1759SOL    HW117339   1.131   2.463   1.108
 1759SOL    HW217340   1.051   2.338   1.176
 1760SOL     OW17341   0.449   3.358   0.681
 1760SOL    HW117342   0.447   3.259   0.694
 1760SOL    HW217343   0.358   3.391   0.658
 1761SOL     OW17344   1.090   3.475   1.269
 1761SOL    HW117345   1.016   3.539   1.287
 1761SOL    HW217346   1.169   3.524   1.231
 1762SOL     OW17347   0.299   3.605   1.768
 1762SOL    HW117348   0.342   3.689   1.734
 1762SOL    HW217349   0.324   3.592   1.864
 1763SOL     OW17350   0.159   3.141   1.639
 1763SOL    HW117351   0.138   3.046   1.612
 1763SOL    HW217352   0.090   3.202   1.601
 1764SOL     OW17353   0.248   3.506   1.043
 1764SOL    HW117354   0.190   3.426   1.057
 1764SOL    HW217355   0.272   3.513   0.946
 1765SOL     OW17356   0.994   2.027   0.898
 1765SOL    HW117357   1.090   2.028   0.926
 1765SOL    HW217358   0.939   1.984   0.970
 1766SOL     OW17359   1.056   3.033   0.414
 1766SOL    HW117360   1.136   3.069   0.462
 1766SOL    HW217361   1.014   2.960   0.470
 1767SOL     OW17362   0.790   2.972   0.264
 1767SOL    HW117363   0.862   3.031   0.229
 1767SOL    HW217364   0.830   2.888   0.300
 1768SOL     OW17365   0.861   1.948   0.116
 1768SOL    HW117366   0.936   1.882   0.128
 1768SOL    HW217367   0.892   2.039   0.144
 1769SOL     OW17368   0.540   2.377   0.728
 1769SOL    HW117369   0.578   2.288   0.754
 1769SOL    HW217370   0.607   2.427   0.673
 1770SOL     OW17371   0.528   2.935   1.382
 1770SOL    HW117372   0.624   2.915   1.402
 1770SOL    HW217373   0.517   3.033   1.364
 1771SOL     OW17374   0.660   3.526   0.203
 1771SOL    HW117375   0.635   3.621   0.187
 1771SOL    HW217376   0.627   3.498   0.293
 1772SOL     OW17377   0.577   3.565   1.427
 1772SOL    HW117378   0.626   3.645   1.391
 1772SOL    HW217379   0.485   3.563   1.388
 1773SOL     OW17380   0.220   2.446   1.789
 1773SOL    HW117381   0.237   2.347   1.794
 1773SOL    HW217382   0.284   2.494   1.850
 1774SOL     OW17383   1.659   3.407   1.028
 1774SOL    HW117384   1.631   3.500   1.052
 1774SOL    HW217385   1.709   3.366   1.104
 1775SOL     OW17386   0.055   2.780   0.589
 1775SOL    HW117387   0.062   2.879   0.576
 1775SOL    HW217388  -0.036   2.757   0.623
 1776SOL     OW17389   0.564   2.578   1.527
 1776SOL    HW117390   0.470   2.548   1.508
 1776SOL    HW217391   0.573   2.675   1.504
 1777SOL     OW17392   1.631   2.954   0.839
 1777SOL    HW117393   1.593   3.043   0.812
 1777SOL    HW217394   1.631   2.892   0.761
 1778SOL     OW17395   0.789   2.360   1.008
 1778SOL    HW117396   0.881   2.388   1.035
 1778SOL    HW217397   0.721   2.411   1.062
 1779SOL     OW17398   0.642   3.211   1.235
 1779SOL    HW117399   0.555   3.210   1.186
 1779SOL    HW217400   0.708   3.151   1.188
 1780SOL     OW17401   0.208   2.553   1.149
 1780SOL    HW117402   0.246   2.612   1.220
 1780SOL    HW217403   0.191   2.606   1.067
 1781SOL     OW17404   0.379   3.199   1.447
 1781SOL    HW117405   0.398   3.287   1.491
 1781SOL    HW217406   0.284   3.173   1.465
 1782SOL     OW17407   1.622   3.515   1.795
 1782SOL    HW117408   1.591   3.437   1.740
 1782SOL    HW217409   1.591   3.600   1.753
 1783SOL     OW17410   1.330   3.053   0.516
 1783SOL    HW117411   1.429   3.057   0.532
 1783SOL    HW217412   1.313   3.039   0.418
 1784SOL     OW17413   0.683   2.219   0.464
 1784SOL    HW117414   0.585   2.213   0.444
 1784SOL    HW217415   0.702   2.176   0.552
 1785SOL     OW17416   1.603   1.902   0.723
 1785SOL    HW117417   1.598   1.943   0.632
 1785SOL    HW217418   1.684   1.936   0.770
 1786SOL     OW17419   0.700   2.618   0.818
 1786SOL    HW117420   0.722   2.540   0.876
 1786SOL    HW217421   0.709   2.592   0.722
 1787SOL     OW17422   1.365   3.325   1.030
 1787SOL    HW117423   1.279   3.282   1.059
 1787SOL    HW217424   1.354   3.365   0.939
 1788SOL     OW17425   1.368   2.310   0.705
 1788SOL    HW117426   1.367   2.302   0.606
 1788SOL    HW217427   1.457   2.282   0.740
 1789SOL     OW17428   1.606   3.122   2.395
 1789SOL    HW117429   1.617   3.206   2.449
 1789SOL    HW217430   1.696   3.085   2.372
 1790SOL     OW17431   1.686   2.404   3.259
 1790SOL    HW117432   1.588   2.396   3.281
 1790SOL    HW217433   1.739   2.393   3.343
 1791SOL     OW17434   0.353   2.041   1.864
 1791SOL    HW117435   0.266   2.038   1.815
 1791SOL    HW217436   0.404   2.123   1.836
 1792SOL     OW17437   1.218   1.941   3.197
 1792SOL    HW117438   1.142   1.896   3.244
 1792SOL    HW217439   1.247   1.886   3.119
 1793SOL     OW17440   0.956   2.721   3.574
 1793SOL    HW117441   0.921   2.696   3.484
 1793SOL    HW217442   0.880   2.742   3.635
 1794SOL     OW17443   0.563   3.395   2.268
 1794SOL    HW117444   0.519   3.404   2.357
 1794SOL    HW217445   0.634   3.325   2.272
 1795SOL     OW17446   0.581   1.928   1.990
 1795SOL    HW117447   0.669   1.956   1.951
 1795SOL    HW217448   0.509   1.991   1.960
 1796SOL     OW17449   1.551   2.913   3.373
 1796SOL    HW117450   1.459   2.918   3.335
 1796SOL    HW217451   1.616   2.951   3.307
 1797SOL     OW17452   1.451   2.920   3.054
 1797SOL    HW117453   1.376   2.909   3.119
 1797SOL    HW217454   1.488   3.013   3.060
 1798SOL     OW17455   0.947   3.175   3.354
 1798SOL    HW117456   0.890   3.238   3.300
 1798SOL    HW217457   0.980   3.101   3.295
 1799SOL     OW17458   0.490   3.068   2.563
 1799SOL    HW117459   0.423   3.022   2.622
 1799SOL    HW217460   0.582   3.036   2.586
 1800SOL     OW17461   0.717   2.474   2.394
 1800SOL    HW117462   0.756   2.544   2.335
 1800SOL    HW217463   0.691   2.394   2.340
 1801SOL     OW17464   1.337   2.382   3.603
 1801SOL    HW117465   1.433   2.386   3.629
 1801SOL    HW217466   1.293   2.306   3.650
 1802SOL     OW17467   0.268   2.619   2.275
 1802SOL    HW117468   0.283   2.553   2.349
 1802SOL    HW217469   0.218   2.698   2.310
 1803SOL     OW17470   0.854   3.564   2.452
 1803SOL    HW117471   0.919   3.497   2.416
 1803SOL    HW217472   0.844   3.640   2.388
 1804SOL     OW17473   1.746   3.446   2.194
 1804SOL    HW117474   1.842   3.420   2.187
 1804SOL    HW217475   1.722   3.506   2.118
 1805SOL     OW17476   1.658   2.139   2.965
 1805SOL    HW117477   1.709   2.211   2.918
 1805SOL    HW217478   1.563   2.166   2.974
 1806SOL     OW17479   1.058   2.168   2.234
 1806SOL    HW117480   1.083   2.262   2.255
 1806SOL    HW217481   1.059   2.114   2.318
 1807SOL     OW17482   0.182   2.881   3.419
 1807SOL    HW117483   0.278   2.896   3.437
 1807SOL    HW217484   0.144   2.819   3.488
 1808SOL     OW17485   0.508   2.526   1.962
 1808SOL    HW117486   0.468   2.605   1.915
 1808SOL    HW217487   0.597   2.505   1.922
 1809SOL     OW17488   0.681   3.450   2.660
 1809SOL    HW117489   0.754   3.473   2.596
 1809SOL    HW217490   0.610   3.397   2.614
 1810SOL     OW17491   1.023   2.482   3.414
 1810SOL    HW117492   1.056   2.399   3.461
 1810SOL    HW217493   1.096   2.550   3.413
 1811SOL     OW17494   1.216   2.158   2.023
 1811SOL    HW117495   1.310   2.128   2.041
 1811SOL    HW217496   1.164   2.158   2.109
 1812SOL     OW17497   1.450   2.643   3.156
 1812SOL    HW117498   1.454   2.737   3.121
 1812SOL    HW217499   1.543   2.612   3.178
 1813SOL     OW17500   0.403   2.135   2.277
 1813SOL    HW117501   0.357   2.175   2.356
 1813SOL    HW217502   0.351   2.154   2.195
 1814SOL     OW17503   1.826   2.380   3.044
 1814SOL    HW117504   1.883   2.462   3.046
 1814SOL    HW217505   1.767   2.379   3.124
 1815SOL     OW17506   1.843   3.606   2.957
 1815SOL    HW117507   1.889   3.616   3.045
 1815SOL    HW217508   1.910   3.609   2.884
 1816SOL     OW17509   0.956   2.346   2.519
 1816SOL    HW117510   1.032   2.374   2.578
 1816SOL    HW217511   0.912   2.426   2.480
 1817SOL     OW17512   1.033   2.232   3.657
 1817SOL    HW117513   1.096   2.237   3.734
 1817SOL    HW217514   0.941   2.210   3.690
 1818SOL     OW17515   1.774   2.479   2.115
 1818SOL    HW117516   1.795   2.398   2.061
 1818SOL    HW217517   1.791   2.460   2.212
 1819SOL     OW17518   0.749   1.884   3.555
 1819SOL    HW117519   0.756   1.790   3.522
 1819SOL    HW217520   0.806   1.894   3.637
 1820SOL     OW17521   1.672   2.485   2.823
 1820SOL    HW117522   1.657   2.576   2.860
 1820SOL    HW217523   1.742   2.438   2.877
 1821SOL     OW17524   1.082   3.151   3.589
 1821SOL    HW117525   1.104   3.061   3.551
 1821SOL    HW217526   1.017   3.198   3.530
 1822SOL     OW17527   0.737   2.993   3.593
 1822SOL    HW117528   0.708   3.070   3.650
 1822SOL    HW217529   0.747   2.912   3.651
 1823SOL     OW17530   1.372   1.857   2.699
 1823SOL    HW117531   1.321   1.941   2.681
 1823SOL    HW217532   1.458   1.859   2.648
 1824SOL     OW17533   1.727   2.063   3.628
 1824SOL    HW117534   1.704   2.084   3.723
 1824SOL    HW217535   1.703   1.968   3.608
 1825SOL     OW17536   0.030   2.467   2.372
 1825SOL    HW117537   0.032   2.418   2.459
 1825SOL    HW217538   0.032   2.566   2.390
 1826SOL     OW17539   0.351   2.055   2.693
 1826SOL    HW117540   0.403   2.095   2.768
 1826SOL    HW217541   0.404   1.982   2.650
 1827SOL     OW17542   0.335   2.103   3.027
 1827SOL    HW117543   0.300   2.010   3.027
 1827SOL    HW217544   0.422   2.106   2.978
 1828SOL     OW17545   1.002   2.725   2.767
 1828SOL    HW117546   1.028   2.805   2.713
 1828SOL    HW217547   0.996   2.645   2.707
 1829SOL     OW17548   0.203   3.352   2.226
 1829SOL    HW117549   0.230   3.258   2.246
 1829SOL    HW217550   0.228   3.374   2.132
 1830SOL     OW17551   1.485   3.221   3.100
 1830SOL    HW117552   1.456   3.258   3.011
 1830SOL    HW217553   1.407   3.221   3.162
 1831SOL     OW17554   0.217   3.495   2.463
 1831SOL    HW117555   0.133   3.546   2.481
 1831SOL    HW217556   0.208   3.444   2.378
 1832SOL     OW17557   1.738   3.292   3.138
 1832SOL    HW117558   1.769   3.306   3.232
 1832SOL    HW217559   1.639   3.279   3.137
 1833SOL     OW17560   0.490   2.792   1.865
 1833SOL    HW117561   0.459   2.826   1.777
 1833SOL    HW217562   0.494   2.867   1.931
 1834SOL     OW17563   1.007   2.979   3.164
 1834SOL    HW117564   1.057   2.894   3.148
 1834SOL    HW217565   0.961   3.006   3.079
 1835SOL     OW17566   0.094   2.684   2.038
 1835SOL    HW117567   0.154   2.631   2.098
 1835SOL    HW217568   0.000   2.652   2.050
 1836SOL     OW17569   1.614   2.682   2.238
 1836SOL    HW117570   1.682   2.616   2.205
 1836SOL    HW217571   1.629   2.770   2.194
 1837SOL     OW17572   0.862   3.669   2.886
 1837SOL    HW117573   0.908   3.602   2.828
 1837SOL    HW217574   0.788   3.625   2.936
 1838SOL     OW17575   0.769   2.738   1.922
 1838SOL    HW117576   0.798   2.657   1.973
 1838SOL    HW217577   0.669   2.737   1.913
 1839SOL     OW17578   1.365   2.270   2.268
 1839SOL    HW117579   1.302   2.328   2.216
 1839SOL    HW217580   1.458   2.304   2.256
 1840SOL     OW17581   0.262   2.471   3.368
 1840SOL    HW117582   0.282   2.376   3.343
 1840SOL    HW217583   0.225   2.474   3.461
 1841SOL     OW17584   0.144   2.126   3.258
 1841SOL    HW117585   0.216   2.136   3.189
 1841SOL    HW217586   0.055   2.125   3.213
 1842SOL     OW17587   1.042   2.747   3.023
 1842SOL    HW117588   1.036   2.733   2.924
 1842SOL    HW217589   0.961   2.708   3.067
 1843SOL     OW17590   1.633   2.281   2.338
 1843SOL    HW117591   1.729   2.252   2.335
 1843SOL    HW217592   1.594   2.259   2.427
 1844SOL     OW17593   0.917   3.356   2.775
 1844SOL    HW117594   0.975   3.367   2.694
 1844SOL    HW217595   0.823   3.380   2.753
 1845SOL     OW17596   0.867   2.222   2.060
 1845SOL    HW117597   0.776   2.235   2.098
 1845SOL    HW217598   0.927   2.182   2.130
 1846SOL     OW17599   1.144   2.735   2.469
 1846SOL    HW117600   1.209   2.763   2.540
 1846SOL    HW217601   1.065   2.796   2.471
 1847SOL     OW17602   0.892   3.461   3.493
 1847SOL    HW117603   0.880   3.392   3.422
 1847SOL    HW217604   0.855   3.426   3.580
 1848SOL     OW17605   1.336   2.775   2.672
 1848SOL    HW117606   1.357   2.717   2.750
 1848SOL    HW217607   1.345   2.871   2.698
 1849SOL     OW17608   0.292   2.904   2.718
 1849SOL    HW117609   0.215   2.966   2.711
 1849SOL    HW217610   0.329   2.905   2.811
 1850SOL     OW17611   0.925   2.852   2.417
 1850SOL    HW117612   0.912   2.763   2.374
 1850SOL    HW217613   0.856   2.866   2.488
 1851SOL     OW17614   1.229   3.240   3.256
 1851SOL    HW117615   1.262   3.325   3.297
 1851SOL    HW217616   1.130   3.236   3.263
 1852SOL     OW17617   0.036   2.157   2.320
 1852SOL    HW117618   0.096   2.108   2.258
 1852SOL    HW217619   0.091   2.209   2.385
 1853SOL     OW17620   1.659   3.655   2.011
 1853SOL    HW117621   1.749   3.699   2.013
 1853SOL    HW217622   1.658   3.586   1.939
 1854SOL     OW17623   0.823   2.622   3.169
 1854SOL    HW117624   0.825   2.708   3.220
 1854SOL    HW217625   0.880   2.554   3.216
 1855SOL     OW17626   0.060   3.649   3.240
 1855SOL    HW117627   0.068   3.749   3.238
 1855SOL    HW217628   0.036   3.620   3.333
 1856SOL     OW17629   0.841   2.668   2.234
 1856SOL    HW117630   0.752   2.696   2.199
 1856SOL    HW217631   0.882   2.602   2.170
 1857SOL     OW17632   0.360   3.584   2.044
 1857SOL    HW117633   0.452   3.614   2.019
 1857SOL    HW217634   0.335   3.623   2.133
 1858SOL     OW17635   0.041   3.001   2.793
 1858SOL    HW117636  -0.049   3.017   2.754
 1858SOL    HW217637   0.039   2.917   2.848
 1859SOL     OW17638   0.792   1.906   2.243
 1859SOL    HW117639   0.753   1.895   2.152
 1859SOL    HW217640   0.748   1.982   2.290
 1860SOL     OW17641   0.037   3.042   2.337
 1860SOL    HW117642   0.115   3.100   2.361
 1860SOL    HW217643   0.056   2.993   2.252
 1861SOL     OW17644   1.567   2.170   3.421
 1861SOL    HW117645   1.506   2.248   3.418
 1861SOL    HW217646   1.622   2.174   3.504
 1862SOL     OW17647   1.283   2.116   2.712
 1862SOL    HW117648   1.282   2.194   2.649
 1862SOL    HW217649   1.326   2.143   2.798
 1863SOL     OW17650   1.403   1.922   2.008
 1863SOL    HW117651   1.483   1.862   2.005
 1863SOL    HW217652   1.329   1.875   2.056
 1864SOL     OW17653   1.616   1.894   3.442
 1864SOL    HW117654   1.642   1.851   3.356
 1864SOL    HW217655   1.566   1.978   3.424
 1865SOL     OW17656   0.718   2.153   2.574
 1865SOL    HW117657   0.707   2.095   2.655
 1865SOL    HW217658   0.803   2.205   2.582
 1866SOL     OW17659   1.298   2.504   2.966
 1866SOL    HW117660   1.352   2.544   2.892
 1866SOL    HW217661   1.336   2.533   3.054
 1867SOL     OW17662   1.591   1.910   2.282
 1867SOL    HW117663   1.598   1.864   2.194
 1867SOL    HW217664   1.495   1.920   2.307
 1868SOL     OW17665   0.567   3.225   3.645
 1868SOL    HW117666   0.528   3.288   3.578
 1868SOL    HW217667   0.650   3.265   3.685
 1869SOL     OW17668   0.443   2.957   3.477
 1869SOL    HW117669   0.462   2.981   3.382
 1869SOL    HW217670   0.436   3.040   3.532
 1870SOL     OW17671   0.104   3.247   2.951
 1870SOL    HW117672   0.073   3.173   2.892
 1870SOL    HW217673   0.036   3.265   3.022
 1871SOL     OW17674   1.190   2.448   2.684
 1871SOL    HW117675   1.272   2.425   2.632
 1871SOL    HW217676   1.185   2.389   2.765
 1872SOL     OW17677   1.790   2.475   3.520
 1872SOL    HW117678   1.779   2.561   3.469
 1872SOL    HW217679   1.884   2.466   3.550
 1873SOL     OW17680   1.361   2.248   2.939
 1873SOL    HW117681   1.335   2.345   2.945
 1873SOL    HW217682   1.361   2.208   3.031
 1874SOL     OW17683   1.591   2.380   3.690
 1874SOL    HW117684   1.671   2.405   3.634
 1874SOL    HW217685   1.622   2.345   3.778
 1875SOL     OW17686   1.302   2.683   2.270
 1875SOL    HW117687   1.248   2.681   2.354
 1875SOL    HW217688   1.379   2.746   2.281
 1876SOL     OW17689   1.599   2.779   2.490
 1876SOL    HW117690   1.613   2.742   2.397
 1876SOL    HW217691   1.510   2.749   2.524
 1877SOL     OW17692   1.755   2.716   3.385
 1877SOL    HW117693   1.657   2.737   3.387
 1877SOL    HW217694   1.804   2.792   3.344
 1878SOL     OW17695   1.609   2.136   2.064
 1878SOL    HW117696   1.614   2.178   2.155
 1878SOL    HW217697   1.542   2.061   2.066
 1879SOL     OW17698   0.756   3.351   3.284
 1879SOL    HW117699   0.693   3.429   3.291
 1879SOL    HW217700   0.724   3.289   3.212
 1880SOL     OW17701   0.147   2.146   3.549
 1880SOL    HW117702   0.165   2.135   3.451
 1880SOL    HW217703   0.049   2.142   3.566
 1881SOL     OW17704   0.027   3.560   3.493
 1881SOL    HW117705   0.099   3.546   3.561
 1881SOL    HW217706  -0.062   3.563   3.538
 1882SOL     OW17707   0.332   2.407   2.115
 1882SOL    HW117708   0.404   2.436   2.052
 1882SOL    HW217709   0.288   2.487   2.155
 1883SOL     OW17710   1.718   2.069   3.218
 1883SOL    HW117711   1.674   2.117   3.294
 1883SOL    HW217712   1.696   2.115   3.132
 1884SOL     OW17713   0.447   3.670   2.581
 1884SOL    HW117714   0.371   3.636   2.526
 1884SOL    HW217715   0.533   3.633   2.546
 1885SOL     OW17716   0.372   3.179   3.026
 1885SOL    HW117717   0.384   3.195   3.123
 1885SOL    HW217718   0.285   3.219   2.996
 1886SOL     OW17719   1.256   3.383   3.672
 1886SOL    HW117720   1.215   3.298   3.638
 1886SOL    HW217721   1.236   3.457   3.608
 1887SOL     OW17722   0.746   3.103   2.362
 1887SOL    HW117723   0.789   3.034   2.304
 1887SOL    HW217724   0.710   3.060   2.445
 1888SOL     OW17725   0.378   2.654   2.564
 1888SOL    HW117726   0.370   2.752   2.582
 1888SOL    HW217727   0.462   2.620   2.605
 1889SOL     OW17728   0.224   2.134   2.079
 1889SOL    HW117729   0.268   2.103   1.996
 1889SOL    HW217730   0.225   2.234   2.083
 1890SOL     OW17731   0.873   2.484   2.035
 1890SOL    HW117732   0.963   2.485   1.990
 1890SOL    HW217733   0.850   2.390   2.060
 1891SOL     OW17734   1.324   2.001   2.329
 1891SOL    HW117735   1.234   1.985   2.370
 1891SOL    HW217736   1.332   2.097   2.303
 1892SOL     OW17737   1.438   2.401   3.345
 1892SOL    HW117738   1.390   2.424   3.429
 1892SOL    HW217739   1.372   2.371   3.276
 1893SOL     OW17740   0.073   1.916   1.989
 1893SOL    HW117741   0.136   1.839   1.997
 1893SOL    HW217742   0.093   1.984   2.060
 1894SOL     OW17743   0.346   2.891   2.990
 1894SOL    HW117744   0.357   2.846   3.079
 1894SOL    HW217745   0.373   2.987   2.997
 1895SOL     OW17746   0.627   2.504   3.012
 1895SOL    HW117747   0.702   2.547   3.061
 1895SOL    HW217748   0.560   2.469   3.078
 1896SOL     OW17749   0.770   2.873   3.329
 1896SOL    HW117750   0.839   2.925   3.279
 1896SOL    HW217751   0.765   2.906   3.424
 1897SOL     OW17752   1.162   2.894   3.489
 1897SOL    HW117753   1.084   2.840   3.522
 1897SOL    HW217754   1.243   2.872   3.544
 1898SOL     OW17755   1.091   2.076   2.485
 1898SOL    HW117756   1.150   2.136   2.540
 1898SOL    HW217757   1.018   2.040   2.542
 1899SOL     OW17758   1.201   3.608   3.525
 1899SOL    HW117759   1.106   3.606   3.493
 1899SOL    HW217760   1.222   3.699   3.562
 1900SOL     OW17761   0.619   1.953   2.756
 1900SOL    HW117762   0.547   1.886   2.742
 1900SOL    HW217763   0.701   1.907   2.791
 1901SOL     OW17764   0.319   3.618   3.123
 1901SOL    HW117765   0.299   3.600   3.027
 1901SOL    HW217766   0.246   3.580   3.180
 1902SOL     OW17767   1.012   3.082   2.668
 1902SOL    HW117768   1.051   3.125   2.587
 1902SOL    HW217769   1.085   3.065   2.735
 1903SOL     OW17770   0.706   2.810   2.870
 1903SOL    HW117771   0.704   2.726   2.815
 1903SOL    HW217772   0.655   2.796   2.955
 1904SOL     OW17773   0.045   2.820   2.996
 1904SOL    HW117774   0.134   2.798   3.036
 1904SOL    HW217775  -0.010   2.736   2.992
 1905SOL     OW17776   0.273   1.865   2.276
 1905SOL    HW117777   0.311   1.953   2.303
 1905SOL    HW217778   0.196   1.841   2.336
 1906SOL     OW17779   0.689   2.482   3.604
 1906SOL    HW117780   0.641   2.533   3.533
 1906SOL    HW217781   0.782   2.461   3.574
 1907SOL     OW17782   1.792   2.064   2.697
 1907SOL    HW117783   1.747   2.046   2.784
 1907SOL    HW217784   1.890   2.081   2.713
 1908SOL     OW17785   0.840   3.040   2.949
 1908SOL    HW117786   0.791   2.955   2.930
 1908SOL    HW217787   0.910   3.055   2.880
 1909SOL     OW17788   1.178   2.463   2.158
 1909SOL    HW117789   1.230   2.535   2.204
 1909SOL    HW217790   1.191   2.470   2.060
 1910SOL     OW17791   1.539   3.278   3.485
 1910SOL    HW117792   1.524   3.180   3.499
 1910SOL    HW217793   1.456   3.320   3.449
 1911SOL     OW17794   0.296   2.720   3.225
 1911SOL    HW117795   0.260   2.630   3.251
 1911SOL    HW217796   0.257   2.790   3.285
 1912SOL     OW17797   0.616   3.553   2.917
 1912SOL    HW117798   0.636   3.523   2.824
 1912SOL    HW217799   0.541   3.498   2.954
 1913SOL     OW17800   0.759   2.964   2.634
 1913SOL    HW117801   0.848   3.010   2.634
 1913SOL    HW217802   0.752   2.904   2.713
 1914SOL     OW17803   0.127   2.658   2.703
 1914SOL    HW117804   0.222   2.649   2.671
 1914SOL    HW217805   0.093   2.750   2.682
 1915SOL     OW17806   0.064   2.775   3.630
 1915SOL    HW117807  -0.021   2.726   3.611
 1915SOL    HW217808   0.091   2.762   3.725
 1916SOL     OW17809   0.961   3.684   3.336
 1916SOL    HW117810   0.933   3.597   3.377
 1916SOL    HW217811   0.905   3.758   3.373
 1917SOL     OW17812   1.190   3.031   2.866
 1917SOL    HW117813   1.174   3.125   2.897
 1917SOL    HW217814   1.193   2.970   2.946
 1918SOL     OW17815   0.464   2.302   3.630
 1918SOL    HW117816   0.500   2.249   3.553
 1918SOL    HW217817   0.525   2.379   3.648
 1919SOL     OW17818   0.528   2.719   2.202
 1919SOL    HW117819   0.478   2.784   2.146
 1919SOL    HW217820   0.470   2.640   2.221
 1920SOL     OW17821   1.609   2.750   2.900
 1920SOL    HW117822   1.628   2.789   2.809
 1920SOL    HW217823   1.563   2.819   2.956
 1921SOL     OW17824   1.301   2.193   3.196
 1921SOL    HW117825   1.372   2.165   3.260
 1921SOL    HW217826   1.248   2.113   3.168
 1922SOL     OW17827   0.002   1.892   2.397
 1922SOL    HW117828  -0.085   1.879   2.350
 1922SOL    HW217829   0.010   1.987   2.427
 1923SOL     OW17830   1.223   1.993   3.638
 1923SOL    HW117831   1.282   2.009   3.718
 1923SOL    HW217832   1.170   2.076   3.619
 1924SOL     OW17833   0.439   3.412   3.463
 1924SOL    HW117834   0.381   3.477   3.512
 1924SOL    HW217835   0.501   3.462   3.403
 1925SOL     OW17836   1.795   3.299   3.404
 1925SOL    HW117837   1.823   3.392   3.426
 1925SOL    HW217838   1.702   3.283   3.437
 1926SOL     OW17839   1.045   2.412   2.954
 1926SOL    HW117840   1.131   2.463   2.953
 1926SOL    HW217841   1.051   2.338   3.021
 1927SOL     OW17842   0.449   3.358   2.526
 1927SOL    HW117843   0.447   3.259   2.539
 1927SOL    HW217844   0.358   3.391   2.503
 1928SOL     OW17845   0.299   3.605   3.613
 1928SOL    HW117846   0.342   3.689   3.579
 1928SOL    HW217847   0.324   3.592   3.709
 1929SOL     OW17848   0.159   3.141   3.484
 1929SOL    HW117849   0.138   3.046   3.457
 1929SOL    HW217850   0.090   3.202   3.446
 1930SOL     OW17851   0.248   3.506   2.888
 1930SOL    HW117852   0.190   3.426   2.902
 1930SOL    HW217853   0.272   3.513   2.791
 1931SOL     OW17854   0.994   2.027   2.743
 1931SOL    HW117855   1.090   2.028   2.771
 1931SOL    HW217856   0.939   1.984   2.815
 1932SOL     OW17857   1.647   2.300   2.623
 1932SOL    HW117858   1.666   2.386   2.670
 1932SOL    HW217859   1.715   2.231   2.651
 1933SOL     OW17860   0.790   2.972   2.109
 1933SOL    HW117861   0.862   3.031   2.074
 1933SOL    HW217862   0.830   2.888   2.145
 1934SOL     OW17863   0.861   1.948   1.961
 1934SOL    HW117864   0.936   1.882   1.973
 1934SOL    HW217865   0.892   2.039   1.989
 1935SOL     OW17866   0.540   2.377   2.573
 1935SOL    HW117867   0.578   2.288   2.599
 1935SOL    HW217868   0.607   2.427   2.518
 1936SOL     OW17869   0.528   2.935   3.227
 1936SOL    HW117870   0.624   2.915   3.247
 1936SOL    HW217871   0.517   3.033   3.209
 1937SOL     OW17872   1.750   2.978   3.196
 1937SOL    HW117873   1.764   3.076   3.210
 1937SOL    HW217874   1.807   2.947   3.120
 1938SOL     OW17875   0.660   3.526   2.048
 1938SOL    HW117876   0.635   3.621   2.032
 1938SOL    HW217877   0.627   3.498   2.138
 1939SOL     OW17878   1.310   2.949   3.272
 1939SOL    HW117879   1.254   2.908   3.343
 1939SOL    HW217880   1.290   3.047   3.266
 1940SOL     OW17881   0.577   3.565   3.272
 1940SOL    HW117882   0.626   3.645   3.236
 1940SOL    HW217883   0.485   3.563   3.233
 1941SOL     OW17884   0.220   2.446   3.634
 1941SOL    HW117885   0.237   2.347   3.639
 1941SOL    HW217886   0.284   2.494   3.695
 1942SOL     OW17887   1.659   3.407   2.873
 1942SOL    HW117888   1.631   3.500   2.897
 1942SOL    HW217889   1.709   3.366   2.949
 1943SOL     OW17890   0.055   2.780   2.434
 1943SOL    HW117891   0.062   2.879   2.421
 1943SOL    HW217892  -0.036   2.757   2.468
 1944SOL     OW17893   0.564   2.578   3.372
 1944SOL    HW117894   0.470   2.548   3.353
 1944SOL    HW217895   0.573   2.675   3.349
 1945SOL     OW17896   1.631   2.954   2.684
 1945SOL    HW117897   1.593   3.043   2.657
 1945SOL    HW217898   1.631   2.892   2.606
 1946SOL     OW17899   0.789   2.360   2.853
 1946SOL    HW117900   0.881   2.388   2.880
 1946SOL    HW217901   0.721   2.411   2.907
 1947SOL     OW17902   0.642   3.211   3.080
 1947SOL    HW117903   0.555   3.210   3.031
 1947SOL    HW217904   0.708   3.151   3.033
 1948SOL     OW17905   0.379   3.199   3.292
 1948SOL    HW117906   0.398   3.287   3.336
 1948SOL    HW217907   0.284   3.173   3.310
 1949SOL     OW17908   1.622   3.515   3.640
 1949SOL    HW117909   1.591   3.437   3.585
 1949SOL    HW217910   1.591   3.600   3.598
 1950SOL     OW17911   1.330   3.053   2.361
 1950SOL    HW117912   1.429   3.057   2.377
 1950SOL    HW217913   1.313   3.039   2.263
 1951SOL     OW17914   0.683   2.219   2.309
 1951SOL    HW117915   0.585   2.213   2.289
 1951SOL    HW217916   0.702   2.176   2.397
 1952SOL     OW17917   1.603   1.902   2.568
 1952SOL    HW117918   1.598   1.943   2.477
 1952SOL    HW217919   1.684   1.936   2.615
 1953SOL     OW17920   1.206   2.658   3.261
 1953SOL    HW117921   1.305   2.667   3.251
 1953SOL    HW217922   1.162   2.660   3.171
 1954SOL     OW17923   0.700   2.618   2.663
 1954SOL    HW117924   0.722   2.540   2.721
 1954SOL    HW217925   0.709   2.592   2.567
 1955SOL     OW17926   1.365   3.325   2.875
 1955SOL    HW117927   1.279   3.282   2.904
 1955SOL    HW217928   1.354   3.365   2.784
 1956SOL     OW17929   1.368   2.310   2.550
 1956SOL    HW117930   1.367   2.302   2.451
 1956SOL    HW217931   1.457   2.282   2.585
 1957SOL     OW17932   1.095   3.326   4.383
 1957SOL    HW117933   1.186   3.360   4.406
 1957SOL    HW217934   1.067   3.364   4.295
 1958SOL     OW17935   1.606   3.122   4.241
 1958SOL    HW117936   1.617   3.206   4.295
 1958SOL    HW217937   1.696   3.085   4.218
 1959SOL     OW17938   1.686   2.404   5.105
 1959SOL    HW117939   1.588   2.396   5.127
 1959SOL    HW217940   1.739   2.393   5.189
 1960SOL     OW17941   0.353   2.041   3.710
 1960SOL    HW117942   0.266   2.038   3.661
 1960SOL    HW217943   0.404   2.123   3.682
 1961SOL     OW17944   1.340   3.430   4.485
 1961SOL    HW117945   1.329   3.527   4.508
 1961SOL    HW217946   1.433   3.413   4.455
 1962SOL     OW17947   0.956   2.721   5.420
 1962SOL    HW117948   0.921   2.696   5.330
 1962SOL    HW217949   0.880   2.742   5.481
 1963SOL     OW17950   0.563   3.395   4.114
 1963SOL    HW117951   0.519   3.404   4.203
 1963SOL    HW217952   0.634   3.325   4.118
 1964SOL     OW17953   0.581   1.928   3.836
 1964SOL    HW117954   0.669   1.956   3.797
 1964SOL    HW217955   0.509   1.991   3.806
 1965SOL     OW17956   1.551   2.913   5.219
 1965SOL    HW117957   1.459   2.918   5.181
 1965SOL    HW217958   1.616   2.951   5.153
 1966SOL     OW17959   1.451   2.920   4.900
 1966SOL    HW117960   1.376   2.909   4.965
 1966SOL    HW217961   1.488   3.013   4.906
 1967SOL     OW17962   0.947   3.175   5.200
 1967SOL    HW117963   0.890   3.238   5.146
 1967SOL    HW217964   0.980   3.101   5.141
 1968SOL     OW17965   0.490   3.068   4.409
 1968SOL    HW117966   0.423   3.022   4.468
 1968SOL    HW217967   0.582   3.036   4.432
 1969SOL     OW17968   0.717   2.474   4.240
 1969SOL    HW117969   0.756   2.544   4.181
 1969SOL    HW217970   0.691   2.394   4.186
 1970SOL     OW17971   1.337   2.382   5.449
 1970SOL    HW117972   1.433   2.386   5.475
 1970SOL    HW217973   1.293   2.306   5.496
 1971SOL     OW17974   0.420   3.237   3.893
 1971SOL    HW117975   0.484   3.253   3.818
 1971SOL    HW217976   0.444   3.295   3.971
 1972SOL     OW17977   0.268   2.619   4.121
 1972SOL    HW117978   0.283   2.553   4.195
 1972SOL    HW217979   0.218   2.698   4.156
 1973SOL     OW17980   0.854   3.564   4.298
 1973SOL    HW117981   0.919   3.497   4.262
 1973SOL    HW217982   0.844   3.640   4.234
 1974SOL     OW17983   1.746   3.446   4.040
 1974SOL    HW117984   1.842   3.420   4.033
 1974SOL    HW217985   1.722   3.506   3.964
 1975SOL     OW17986   1.658   2.139   4.811
 1975SOL    HW117987   1.709   2.211   4.764
 1975SOL    HW217988   1.563   2.166   4.820
 1976SOL     OW17989   1.058   2.168   4.080
 1976SOL    HW117990   1.083   2.262   4.101
 1976SOL    HW217991   1.059   2.114   4.164
 1977SOL     OW17992   0.182   2.881   5.265
 1977SOL    HW117993   0.278   2.896   5.283
 1977SOL    HW217994   0.144   2.819   5.334
 1978SOL     OW17995   0.508   2.526   3.808
 1978SOL    HW117996   0.468   2.605   3.761
 1978SOL    HW217997   0.597   2.505   3.768
 1979SOL     OW17998   0.681   3.450   4.506
 1979SOL    HW117999   0.754   3.473   4.442
 1979SOL    HW218000   0.610   3.397   4.460
 1980SOL     OW18001   1.023   2.482   5.260
 1980SOL    HW118002   1.056   2.399   5.307
 1980SOL    HW218003   1.096   2.550   5.259
 1981SOL     OW18004   1.627   3.282   4.482
 1981SOL    HW118005   1.623   3.317   4.575
 1981SOL    HW218006   1.686   3.341   4.426
 1982SOL     OW18007   0.358   3.103   4.158
 1982SOL    HW118008   0.404   3.077   4.243
 1982SOL    HW218009   0.378   3.035   4.087
 1983SOL     OW18010   1.216   2.158   3.869
 1983SOL    HW118011   1.310   2.128   3.887
 1983SOL    HW218012   1.164   2.158   3.955
 1984SOL     OW18013   0.368   2.363   4.964
 1984SOL    HW118014   0.358   2.276   4.916
 1984SOL    HW218015   0.304   2.430   4.927
 1985SOL     OW18016   1.450   2.643   5.002
 1985SOL    HW118017   1.454   2.737   4.967
 1985SOL    HW218018   1.543   2.612   5.024
 1986SOL     OW18019   0.403   2.135   4.123
 1986SOL    HW118020   0.357   2.175   4.202
 1986SOL    HW218021   0.351   2.154   4.041
 1987SOL     OW18022   1.531   3.662   5.035
 1987SOL    HW118023   1.474   3.613   4.969
 1987SOL    HW218024   1.617   3.689   4.992
 1988SOL     OW18025   1.826   2.380   4.890
 1988SOL    HW118026   1.883   2.462   4.892
 1988SOL    HW218027   1.767   2.379   4.970
 1989SOL     OW18028   1.843   3.606   4.803
 1989SOL    HW118029   1.889   3.616   4.891
 1989SOL    HW218030   1.910   3.609   4.730
 1990SOL     OW18031   0.956   2.346   4.365
 1990SOL    HW118032   1.032   2.374   4.424
 1990SOL    HW218033   0.912   2.426   4.326
 1991SOL     OW18034   1.191   2.810   3.882
 1991SOL    HW118035   1.228   2.760   3.960
 1991SOL    HW218036   1.121   2.755   3.837
 1992SOL     OW18037   1.033   2.232   5.503
 1992SOL    HW118038   1.096   2.237   5.580
 1992SOL    HW218039   0.941   2.210   5.536
 1993SOL     OW18040   1.774   2.479   3.961
 1993SOL    HW118041   1.795   2.398   3.907
 1993SOL    HW218042   1.791   2.460   4.058
 1994SOL     OW18043   1.068   3.617   3.869
 1994SOL    HW118044   1.102   3.530   3.834
 1994SOL    HW218045   1.036   3.605   3.963
 1995SOL     OW18046   0.749   1.884   5.401
 1995SOL    HW118047   0.756   1.790   5.368
 1995SOL    HW218048   0.806   1.894   5.483
 1996SOL     OW18049   1.672   2.485   4.669
 1996SOL    HW118050   1.657   2.576   4.706
 1996SOL    HW218051   1.742   2.438   4.723
 1997SOL     OW18052   1.082   3.151   5.435
 1997SOL    HW118053   1.104   3.061   5.397
 1997SOL    HW218054   1.017   3.198   5.376
 1998SOL     OW18055   0.737   2.993   5.439
 1998SOL    HW118056   0.708   3.070   5.496
 1998SOL    HW218057   0.747   2.912   5.497
 1999SOL     OW18058   1.372   1.857   4.545
 1999SOL    HW118059   1.321   1.941   4.527
 1999SOL    HW218060   1.458   1.859   4.494
 2000SOL     OW18061   1.727   2.063   5.474
 2000SOL    HW118062   1.704   2.084   5.569
 2000SOL    HW218063   1.703   1.968   5.454
 2001SOL     OW18064   0.030   2.467   4.218
 2001SOL    HW118065   0.032   2.418   4.305
 2001SOL    HW218066   0.032   2.566   4.236
 2002SOL     OW18067   1.002   2.725   4.613
 2002SOL    HW118068   1.028   2.805   4.559
 2002SOL    HW218069   0.996   2.645   4.553
 2003SOL     OW18070   0.203   3.352   4.072
 2003SOL    HW118071   0.230   3.258   4.092
 2003SOL    HW218072   0.228   3.374   3.978
 2004SOL     OW18073   1.485   3.221   4.946
 2004SOL    HW118074   1.456   3.258   4.857
 2004SOL    HW218075   1.407   3.221   5.008
 2005SOL     OW18076   0.217   3.495   4.309
 2005SOL    HW118077   0.133   3.546   4.327
 2005SOL    HW218078   0.208   3.444   4.224
 2006SOL     OW18079   1.738   3.292   4.984
 2006SOL    HW118080   1.769   3.306   5.078
 2006SOL    HW218081   1.639   3.279   4.983
 2007SOL     OW18082   0.490   2.792   3.711
 2007SOL    HW118083   0.459   2.826   3.623
 2007SOL    HW218084   0.494   2.867   3.777
 2008SOL     OW18085   1.007   2.979   5.010
 2008SOL    HW118086   1.057   2.894   4.994
 2008SOL    HW218087   0.961   3.006   4.925
 2009SOL     OW18088   0.094   2.684   3.884
 2009SOL    HW118089   0.154   2.631   3.944
 2009SOL    HW218090   0.000   2.652   3.896
 2010SOL     OW18091   1.614   2.682   4.084
 2010SOL    HW118092   1.682   2.616   4.051
 2010SOL    HW218093   1.629   2.770   4.040
 2011SOL     OW18094   0.862   3.669   4.732
 2011SOL    HW118095   0.908   3.602   4.674
 2011SOL    HW218096   0.788   3.625   4.782
 2012SOL     OW18097   0.769   2.738   3.768
 2012SOL    HW118098   0.798   2.657   3.819
 2012SOL    HW218099   0.669   2.737   3.759
 2013SOL     OW18100   1.365   2.270   4.114
 2013SOL    HW118101   1.302   2.328   4.062
 2013SOL    HW218102   1.458   2.304   4.102
 2014SOL     OW18103   0.262   2.471   5.214
 2014SOL    HW118104   0.282   2.376   5.189
 2014SOL    HW218105   0.225   2.474   5.307
 2015SOL     OW18106   1.042   2.747   4.869
 2015SOL    HW118107   1.036   2.733   4.770
 2015SOL    HW218108   0.961   2.708   4.913
 2016SOL     OW18109   1.633   2.281   4.184
 2016SOL    HW118110   1.729   2.252   4.181
 2016SOL    HW218111   1.594   2.259   4.273
 2017SOL     OW18112   0.917   3.356   4.621
 2017SOL    HW118113   0.975   3.367   4.540
 2017SOL    HW218114   0.823   3.380   4.599
 2018SOL     OW18115   0.867   2.222   3.906
 2018SOL    HW118116   0.776   2.235   3.944
 2018SOL    HW218117   0.927   2.182   3.976
 2019SOL     OW18118   0.978   3.167   3.841
 2019SOL    HW118119   1.031   3.107   3.901
 2019SOL    HW218120   1.017   3.168   3.750
 2020SOL     OW18121   1.729   3.462   4.326
 2020SOL    HW118122   1.696   3.555   4.345
 2020SOL    HW218123   1.727   3.446   4.227
 2021SOL     OW18124   1.144   2.735   4.315
 2021SOL    HW118125   1.209   2.763   4.386
 2021SOL    HW218126   1.065   2.796   4.317
 2022SOL     OW18127   0.892   3.461   5.339
 2022SOL    HW118128   0.880   3.392   5.268
 2022SOL    HW218129   0.855   3.426   5.426
 2023SOL     OW18130   1.336   2.775   4.518
 2023SOL    HW118131   1.357   2.717   4.596
 2023SOL    HW218132   1.345   2.871   4.544
 2024SOL     OW18133   0.292   2.904   4.564
 2024SOL    HW118134   0.215   2.966   4.557
 2024SOL    HW218135   0.329   2.905   4.657
 2025SOL     OW18136   0.925   2.852   4.263
 2025SOL    HW118137   0.912   2.763   4.220
 2025SOL    HW218138   0.856   2.866   4.334
 2026SOL     OW18139   1.229   3.240   5.102
 2026SOL    HW118140   1.262   3.325   5.143
 2026SOL    HW218141   1.130   3.236   5.109
 2027SOL     OW18142   0.036   2.157   4.166
 2027SOL    HW118143   0.096   2.108   4.104
 2027SOL    HW218144   0.091   2.209   4.231
 2028SOL     OW18145   1.659   3.655   3.857
 2028SOL    HW118146   1.749   3.699   3.859
 2028SOL    HW218147   1.658   3.586   3.785
 2029SOL     OW18148   0.060   3.649   5.086
 2029SOL    HW118149   0.068   3.749   5.084
 2029SOL    HW218150   0.036   3.620   5.179
 2030SOL     OW18151   0.841   2.668   4.080
 2030SOL    HW118152   0.752   2.696   4.045
 2030SOL    HW218153   0.882   2.602   4.016
 2031SOL     OW18154   0.360   3.584   3.890
 2031SOL    HW118155   0.452   3.614   3.865
 2031SOL    HW218156   0.335   3.623   3.979
 2032SOL     OW18157   1.336   3.606   4.827
 2032SOL    HW118158   1.355   3.669   4.753
 2032SOL    HW218159   1.344   3.512   4.794
 2033SOL     OW18160   0.041   3.001   4.639
 2033SOL    HW118161  -0.049   3.017   4.600
 2033SOL    HW218162   0.039   2.917   4.694
 2034SOL     OW18163   0.792   1.906   4.089
 2034SOL    HW118164   0.753   1.895   3.998
 2034SOL    HW218165   0.748   1.982   4.136
 2035SOL     OW18166   0.037   3.042   4.183
 2035SOL    HW118167   0.115   3.100   4.207
 2035SOL    HW218168   0.056   2.993   4.098
 2036SOL     OW18169   1.567   2.170   5.267
 2036SOL    HW118170   1.506   2.248   5.264
 2036SOL    HW218171   1.622   2.174   5.350
 2037SOL     OW18172   1.283   2.116   4.558
 2037SOL    HW118173   1.282   2.194   4.495
 2037SOL    HW218174   1.326   2.143   4.644
 2038SOL     OW18175   1.403   1.922   3.854
 2038SOL    HW118176   1.483   1.862   3.851
 2038SOL    HW218177   1.329   1.875   3.902
 2039SOL     OW18178   1.616   1.894   5.288
 2039SOL    HW118179   1.642   1.851   5.202
 2039SOL    HW218180   1.566   1.978   5.270
 2040SOL     OW18181   0.718   2.153   4.420
 2040SOL    HW118182   0.707   2.095   4.501
 2040SOL    HW218183   0.803   2.205   4.428
 2041SOL     OW18184   1.298   2.504   4.812
 2041SOL    HW118185   1.352   2.544   4.738
 2041SOL    HW218186   1.336   2.533   4.900
 2042SOL     OW18187   1.591   1.910   4.128
 2042SOL    HW118188   1.598   1.864   4.040
 2042SOL    HW218189   1.495   1.920   4.153
 2043SOL     OW18190   0.567   3.225   5.491
 2043SOL    HW118191   0.528   3.288   5.424
 2043SOL    HW218192   0.650   3.265   5.531
 2044SOL     OW18193   0.443   2.957   5.323
 2044SOL    HW118194   0.462   2.981   5.228
 2044SOL    HW218195   0.436   3.040   5.378
 2045SOL     OW18196   0.104   3.247   4.797
 2045SOL    HW118197   0.073   3.173   4.738
 2045SOL    HW218198   0.036   3.265   4.868
 2046SOL     OW18199   1.190   2.448   4.530
 2046SOL    HW118200   1.272   2.425   4.478
 2046SOL    HW218201   1.185   2.389   4.611
 2047SOL     OW18202   1.790   2.475   5.366
 2047SOL    HW118203   1.779   2.561   5.315
 2047SOL    HW218204   1.884   2.466   5.396
 2048SOL     OW18205   1.361   2.248   4.785
 2048SOL    HW118206   1.335   2.345   4.791
 2048SOL    HW218207   1.361   2.208   4.877
 2049SOL     OW18208   1.591   2.380   5.536
 2049SOL    HW118209   1.671   2.405   5.480
 2049SOL    HW218210   1.622   2.345   5.624
 2050SOL     OW18211   1.302   2.683   4.116
 2050SOL    HW118212   1.248   2.681   4.200
 2050SOL    HW218213   1.379   2.746   4.127
 2051SOL     OW18214   1.599   2.779   4.336
 2051SOL    HW118215   1.613   2.742   4.243
 2051SOL    HW218216   1.510   2.749   4.370
 2052SOL     OW18217   1.755   2.716   5.231
 2052SOL    HW118218   1.657   2.737   5.233
 2052SOL    HW218219   1.804   2.792   5.190
 2053SOL     OW18220   1.609   2.136   3.910
 2053SOL    HW118221   1.614   2.178   4.001
 2053SOL    HW218222   1.542   2.061   3.912
 2054SOL     OW18223   0.756   3.351   5.130
 2054SOL    HW118224   0.693   3.429   5.137
 2054SOL    HW218225   0.724   3.289   5.058
 2055SOL     OW18226   0.027   3.560   5.339
 2055SOL    HW118227   0.099   3.546   5.407
 2055SOL    HW218228  -0.062   3.563   5.384
 2056SOL     OW18229   0.195   2.216   4.363
 2056SOL    HW118230   0.138   2.271   4.424
 2056SOL    HW218231   0.265   2.168   4.416
 2057SOL     OW18232   1.367   3.448   5.226
 2057SOL    HW118233   1.320   3.516   5.281
 2057SOL    HW218234   1.434   3.494   5.167
 2058SOL     OW18235   0.332   2.407   3.961
 2058SOL    HW118236   0.404   2.436   3.898
 2058SOL    HW218237   0.288   2.487   4.001
 2059SOL     OW18238   1.718   2.069   5.064
 2059SOL    HW118239   1.674   2.117   5.140
 2059SOL    HW218240   1.696   2.115   4.978
 2060SOL     OW18241   0.447   3.670   4.427
 2060SOL    HW118242   0.371   3.636   4.372
 2060SOL    HW218243   0.533   3.633   4.392
 2061SOL     OW18244   0.372   3.179   4.872
 2061SOL    HW118245   0.384   3.195   4.969
 2061SOL    HW218246   0.285   3.219   4.842
 2062SOL     OW18247   1.256   3.383   5.518
 2062SOL    HW118248   1.215   3.298   5.484
 2062SOL    HW218249   1.236   3.457   5.454
 2063SOL     OW18250   0.746   3.103   4.208
 2063SOL    HW118251   0.789   3.034   4.150
 2063SOL    HW218252   0.710   3.060   4.291
 2064SOL     OW18253   0.378   2.654   4.410
 2064SOL    HW118254   0.370   2.752   4.428
 2064SOL    HW218255   0.462   2.620   4.451
 2065SOL     OW18256   0.224   2.134   3.925
 2065SOL    HW118257   0.268   2.103   3.842
 2065SOL    HW218258   0.225   2.234   3.929
 2066SOL     OW18259   0.077   2.386   4.536
 2066SOL    HW118260   0.041   2.479   4.528
 2066SOL    HW218261   0.160   2.387   4.592
 2067SOL     OW18262   0.512   2.973   3.922
 2067SOL    HW118263   0.612   2.973   3.933
 2067SOL    HW218264   0.481   3.066   3.901
 2068SOL     OW18265   1.138   2.565   3.738
 2068SOL    HW118266   1.069   2.622   3.694
 2068SOL    HW218267   1.219   2.559   3.679
 2069SOL     OW18268   0.873   2.484   3.881
 2069SOL    HW118269   0.963   2.485   3.836
 2069SOL    HW218270   0.850   2.390   3.906
 2070SOL     OW18271   1.324   2.001   4.175
 2070SOL    HW118272   1.234   1.985   4.216
 2070SOL    HW218273   1.332   2.097   4.149
 2071SOL     OW18274   1.438   2.401   5.191
 2071SOL    HW118275   1.390   2.424   5.275
 2071SOL    HW218276   1.372   2.371   5.122
 2072SOL     OW18277   0.073   1.916   3.835
 2072SOL    HW118278   0.136   1.839   3.843
 2072SOL    HW218279   0.093   1.984   3.906
 2073SOL     OW18280   0.346   2.891   4.836
 2073SOL    HW118281   0.357   2.846   4.925
 2073SOL    HW218282   0.373   2.987   4.843
 2074SOL     OW18283   1.645   2.903   3.936
 2074SOL    HW118284   1.716   2.973   3.938
 2074SOL    HW218285   1.632   2.873   3.841
 2075SOL     OW18286   0.770   2.873   5.175
 2075SOL    HW118287   0.839   2.925   5.125
 2075SOL    HW218288   0.765   2.906   5.270
 2076SOL     OW18289   1.162   2.894   5.335
 2076SOL    HW118290   1.084   2.840   5.368
 2076SOL    HW218291   1.243   2.872   5.390
 2077SOL     OW18292   1.091   2.076   4.331
 2077SOL    HW118293   1.150   2.136   4.386
 2077SOL    HW218294   1.018   2.040   4.388
 2078SOL     OW18295   1.201   3.608   5.371
 2078SOL    HW118296   1.106   3.606   5.339
 2078SOL    HW218297   1.222   3.699   5.408
 2079SOL     OW18298   0.619   1.953   4.602
 2079SOL    HW118299   0.547   1.886   4.588
 2079SOL    HW218300   0.701   1.907   4.637
 2080SOL     OW18301   0.319   3.618   4.969
 2080SOL    HW118302   0.299   3.600   4.873
 2080SOL    HW218303   0.246   3.580   5.026
 2081SOL     OW18304   1.012   3.082   4.514
 2081SOL    HW118305   1.051   3.125   4.433
 2081SOL    HW218306   1.085   3.065   4.581
 2082SOL     OW18307   0.706   2.810   4.716
 2082SOL    HW118308   0.704   2.726   4.661
 2082SOL    HW218309   0.655   2.796   4.801
 2083SOL     OW18310   0.045   2.820   4.842
 2083SOL    HW118311   0.134   2.798   4.882
 2083SOL    HW218312  -0.010   2.736   4.838
 2084SOL     OW18313   0.273   1.865   4.122
 2084SOL    HW118314   0.311   1.953   4.149
 2084SOL    HW218315   0.196   1.841   4.182
 2085SOL     OW18316   0.689   2.482   5.450
 2085SOL    HW118317   0.641   2.533   5.379
 2085SOL    HW218318   0.782   2.461   5.420
 2086SOL     OW18319   0.095   2.952   3.942
 2086SOL    HW118320   0.085   2.855   3.921
 2086SOL    HW218321   0.148   2.997   3.870
 2087SOL     OW18322   1.792   2.064   4.543
 2087SOL    HW118323   1.747   2.046   4.630
 2087SOL    HW218324   1.890   2.081   4.559
 2088SOL     OW18325   0.840   3.040   4.795
 2088SOL    HW118326   0.791   2.955   4.776
 2088SOL    HW218327   0.910   3.055   4.726
 2089SOL     OW18328   1.178   2.463   4.004
 2089SOL    HW118329   1.230   2.535   4.050
 2089SOL    HW218330   1.191   2.470   3.906
 2090SOL     OW18331   1.539   3.278   5.331
 2090SOL    HW118332   1.524   3.180   5.345
 2090SOL    HW218333   1.456   3.320   5.295
 2091SOL     OW18334   0.296   2.720   5.071
 2091SOL    HW118335   0.260   2.630   5.097
 2091SOL    HW218336   0.257   2.790   5.131
 2092SOL     OW18337   0.798   3.346   3.729
 2092SOL    HW118338   0.773   3.423   3.788
 2092SOL    HW218339   0.862   3.286   3.777
 2093SOL     OW18340   0.616   3.553   4.763
 2093SOL    HW118341   0.636   3.523   4.670
 2093SOL    HW218342   0.541   3.498   4.800
 2094SOL     OW18343   0.759   2.964   4.480
 2094SOL    HW118344   0.848   3.010   4.480
 2094SOL    HW218345   0.752   2.904   4.559
 2095SOL     OW18346   0.937   3.311   4.149
 2095SOL    HW118347   0.987   3.299   4.064
 2095SOL    HW218348   0.883   3.228   4.168
 2096SOL     OW18349   0.127   2.658   4.549
 2096SOL    HW118350   0.222   2.649   4.517
 2096SOL    HW218351   0.093   2.750   4.528
 2097SOL     OW18352   0.064   2.775   5.476
 2097SOL    HW118353  -0.021   2.726   5.457
 2097SOL    HW218354   0.091   2.762   5.571
 2098SOL     OW18355   0.961   3.684   5.182
 2098SOL    HW118356   0.933   3.597   5.223
 2098SOL    HW218357   0.905   3.758   5.219
 2099SOL     OW18358   1.190   3.031   4.712
 2099SOL    HW118359   1.174   3.125   4.743
 2099SOL    HW218360   1.193   2.970   4.792
 2100SOL     OW18361   0.464   2.302   5.476
 2100SOL    HW118362   0.500   2.249   5.399
 2100SOL    HW218363   0.525   2.379   5.494
 2101SOL     OW18364   0.528   2.719   4.048
 2101SOL    HW118365   0.478   2.784   3.992
 2101SOL    HW218366   0.470   2.640   4.067
 2102SOL     OW18367   1.609   2.750   4.746
 2102SOL    HW118368   1.628   2.789   4.655
 2102SOL    HW218369   1.563   2.819   4.802
 2103SOL     OW18370   1.301   2.193   5.042
 2103SOL    HW118371   1.372   2.165   5.106
 2103SOL    HW218372   1.248   2.113   5.014
 2104SOL     OW18373   0.002   1.892   4.243
 2104SOL    HW118374  -0.085   1.879   4.196
 2104SOL    HW218375   0.010   1.987   4.273
 2105SOL     OW18376   0.439   3.412   5.309
 2105SOL    HW118377   0.381   3.477   5.358
 2105SOL    HW218378   0.501   3.462   5.249
 2106SOL     OW18379   1.795   3.299   5.250
 2106SOL    HW118380   1.823   3.392   5.272
 2106SOL    HW218381   1.702   3.283   5.283
 2107SOL     OW18382   0.449   3.358   4.372
 2107SOL    HW118383   0.447   3.259   4.385
 2107SOL    HW218384   0.358   3.391   4.349
 2108SOL     OW18385   1.090   3.475   4.960
 2108SOL    HW118386   1.016   3.539   4.978
 2108SOL    HW218387   1.169   3.524   4.922
 2109SOL     OW18388   0.299   3.605   5.459
 2109SOL    HW118389   0.342   3.689   5.425
 2109SOL    HW218390   0.324   3.592   5.555
 2110SOL     OW18391   0.159   3.141   5.330
 2110SOL    HW118392   0.138   3.046   5.303
 2110SOL    HW218393   0.090   3.202   5.292
 2111SOL     OW18394   0.248   3.506   4.734
 2111SOL    HW118395   0.190   3.426   4.748
 2111SOL    HW218396   0.272   3.513   4.637
 2112SOL     OW18397   1.056   3.033   4.105
 2112SOL    HW118398   1.136   3.069   4.153
 2112SOL    HW218399   1.014   2.960   4.161
 2113SOL     OW18400   1.647   2.300   4.469
 2113SOL    HW118401   1.666   2.386   4.516
 2113SOL    HW218402   1.715   2.231   4.497
 2114SOL     OW18403   0.790   2.972   3.955
 2114SOL    HW118404   0.862   3.031   3.920
 2114SOL    HW218405   0.830   2.888   3.991
 2115SOL     OW18406   0.861   1.948   3.807
 2115SOL    HW118407   0.936   1.882   3.819
 2115SOL    HW218408   0.892   2.039   3.835
 2116SOL     OW18409   0.540   2.377   4.419
 2116SOL    HW118410   0.578   2.288   4.445
 2116SOL    HW218411   0.607   2.427   4.364
 2117SOL     OW18412   0.528   2.935   5.073
 2117SOL    HW118413   0.624   2.915   5.093
 2117SOL    HW218414   0.517   3.033   5.055
 2118SOL     OW18415   1.750   2.978   5.042
 2118SOL    HW118416   1.764   3.076   5.056
 2118SOL    HW218417   1.807   2.947   4.966
 2119SOL     OW18418   0.233   3.087   3.734
 2119SOL    HW118419   0.225   3.099   3.635
 2119SOL    HW218420   0.292   3.158   3.772
 2120SOL     OW18421   0.660   3.526   3.894
 2120SOL    HW118422   0.635   3.621   3.878
 2120SOL    HW218423   0.627   3.498   3.984
 2121SOL     OW18424   1.310   2.949   5.118
 2121SOL    HW118425   1.254   2.908   5.189
 2121SOL    HW218426   1.290   3.047   5.112
 2122SOL     OW18427   0.577   3.565   5.118
 2122SOL    HW118428   0.626   3.645   5.082
 2122SOL    HW218429   0.485   3.563   5.079
 2123SOL     OW18430   0.220   2.446   5.480
 2123SOL    HW118431   0.237   2.347   5.485
 2123SOL    HW218432   0.284   2.494   5.541
 2124SOL     OW18433   1.659   3.407   4.719
 2124SOL    HW118434   1.631   3.500   4.743
 2124SOL    HW218435   1.709   3.366   4.795
 2125SOL     OW18436   0.055   2.780   4.280
 2125SOL    HW118437   0.062   2.879   4.267
 2125SOL    HW218438  -0.036   2.757   4.314
 2126SOL     OW18439   0.564   2.578   5.218
 2126SOL    HW118440   0.470   2.548   5.199
 2126SOL    HW218441   0.573   2.675   5.195
 2127SOL     OW18442   1.631   2.954   4.530
 2127SOL    HW118443   1.593   3.043   4.503
 2127SOL    HW218444   1.631   2.892   4.452
 2128SOL     OW18445   0.789   2.360   4.699
 2128SOL    HW118446   0.881   2.388   4.726
 2128SOL    HW218447   0.721   2.411   4.753
 2129SOL     OW18448   0.642   3.211   4.926
 2129SOL    HW118449   0.555   3.210   4.877
 2129SOL    HW218450   0.708   3.151   4.879
 2130SOL     OW18451   0.208   2.553   4.840
 2130SOL    HW118452   0.246   2.612   4.911
 2130SOL    HW218453   0.191   2.606   4.758
 2131SOL     OW18454   0.379   3.199   5.138
 2131SOL    HW118455   0.398   3.287   5.182
 2131SOL    HW218456   0.284   3.173   5.156
 2132SOL     OW18457   1.622   3.515   5.486
 2132SOL    HW118458   1.591   3.437   5.431
 2132SOL    HW218459   1.591   3.600   5.444
 2133SOL     OW18460   1.330   3.053   4.207
 2133SOL    HW118461   1.429   3.057   4.223
 2133SOL    HW218462   1.313   3.039   4.109
 2134SOL     OW18463   0.683   2.219   4.155
 2134SOL    HW118464   0.585   2.213   4.135
 2134SOL    HW218465   0.702   2.176   4.243
 2135SOL     OW18466   1.603   1.902   4.414
 2135SOL    HW118467   1.598   1.943   4.323
 2135SOL    HW218468   1.684   1.936   4.461
 2136SOL     OW18469   1.206   2.658   5.107
 2136SOL    HW118470   1.305   2.667   5.097
 2136SOL    HW218471   1.162   2.660   5.017
 2137SOL     OW18472   0.700   2.618   4.509
 2137SOL    HW118473   0.722   2.540   4.567
 2137SOL    HW218474   0.709   2.592   4.413
 2138SOL     OW18475   1.365   3.325   4.721
 2138SOL    HW118476   1.279   3.282   4.750
 2138SOL    HW218477   1.354   3.365   4.630
 2139SOL     OW18478   1.368   2.310   4.396
 2139SOL    HW118479   1.367   2.302   4.297
 2139SOL    HW218480   1.457   2.282   4.431
 2140SOL     OW18481   1.686   2.404   6.950
 2140SOL    HW118482   1.588   2.396   6.972
 2140SOL    HW218483   1.739   2.393   7.034
 2141SOL     OW18484   1.340   3.430   6.330
 2141SOL    HW118485   1.329   3.527   6.353
 2141SOL    HW218486   1.433   3.413   6.300
 2142SOL     OW18487   1.218   1.941   6.888
 2142SOL    HW118488   1.142   1.896   6.935
 2142SOL    HW218489   1.247   1.886   6.810
 2143SOL     OW18490   0.956   2.721   7.265
 2143SOL    HW118491   0.921   2.696   7.175
 2143SOL    HW218492   0.880   2.742   7.326
 2144SOL     OW18493   0.581   1.928   5.681
 2144SOL    HW118494   0.669   1.956   5.642
 2144SOL    HW218495   0.509   1.991   5.651
 2145SOL     OW18496   1.551   2.913   7.064
 2145SOL    HW118497   1.459   2.918   7.026
 2145SOL    HW218498   1.616   2.951   6.998
 2146SOL     OW18499   1.451   2.920   6.745
 2146SOL    HW118500   1.376   2.909   6.810
 2146SOL    HW218501   1.488   3.013   6.751
 2147SOL     OW18502   0.947   3.175   7.045
 2147SOL    HW118503   0.890   3.238   6.991
 2147SOL    HW218504   0.980   3.101   6.986
 2148SOL     OW18505   0.717   2.474   6.085
 2148SOL    HW118506   0.756   2.544   6.026
 2148SOL    HW218507   0.691   2.394   6.031
 2149SOL     OW18508   1.337   2.382   7.294
 2149SOL    HW118509   1.433   2.386   7.320
 2149SOL    HW218510   1.293   2.306   7.341
 2150SOL     OW18511   0.420   3.237   5.738
 2150SOL    HW118512   0.484   3.253   5.663
 2150SOL    HW218513   0.444   3.295   5.816
 2151SOL     OW18514   0.571   2.193   6.548
 2151SOL    HW118515   0.647   2.258   6.544
 2151SOL    HW218516   0.601   2.104   6.515
 2152SOL     OW18517   0.268   2.619   5.966
 2152SOL    HW118518   0.283   2.553   6.040
 2152SOL    HW218519   0.218   2.698   6.001
 2153SOL     OW18520   0.854   3.564   6.143
 2153SOL    HW118521   0.919   3.497   6.107
 2153SOL    HW218522   0.844   3.640   6.079
 2154SOL     OW18523   1.658   2.139   6.656
 2154SOL    HW118524   1.709   2.211   6.609
 2154SOL    HW218525   1.563   2.166   6.665
 2155SOL     OW18526   1.058   2.168   5.925
 2155SOL    HW118527   1.083   2.262   5.946
 2155SOL    HW218528   1.059   2.114   6.009
 2156SOL     OW18529   0.508   2.526   5.653
 2156SOL    HW118530   0.468   2.605   5.606
 2156SOL    HW218531   0.597   2.505   5.613
 2157SOL     OW18532   1.023   2.482   7.105
 2157SOL    HW118533   1.056   2.399   7.152
 2157SOL    HW218534   1.096   2.550   7.104
 2158SOL     OW18535   1.627   3.282   6.327
 2158SOL    HW118536   1.623   3.317   6.420
 2158SOL    HW218537   1.686   3.341   6.271
 2159SOL     OW18538   1.216   2.158   5.714
 2159SOL    HW118539   1.310   2.128   5.732
 2159SOL    HW218540   1.164   2.158   5.800
 2160SOL     OW18541   0.368   2.363   6.809
 2160SOL    HW118542   0.358   2.276   6.761
 2160SOL    HW218543   0.304   2.430   6.772
 2161SOL     OW18544   1.450   2.643   6.847
 2161SOL    HW118545   1.454   2.737   6.812
 2161SOL    HW218546   1.543   2.612   6.869
 2162SOL     OW18547   0.403   2.135   5.968
 2162SOL    HW118548   0.357   2.175   6.047
 2162SOL    HW218549   0.351   2.154   5.886
 2163SOL     OW18550   1.531   3.662   6.880
 2163SOL    HW118551   1.474   3.613   6.814
 2163SOL    HW218552   1.617   3.689   6.837
 2164SOL     OW18553   1.826   2.380   6.735
 2164SOL    HW118554   1.883   2.462   6.737
 2164SOL    HW218555   1.767   2.379   6.815
 2165SOL     OW18556   1.843   3.606   6.648
 2165SOL    HW118557   1.889   3.616   6.736
 2165SOL    HW218558   1.910   3.609   6.575
 2166SOL     OW18559   0.956   2.346   6.210
 2166SOL    HW118560   1.032   2.374   6.269
 2166SOL    HW218561   0.912   2.426   6.171
 2167SOL     OW18562   1.033   2.232   7.348
 2167SOL    HW118563   1.096   2.237   7.425
 2167SOL    HW218564   0.941   2.210   7.381
 2168SOL     OW18565   1.774   2.479   5.806
 2168SOL    HW118566   1.795   2.398   5.752
 2168SOL    HW218567   1.791   2.460   5.903
 2169SOL     OW18568   1.068   3.617   5.714
 2169SOL    HW118569   1.102   3.530   5.679
 2169SOL    HW218570   1.036   3.605   5.808
 2170SOL     OW18571   0.749   1.884   7.246
 2170SOL    HW118572   0.756   1.790   7.213
 2170SOL    HW218573   0.806   1.894   7.328
 2171SOL     OW18574   1.672   2.485   6.514
 2171SOL    HW118575   1.657   2.576   6.551
 2171SOL    HW218576   1.742   2.438   6.568
 2172SOL     OW18577   1.082   3.151   7.280
 2172SOL    HW118578   1.104   3.061   7.242
 2172SOL    HW218579   1.017   3.198   7.221
 2173SOL     OW18580   0.737   2.993   7.284
 2173SOL    HW118581   0.708   3.070   7.341
 2173SOL    HW218582   0.747   2.912   7.342
 2174SOL     OW18583   1.727   2.063   7.319
 2174SOL    HW118584   1.704   2.084   7.414
 2174SOL    HW218585   1.703   1.968   7.299
 2175SOL     OW18586   0.030   2.467   6.063
 2175SOL    HW118587   0.032   2.418   6.150
 2175SOL    HW218588   0.032   2.566   6.081
 2176SOL     OW18589   1.002   2.725   6.458
 2176SOL    HW118590   1.028   2.805   6.404
 2176SOL    HW218591   0.996   2.645   6.398
 2177SOL     OW18592   0.203   3.352   5.917
 2177SOL    HW118593   0.230   3.258   5.937
 2177SOL    HW218594   0.228   3.374   5.823
 2178SOL     OW18595   1.485   3.221   6.791
 2178SOL    HW118596   1.456   3.258   6.702
 2178SOL    HW218597   1.407   3.221   6.853
 2179SOL     OW18598   0.217   3.495   6.154
 2179SOL    HW118599   0.133   3.546   6.172
 2179SOL    HW218600   0.208   3.444   6.069
 2180SOL     OW18601   1.738   3.292   6.829
 2180SOL    HW118602   1.769   3.306   6.923
 2180SOL    HW218603   1.639   3.279   6.828
 2181SOL     OW18604   0.490   2.792   5.556
 2181SOL    HW118605   0.459   2.826   5.468
 2181SOL    HW218606   0.494   2.867   5.622
 2182SOL     OW18607   1.007   2.979   6.855
 2182SOL    HW118608   1.057   2.894   6.839
 2182SOL    HW218609   0.961   3.006   6.770
 2183SOL     OW18610   0.094   2.684   5.729
 2183SOL    HW118611   0.154   2.631   5.789
 2183SOL    HW218612   0.000   2.652   5.741
 2184SOL     OW18613   1.614   2.682   5.929
 2184SOL    HW118614   1.682   2.616   5.896
 2184SOL    HW218615   1.629   2.770   5.885
 2185SOL     OW18616   0.862   3.669   6.577
 2185SOL    HW118617   0.908   3.602   6.519
 2185SOL    HW218618   0.788   3.625   6.627
 2186SOL     OW18619   0.769   2.738   5.613
 2186SOL    HW118620   0.798   2.657   5.664
 2186SOL    HW218621   0.669   2.737   5.604
 2187SOL     OW18622   0.262   2.471   7.059
 2187SOL    HW118623   0.282   2.376   7.034
 2187SOL    HW218624   0.225   2.474   7.152
 2188SOL     OW18625   0.144   2.126   6.949
 2188SOL    HW118626   0.216   2.136   6.880
 2188SOL    HW218627   0.055   2.125   6.904
 2189SOL     OW18628   1.042   2.747   6.714
 2189SOL    HW118629   1.036   2.733   6.615
 2189SOL    HW218630   0.961   2.708   6.758
 2190SOL     OW18631   1.633   2.281   6.029
 2190SOL    HW118632   1.729   2.252   6.026
 2190SOL    HW218633   1.594   2.259   6.118
 2191SOL     OW18634   0.867   2.222   5.751
 2191SOL    HW118635   0.776   2.235   5.789
 2191SOL    HW218636   0.927   2.182   5.821
 2192SOL     OW18637   1.729   3.462   6.171
 2192SOL    HW118638   1.696   3.555   6.190
 2192SOL    HW218639   1.727   3.446   6.072
 2193SOL     OW18640   1.144   2.735   6.160
 2193SOL    HW118641   1.209   2.763   6.231
 2193SOL    HW218642   1.065   2.796   6.162
 2194SOL     OW18643   0.892   3.461   7.184
 2194SOL    HW118644   0.880   3.392   7.113
 2194SOL    HW218645   0.855   3.426   7.271
 2195SOL     OW18646   0.925   2.852   6.108
 2195SOL    HW118647   0.912   2.763   6.065
 2195SOL    HW218648   0.856   2.866   6.179
 2196SOL     OW18649   1.229   3.240   6.947
 2196SOL    HW118650   1.262   3.325   6.988
 2196SOL    HW218651   1.130   3.236   6.954
 2197SOL     OW18652   0.036   2.157   6.011
 2197SOL    HW118653   0.096   2.108   5.949
 2197SOL    HW218654   0.091   2.209   6.076
 2198SOL     OW18655   0.823   2.622   6.860
 2198SOL    HW118656   0.825   2.708   6.911
 2198SOL    HW218657   0.880   2.554   6.907
 2199SOL     OW18658   0.060   3.649   6.931
 2199SOL    HW118659   0.068   3.749   6.929
 2199SOL    HW218660   0.036   3.620   7.024
 2200SOL     OW18661   0.841   2.668   5.925
 2200SOL    HW118662   0.752   2.696   5.890
 2200SOL    HW218663   0.882   2.602   5.861
 2201SOL     OW18664   0.363   2.386   6.464
 2201SOL    HW118665   0.419   2.379   6.381
 2201SOL    HW218666   0.420   2.364   6.544
 2202SOL     OW18667   0.360   3.584   5.735
 2202SOL    HW118668   0.452   3.614   5.710
 2202SOL    HW218669   0.335   3.623   5.824
 2203SOL     OW18670   1.336   3.606   6.672
 2203SOL    HW118671   1.355   3.669   6.598
 2203SOL    HW218672   1.344   3.512   6.639
 2204SOL     OW18673   0.041   3.001   6.484
 2204SOL    HW118674  -0.049   3.017   6.445
 2204SOL    HW218675   0.039   2.917   6.539
 2205SOL     OW18676   0.037   3.042   6.028
 2205SOL    HW118677   0.115   3.100   6.052
 2205SOL    HW218678   0.056   2.993   5.943
 2206SOL     OW18679   1.567   2.170   7.112
 2206SOL    HW118680   1.506   2.248   7.109
 2206SOL    HW218681   1.622   2.174   7.195
 2207SOL     OW18682   1.616   1.894   7.133
 2207SOL    HW118683   1.642   1.851   7.047
 2207SOL    HW218684   1.566   1.978   7.115
 2208SOL     OW18685   0.718   2.153   6.265
 2208SOL    HW118686   0.707   2.095   6.346
 2208SOL    HW218687   0.803   2.205   6.273
 2209SOL     OW18688   1.298   2.504   6.657
 2209SOL    HW118689   1.352   2.544   6.583
 2209SOL    HW218690   1.336   2.533   6.745
 2210SOL     OW18691   0.443   2.957   7.168
 2210SOL    HW118692   0.462   2.981   7.073
 2210SOL    HW218693   0.436   3.040   7.223
 2211SOL     OW18694   1.790   2.475   7.211
 2211SOL    HW118695   1.779   2.561   7.160
 2211SOL    HW218696   1.884   2.466   7.241
 2212SOL     OW18697   1.361   2.248   6.630
 2212SOL    HW118698   1.335   2.345   6.636
 2212SOL    HW218699   1.361   2.208   6.722
 2213SOL     OW18700   1.591   2.380   7.381
 2213SOL    HW118701   1.671   2.405   7.325
 2213SOL    HW218702   1.622   2.345   7.469
 2214SOL     OW18703   1.755   2.716   7.076
 2214SOL    HW118704   1.657   2.737   7.078
 2214SOL    HW218705   1.804   2.792   7.035
 2215SOL     OW18706   0.756   3.351   6.975
 2215SOL    HW118707   0.693   3.429   6.982
 2215SOL    HW218708   0.724   3.289   6.903
 2216SOL     OW18709   0.147   2.146   7.240
 2216SOL    HW118710   0.165   2.135   7.142
 2216SOL    HW218711   0.049   2.142   7.257
 2217SOL     OW18712   0.027   3.560   7.184
 2217SOL    HW118713   0.099   3.546   7.252
 2217SOL    HW218714  -0.062   3.563   7.229
 2218SOL     OW18715   0.195   2.216   6.208
 2218SOL    HW118716   0.138   2.271   6.269
 2218SOL    HW218717   0.265   2.168   6.261
 2219SOL     OW18718   1.367   3.448   7.071
 2219SOL    HW118719   1.320   3.516   7.126
 2219SOL    HW218720   1.434   3.494   7.012
 2220SOL     OW18721   0.332   2.407   5.806
 2220SOL    HW118722   0.404   2.436   5.743
 2220SOL    HW218723   0.288   2.487   5.846
 2221SOL     OW18724   1.718   2.069   6.909
 2221SOL    HW118725   1.674   2.117   6.985
 2221SOL    HW218726   1.696   2.115   6.823
 2222SOL     OW18727   0.447   3.670   6.272
 2222SOL    HW118728   0.371   3.636   6.217
 2222SOL    HW218729   0.533   3.633   6.237
 2223SOL     OW18730   1.256   3.383   7.363
 2223SOL    HW118731   1.215   3.298   7.329
 2223SOL    HW218732   1.236   3.457   7.299
 2224SOL     OW18733   0.378   2.654   6.255
 2224SOL    HW118734   0.370   2.752   6.273
 2224SOL    HW218735   0.462   2.620   6.296
 2225SOL     OW18736   0.224   2.134   5.770
 2225SOL    HW118737   0.268   2.103   5.687
 2225SOL    HW218738   0.225   2.234   5.774
 2226SOL     OW18739   0.077   2.386   6.381
 2226SOL    HW118740   0.041   2.479   6.373
 2226SOL    HW218741   0.160   2.387   6.437
 2227SOL     OW18742   0.512   2.973   5.767
 2227SOL    HW118743   0.612   2.973   5.778
 2227SOL    HW218744   0.481   3.066   5.746
 2228SOL     OW18745   1.138   2.565   5.583
 2228SOL    HW118746   1.069   2.622   5.539
 2228SOL    HW218747   1.219   2.559   5.524
 2229SOL     OW18748   0.873   2.484   5.726
 2229SOL    HW118749   0.963   2.485   5.681
 2229SOL    HW218750   0.850   2.390   5.751
 2230SOL     OW18751   1.438   2.401   7.036
 2230SOL    HW118752   1.390   2.424   7.120
 2230SOL    HW218753   1.372   2.371   6.967
 2231SOL     OW18754   0.073   1.916   5.680
 2231SOL    HW118755   0.136   1.839   5.688
 2231SOL    HW218756   0.093   1.984   5.751
 2232SOL     OW18757   1.645   2.903   5.781
 2232SOL    HW118758   1.716   2.973   5.783
 2232SOL    HW218759   1.632   2.873   5.686
 2233SOL     OW18760   0.627   2.504   6.703
 2233SOL    HW118761   0.702   2.547   6.752
 2233SOL    HW218762   0.560   2.469   6.769
 2234SOL     OW18763   0.770   2.873   7.020
 2234SOL    HW118764   0.839   2.925   6.970
 2234SOL    HW218765   0.765   2.906   7.115
 2235SOL     OW18766   1.162   2.894   7.180
 2235SOL    HW118767   1.084   2.840   7.213
 2235SOL    HW218768   1.243   2.872   7.235
 2236SOL     OW18769   1.201   3.608   7.216
 2236SOL    HW118770   1.106   3.606   7.184
 2236SOL    HW218771   1.222   3.699   7.253
 2237SOL     OW18772   0.319   3.618   6.814
 2237SOL    HW118773   0.299   3.600   6.718
 2237SOL    HW218774   0.246   3.580   6.871
 2238SOL     OW18775   0.706   2.810   6.561
 2238SOL    HW118776   0.704   2.726   6.506
 2238SOL    HW218777   0.655   2.796   6.646
 2239SOL     OW18778   0.045   2.820   6.687
 2239SOL    HW118779   0.134   2.798   6.727
 2239SOL    HW218780  -0.010   2.736   6.683
 2240SOL     OW18781   0.273   1.865   5.967
 2240SOL    HW118782   0.311   1.953   5.994
 2240SOL    HW218783   0.196   1.841   6.027
 2241SOL     OW18784   0.689   2.482   7.295
 2241SOL    HW118785   0.641   2.533   7.224
 2241SOL    HW218786   0.782   2.461   7.265
 2242SOL     OW18787   0.095   2.952   5.787
 2242SOL    HW118788   0.085   2.855   5.766
 2242SOL    HW218789   0.148   2.997   5.715
 2243SOL     OW18790   1.792   2.064   6.388
 2243SOL    HW118791   1.747   2.046   6.475
 2243SOL    HW218792   1.890   2.081   6.404
 2244SOL     OW18793   0.840   3.040   6.640
 2244SOL    HW118794   0.791   2.955   6.621
 2244SOL    HW218795   0.910   3.055   6.571
 2245SOL     OW18796   1.539   3.278   7.176
 2245SOL    HW118797   1.524   3.180   7.190
 2245SOL    HW218798   1.456   3.320   7.140
 2246SOL     OW18799   0.296   2.720   6.916
 2246SOL    HW118800   0.260   2.630   6.942
 2246SOL    HW218801   0.257   2.790   6.976
 2247SOL     OW18802   0.798   3.346   5.574
 2247SOL    HW118803   0.773   3.423   5.633
 2247SOL    HW218804   0.862   3.286   5.622
 2248SOL     OW18805   0.759   2.964   6.325
 2248SOL    HW118806   0.848   3.010   6.325
 2248SOL    HW218807   0.752   2.904   6.404
 2249SOL     OW18808   0.127   2.658   6.394
 2249SOL    HW118809   0.222   2.649   6.362
 2249SOL    HW218810   0.093   2.750   6.373
 2250SOL     OW18811   0.961   3.684   7.027
 2250SOL    HW118812   0.933   3.597   7.068
 2250SOL    HW218813   0.905   3.758   7.064
 2251SOL     OW18814   1.190   3.031   6.557
 2251SOL    HW118815   1.174   3.125   6.588
 2251SOL    HW218816   1.193   2.970   6.637
 2252SOL     OW18817   0.464   2.302   7.321
 2252SOL    HW118818   0.500   2.249   7.244
 2252SOL    HW218819   0.525   2.379   7.339
 2253SOL     OW18820   0.528   2.719   5.893
 2253SOL    HW118821   0.478   2.784   5.837
 2253SOL    HW218822   0.470   2.640   5.912
 2254SOL     OW18823   1.609   2.750   6.591
 2254SOL    HW118824   1.628   2.789   6.500
 2254SOL    HW218825   1.563   2.819   6.647
 2255SOL     OW18826   1.301   2.193   6.887
 2255SOL    HW118827   1.372   2.165   6.951
 2255SOL    HW218828   1.248   2.113   6.859
 2256SOL     OW18829   0.002   1.892   6.088
 2256SOL    HW118830  -0.085   1.879   6.041
 2256SOL    HW218831   0.010   1.987   6.118
 2257SOL     OW18832   1.223   1.993   7.329
 2257SOL    HW118833   1.282   2.009   7.409
 2257SOL    HW218834   1.170   2.076   7.310
 2258SOL     OW18835   0.439   3.412   7.154
 2258SOL    HW118836   0.381   3.477   7.203
 2258SOL    HW218837   0.501   3.462   7.094
 2259SOL     OW18838   1.795   3.299   7.095
 2259SOL    HW118839   1.823   3.392   7.117
 2259SOL    HW218840   1.702   3.283   7.128
 2260SOL     OW18841   1.045   2.412   6.645
 2260SOL    HW118842   1.131   2.463   6.644
 2260SOL    HW218843   1.051   2.338   6.712
 2261SOL     OW18844   1.090   3.475   6.805
 2261SOL    HW118845   1.016   3.539   6.823
 2261SOL    HW218846   1.169   3.524   6.767
 2262SOL     OW18847   0.299   3.605   7.304
 2262SOL    HW118848   0.342   3.689   7.270
 2262SOL    HW218849   0.324   3.592   7.400
 2263SOL     OW18850   1.647   2.300   6.314
 2263SOL    HW118851   1.666   2.386   6.361
 2263SOL    HW218852   1.715   2.231   6.342
 2264SOL     OW18853   0.790   2.972   5.800
 2264SOL    HW118854   0.862   3.031   5.765
 2264SOL    HW218855   0.830   2.888   5.836
 2265SOL     OW18856   0.861   1.948   5.652
 2265SOL    HW118857   0.936   1.882   5.664
 2265SOL    HW218858   0.892   2.039   5.680
 2266SOL     OW18859   0.540   2.377   6.264
 2266SOL    HW118860   0.578   2.288   6.290
 2266SOL    HW218861   0.607   2.427   6.209
 2267SOL     OW18862   0.528   2.935   6.918
 2267SOL    HW118863   0.624   2.915   6.938
 2267SOL    HW218864   0.517   3.033   6.900
 2268SOL     OW18865   1.750   2.978   6.887
 2268SOL    HW118866   1.764   3.076   6.901
 2268SOL    HW218867   1.807   2.947   6.811
 2269SOL     OW18868   0.233   3.087   5.579
 2269SOL    HW118869   0.225   3.099   5.480
 2269SOL    HW218870   0.292   3.158   5.617
 2270SOL     OW18871   0.660   3.526   5.739
 2270SOL    HW118872   0.635   3.621   5.723
 2270SOL    HW218873   0.627   3.498   5.829
 2271SOL     OW18874   1.310   2.949   6.963
 2271SOL    HW118875   1.254   2.908   7.034
 2271SOL    HW218876   1.290   3.047   6.957
 2272SOL     OW18877   0.577   3.565   6.963
 2272SOL    HW118878   0.626   3.645   6.927
 2272SOL    HW218879   0.485   3.563   6.924
 2273SOL     OW18880   1.659   3.407   6.564
 2273SOL    HW118881   1.631   3.500   6.588
 2273SOL    HW218882   1.709   3.366   6.640
 2274SOL     OW18883   0.055   2.780   6.125
 2274SOL    HW118884   0.062   2.879   6.112
 2274SOL    HW218885  -0.036   2.757   6.159
 2275SOL     OW18886   0.564   2.578   7.063
 2275SOL    HW118887   0.470   2.548   7.044
 2275SOL    HW218888   0.573   2.675   7.040
 2276SOL     OW18889   0.789   2.360   6.544
 2276SOL    HW118890   0.881   2.388   6.571
 2276SOL    HW218891   0.721   2.411   6.598
 2277SOL     OW18892   0.642   3.211   6.771
 2277SOL    HW118893   0.555   3.210   6.722
 2277SOL    HW218894   0.708   3.151   6.724
 2278SOL     OW18895   0.208   2.553   6.685
 2278SOL    HW118896   0.246   2.612   6.756
 2278SOL    HW218897   0.191   2.606   6.603
 2279SOL     OW18898   1.622   3.515   7.331
 2279SOL    HW118899   1.591   3.437   7.276
 2279SOL    HW218900   1.591   3.600   7.289
 2280SOL     OW18901   0.683   2.219   6.000
 2280SOL    HW118902   0.585   2.213   5.980
 2280SOL    HW218903   0.702   2.176   6.088
 2281SOL     OW18904   1.206   2.658   6.952
 2281SOL    HW118905   1.305   2.667   6.942
 2281SOL    HW218906   1.162   2.660   6.862
 2282SOL     OW18907   0.700   2.618   6.354
 2282SOL    HW118908   0.722   2.540   6.412
 2282SOL    HW218909   0.709   2.592   6.258
 2283SOL     OW18910   1.365   3.325   6.566
 2283SOL    HW118911   1.279   3.282   6.595
 2283SOL    HW218912   1.354   3.365   6.475
 2284SOL     OW18913   1.095   3.326   8.074
 2284SOL    HW118914   1.186   3.360   8.097
 2284SOL    HW218915   1.067   3.364   7.986
 2285SOL     OW18916   1.606   3.122   7.932
 2285SOL    HW118917   1.617   3.206   7.986
 2285SOL    HW218918   1.696   3.085   7.909
 2286SOL     OW18919   1.686   2.404   8.796
 2286SOL    HW118920   1.588   2.396   8.818
 2286SOL    HW218921   1.739   2.393   8.880
 2287SOL     OW18922   0.353   2.041   7.401
 2287SOL    HW118923   0.266   2.038   7.352
 2287SOL    HW218924   0.404   2.123   7.373
 2288SOL     OW18925   1.340   3.430   8.176
 2288SOL    HW118926   1.329   3.527   8.199
 2288SOL    HW218927   1.433   3.413   8.146
 2289SOL     OW18928   1.218   1.941   8.734
 2289SOL    HW118929   1.142   1.896   8.781
 2289SOL    HW218930   1.247   1.886   8.656
 2290SOL     OW18931   0.956   2.721   9.111
 2290SOL    HW118932   0.921   2.696   9.021
 2290SOL    HW218933   0.880   2.742   9.172
 2291SOL     OW18934   0.563   3.395   7.805
 2291SOL    HW118935   0.519   3.404   7.894
 2291SOL    HW218936   0.634   3.325   7.809
 2292SOL     OW18937   0.581   1.928   7.527
 2292SOL    HW118938   0.669   1.956   7.488
 2292SOL    HW218939   0.509   1.991   7.497
 2293SOL     OW18940   1.551   2.913   8.910
 2293SOL    HW118941   1.459   2.918   8.872
 2293SOL    HW218942   1.616   2.951   8.844
 2294SOL     OW18943   1.451   2.920   8.591
 2294SOL    HW118944   1.376   2.909   8.656
 2294SOL    HW218945   1.488   3.013   8.597
 2295SOL     OW18946   0.947   3.175   8.891
 2295SOL    HW118947   0.890   3.238   8.837
 2295SOL    HW218948   0.980   3.101   8.832
 2296SOL     OW18949   0.717   2.474   7.931
 2296SOL    HW118950   0.756   2.544   7.872
 2296SOL    HW218951   0.691   2.394   7.877
 2297SOL     OW18952   1.337   2.382   9.140
 2297SOL    HW118953   1.433   2.386   9.166
 2297SOL    HW218954   1.293   2.306   9.187
 2298SOL     OW18955   0.571   2.193   8.394
 2298SOL    HW118956   0.647   2.258   8.390
 2298SOL    HW218957   0.601   2.104   8.361
 2299SOL     OW18958   1.746   3.446   7.731
 2299SOL    HW118959   1.842   3.420   7.724
 2299SOL    HW218960   1.722   3.506   7.655
 2300SOL     OW18961   1.658   2.139   8.502
 2300SOL    HW118962   1.709   2.211   8.455
 2300SOL    HW218963   1.563   2.166   8.511
 2301SOL     OW18964   1.058   2.168   7.771
 2301SOL    HW118965   1.083   2.262   7.792
 2301SOL    HW218966   1.059   2.114   7.855
 2302SOL     OW18967   0.182   2.881   8.956
 2302SOL    HW118968   0.278   2.896   8.974
 2302SOL    HW218969   0.144   2.819   9.025
 2303SOL     OW18970   0.508   2.526   7.499
 2303SOL    HW118971   0.468   2.605   7.452
 2303SOL    HW218972   0.597   2.505   7.459
 2304SOL     OW18973   0.681   3.450   8.197
 2304SOL    HW118974   0.754   3.473   8.133
 2304SOL    HW218975   0.610   3.397   8.151
 2305SOL     OW18976   1.023   2.482   8.951
 2305SOL    HW118977   1.056   2.399   8.998
 2305SOL    HW218978   1.096   2.550   8.950
 2306SOL     OW18979   1.627   3.282   8.173
 2306SOL    HW118980   1.623   3.317   8.266
 2306SOL    HW218981   1.686   3.341   8.117
 2307SOL     OW18982   1.216   2.158   7.560
 2307SOL    HW118983   1.310   2.128   7.578
 2307SOL    HW218984   1.164   2.158   7.646
 2308SOL     OW18985   0.368   2.363   8.655
 2308SOL    HW118986   0.358   2.276   8.607
 2308SOL    HW218987   0.304   2.430   8.618
 2309SOL     OW18988   1.450   2.643   8.693
 2309SOL    HW118989   1.454   2.737   8.658
 2309SOL    HW218990   1.543   2.612   8.715
 2310SOL     OW18991   0.403   2.135   7.814
 2310SOL    HW118992   0.357   2.175   7.893
 2310SOL    HW218993   0.351   2.154   7.732
 2311SOL     OW18994   1.531   3.662   8.726
 2311SOL    HW118995   1.474   3.613   8.660
 2311SOL    HW218996   1.617   3.689   8.683
 2312SOL     OW18997   1.826   2.380   8.581
 2312SOL    HW118998   1.883   2.462   8.583
 2312SOL    HW218999   1.767   2.379   8.661
 2313SOL     OW19000   1.843   3.606   8.494
 2313SOL    HW119001   1.889   3.616   8.582
 2313SOL    HW219002   1.910   3.609   8.421
 2314SOL     OW19003   0.956   2.346   8.056
 2314SOL    HW119004   1.032   2.374   8.115
 2314SOL    HW219005   0.912   2.426   8.017
 2315SOL     OW19006   1.191   2.810   7.573
 2315SOL    HW119007   1.228   2.760   7.651
 2315SOL    HW219008   1.121   2.755   7.528
 2316SOL     OW19009   1.033   2.232   9.194
 2316SOL    HW119010   1.096   2.237   9.271
 2316SOL    HW219011   0.941   2.210   9.227
 2317SOL     OW19012   1.774   2.479   7.652
 2317SOL    HW119013   1.795   2.398   7.598
 2317SOL    HW219014   1.791   2.460   7.749
 2318SOL     OW19015   1.068   3.617   7.560
 2318SOL    HW119016   1.102   3.530   7.525
 2318SOL    HW219017   1.036   3.605   7.654
 2319SOL     OW19018   0.749   1.884   9.092
 2319SOL    HW119019   0.756   1.790   9.059
 2319SOL    HW219020   0.806   1.894   9.174
 2320SOL     OW19021   1.672   2.485   8.360
 2320SOL    HW119022   1.657   2.576   8.397
 2320SOL    HW219023   1.742   2.438   8.414
 2321SOL     OW19024   1.082   3.151   9.126
 2321SOL    HW119025   1.104   3.061   9.088
 2321SOL    HW219026   1.017   3.198   9.067
 2322SOL     OW19027   0.737   2.993   9.130
 2322SOL    HW119028   0.708   3.070   9.187
 2322SOL    HW219029   0.747   2.912   9.188
 2323SOL     OW19030   1.372   1.857   8.236
 2323SOL    HW119031   1.321   1.941   8.218
 2323SOL    HW219032   1.458   1.859   8.185
 2324SOL     OW19033   1.727   2.063   9.165
 2324SOL    HW119034   1.704   2.084   9.260
 2324SOL    HW219035   1.703   1.968   9.145
 2325SOL     OW19036   0.030   2.467   7.909
 2325SOL    HW119037   0.032   2.418   7.996
 2325SOL    HW219038   0.032   2.566   7.927
 2326SOL     OW19039   0.351   2.055   8.230
 2326SOL    HW119040   0.403   2.095   8.305
 2326SOL    HW219041   0.404   1.982   8.187
 2327SOL     OW19042   0.335   2.103   8.564
 2327SOL    HW119043   0.300   2.010   8.564
 2327SOL    HW219044   0.422   2.106   8.515
 2328SOL     OW19045   1.002   2.725   8.304
 2328SOL    HW119046   1.028   2.805   8.250
 2328SOL    HW219047   0.996   2.645   8.244
 2329SOL     OW19048   1.485   3.221   8.637
 2329SOL    HW119049   1.456   3.258   8.548
 2329SOL    HW219050   1.407   3.221   8.699
 2330SOL     OW19051   0.217   3.495   8.000
 2330SOL    HW119052   0.133   3.546   8.018
 2330SOL    HW219053   0.208   3.444   7.915
 2331SOL     OW19054   1.738   3.292   8.675
 2331SOL    HW119055   1.769   3.306   8.769
 2331SOL    HW219056   1.639   3.279   8.674
 2332SOL     OW19057   0.490   2.792   7.402
 2332SOL    HW119058   0.459   2.826   7.314
 2332SOL    HW219059   0.494   2.867   7.468
 2333SOL     OW19060   1.007   2.979   8.701
 2333SOL    HW119061   1.057   2.894   8.685
 2333SOL    HW219062   0.961   3.006   8.616
 2334SOL     OW19063   1.614   2.682   7.775
 2334SOL    HW119064   1.682   2.616   7.742
 2334SOL    HW219065   1.629   2.770   7.731
 2335SOL     OW19066   0.862   3.669   8.423
 2335SOL    HW119067   0.908   3.602   8.365
 2335SOL    HW219068   0.788   3.625   8.473
 2336SOL     OW19069   0.769   2.738   7.459
 2336SOL    HW119070   0.798   2.657   7.510
 2336SOL    HW219071   0.669   2.737   7.450
 2337SOL     OW19072   1.365   2.270   7.805
 2337SOL    HW119073   1.302   2.328   7.753
 2337SOL    HW219074   1.458   2.304   7.793
 2338SOL     OW19075   0.262   2.471   8.905
 2338SOL    HW119076   0.282   2.376   8.880
 2338SOL    HW219077   0.225   2.474   8.998
 2339SOL     OW19078   0.144   2.126   8.795
 2339SOL    HW119079   0.216   2.136   8.726
 2339SOL    HW219080   0.055   2.125   8.750
 2340SOL     OW19081   1.042   2.747   8.560
 2340SOL    HW119082   1.036   2.733   8.461
 2340SOL    HW219083   0.961   2.708   8.604
 2341SOL     OW19084   1.633   2.281   7.875
 2341SOL    HW119085   1.729   2.252   7.872
 2341SOL    HW219086   1.594   2.259   7.964
 2342SOL     OW19087   0.917   3.356   8.312
 2342SOL    HW119088   0.975   3.367   8.231
 2342SOL    HW219089   0.823   3.380   8.290
 2343SOL     OW19090   0.867   2.222   7.597
 2343SOL    HW119091   0.776   2.235   7.635
 2343SOL    HW219092   0.927   2.182   7.667
 2344SOL     OW19093   0.978   3.167   7.532
 2344SOL    HW119094   1.031   3.107   7.592
 2344SOL    HW219095   1.017   3.168   7.441
 2345SOL     OW19096   1.729   3.462   8.017
 2345SOL    HW119097   1.696   3.555   8.036
 2345SOL    HW219098   1.727   3.446   7.918
 2346SOL     OW19099   1.144   2.735   8.006
 2346SOL    HW119100   1.209   2.763   8.077
 2346SOL    HW219101   1.065   2.796   8.008
 2347SOL     OW19102   0.892   3.461   9.030
 2347SOL    HW119103   0.880   3.392   8.959
 2347SOL    HW219104   0.855   3.426   9.117
 2348SOL     OW19105   1.336   2.775   8.209
 2348SOL    HW119106   1.357   2.717   8.287
 2348SOL    HW219107   1.345   2.871   8.235
 2349SOL     OW19108   0.925   2.852   7.954
 2349SOL    HW119109   0.912   2.763   7.911
 2349SOL    HW219110   0.856   2.866   8.025
 2350SOL     OW19111   1.229   3.240   8.793
 2350SOL    HW119112   1.262   3.325   8.834
 2350SOL    HW219113   1.130   3.236   8.800
 2351SOL     OW19114   0.036   2.157   7.857
 2351SOL    HW119115   0.096   2.108   7.795
 2351SOL    HW219116   0.091   2.209   7.922
 2352SOL     OW19117   1.659   3.655   7.548
 2352SOL    HW119118   1.749   3.699   7.550
 2352SOL    HW219119   1.658   3.586   7.476
 2353SOL     OW19120   0.823   2.622   8.706
 2353SOL    HW119121   0.825   2.708   8.757
 2353SOL    HW219122   0.880   2.554   8.753
 2354SOL     OW19123   0.060   3.649   8.777
 2354SOL    HW119124   0.068   3.749   8.775
 2354SOL    HW219125   0.036   3.620   8.870
 2355SOL     OW19126   0.841   2.668   7.771
 2355SOL    HW119127   0.752   2.696   7.736
 2355SOL    HW219128   0.882   2.602   7.707
 2356SOL     OW19129   0.363   2.386   8.310
 2356SOL    HW119130   0.419   2.379   8.227
 2356SOL    HW219131   0.420   2.364   8.390
 2357SOL     OW19132   0.360   3.584   7.581
 2357SOL    HW119133   0.452   3.614   7.556
 2357SOL    HW219134   0.335   3.623   7.670
 2358SOL     OW19135   1.336   3.606   8.518
 2358SOL    HW119136   1.355   3.669   8.444
 2358SOL    HW219137   1.344   3.512   8.485
 2359SOL     OW19138   0.041   3.001   8.330
 2359SOL    HW119139  -0.049   3.017   8.291
 2359SOL    HW219140   0.039   2.917   8.385
 2360SOL     OW19141   0.792   1.906   7.780
 2360SOL    HW119142   0.753   1.895   7.689
 2360SOL    HW219143   0.748   1.982   7.827
 2361SOL     OW19144   1.567   2.170   8.958
 2361SOL    HW119145   1.506   2.248   8.955
 2361SOL    HW219146   1.622   2.174   9.041
 2362SOL     OW19147   1.283   2.116   8.249
 2362SOL    HW119148   1.282   2.194   8.186
 2362SOL    HW219149   1.326   2.143   8.335
 2363SOL     OW19150   1.403   1.922   7.545
 2363SOL    HW119151   1.483   1.862   7.542
 2363SOL    HW219152   1.329   1.875   7.593
 2364SOL     OW19153   1.616   1.894   8.979
 2364SOL    HW119154   1.642   1.851   8.893
 2364SOL    HW219155   1.566   1.978   8.961
 2365SOL     OW19156   0.718   2.153   8.111
 2365SOL    HW119157   0.707   2.095   8.192
 2365SOL    HW219158   0.803   2.205   8.119
 2366SOL     OW19159   1.298   2.504   8.503
 2366SOL    HW119160   1.352   2.544   8.429
 2366SOL    HW219161   1.336   2.533   8.591
 2367SOL     OW19162   1.591   1.910   7.819
 2367SOL    HW119163   1.598   1.864   7.731
 2367SOL    HW219164   1.495   1.920   7.844
 2368SOL     OW19165   0.567   3.225   9.182
 2368SOL    HW119166   0.528   3.288   9.115
 2368SOL    HW219167   0.650   3.265   9.222
 2369SOL     OW19168   0.443   2.957   9.014
 2369SOL    HW119169   0.462   2.981   8.919
 2369SOL    HW219170   0.436   3.040   9.069
 2370SOL     OW19171   0.104   3.247   8.488
 2370SOL    HW119172   0.073   3.173   8.429
 2370SOL    HW219173   0.036   3.265   8.559
 2371SOL     OW19174   1.190   2.448   8.221
 2371SOL    HW119175   1.272   2.425   8.169
 2371SOL    HW219176   1.185   2.389   8.302
 2372SOL     OW19177   1.790   2.475   9.057
 2372SOL    HW119178   1.779   2.561   9.006
 2372SOL    HW219179   1.884   2.466   9.087
 2373SOL     OW19180   1.361   2.248   8.476
 2373SOL    HW119181   1.335   2.345   8.482
 2373SOL    HW219182   1.361   2.208   8.568
 2374SOL     OW19183   1.591   2.380   9.227
 2374SOL    HW119184   1.671   2.405   9.171
 2374SOL    HW219185   1.622   2.345   9.315
 2375SOL     OW19186   1.302   2.683   7.807
 2375SOL    HW119187   1.248   2.681   7.891
 2375SOL    HW219188   1.379   2.746   7.818
 2376SOL     OW19189   1.599   2.779   8.027
 2376SOL    HW119190   1.613   2.742   7.934
 2376SOL    HW219191   1.510   2.749   8.061
 2377SOL     OW19192   1.755   2.716   8.922
 2377SOL    HW119193   1.657   2.737   8.924
 2377SOL    HW219194   1.804   2.792   8.881
 2378SOL     OW19195   1.609   2.136   7.601
 2378SOL    HW119196   1.614   2.178   7.692
 2378SOL    HW219197   1.542   2.061   7.603
 2379SOL     OW19198   0.756   3.351   8.821
 2379SOL    HW119199   0.693   3.429   8.828
 2379SOL    HW219200   0.724   3.289   8.749
 2380SOL     OW19201   0.147   2.146   9.086
 2380SOL    HW119202   0.165   2.135   8.988
 2380SOL    HW219203   0.049   2.142   9.103
 2381SOL     OW19204   0.027   3.560   9.030
 2381SOL    HW119205   0.099   3.546   9.098
 2381SOL    HW219206  -0.062   3.563   9.075
 2382SOL     OW19207   0.195   2.216   8.054
 2382SOL    HW119208   0.138   2.271   8.115
 2382SOL    HW219209   0.265   2.168   8.107
 2383SOL     OW19210   1.367   3.448   8.917
 2383SOL    HW119211   1.320   3.516   8.972
 2383SOL    HW219212   1.434   3.494   8.858
 2384SOL     OW19213   1.718   2.069   8.755
 2384SOL    HW119214   1.674   2.117   8.831
 2384SOL    HW219215   1.696   2.115   8.669
 2385SOL     OW19216   0.447   3.670   8.118
 2385SOL    HW119217   0.371   3.636   8.063
 2385SOL    HW219218   0.533   3.633   8.083
 2386SOL     OW19219   0.372   3.179   8.563
 2386SOL    HW119220   0.384   3.195   8.660
 2386SOL    HW219221   0.285   3.219   8.533
 2387SOL     OW19222   1.256   3.383   9.209
 2387SOL    HW119223   1.215   3.298   9.175
 2387SOL    HW219224   1.236   3.457   9.145
 2388SOL     OW19225   0.746   3.103   7.899
 2388SOL    HW119226   0.789   3.034   7.841
 2388SOL    HW219227   0.710   3.060   7.982
 2389SOL     OW19228   0.378   2.654   8.101
 2389SOL    HW119229   0.370   2.752   8.119
 2389SOL    HW219230   0.462   2.620   8.142
 2390SOL     OW19231   0.224   2.134   7.616
 2390SOL    HW119232   0.268   2.103   7.533
 2390SOL    HW219233   0.225   2.234   7.620
 2391SOL     OW19234   0.077   2.386   8.227
 2391SOL    HW119235   0.041   2.479   8.219
 2391SOL    HW219236   0.160   2.387   8.283
 2392SOL     OW19237   0.512   2.973   7.613
 2392SOL    HW119238   0.612   2.973   7.624
 2392SOL    HW219239   0.481   3.066   7.592
 2393SOL     OW19240   1.138   2.565   7.429
 2393SOL    HW119241   1.069   2.622   7.385
 2393SOL    HW219242   1.219   2.559   7.370
 2394SOL     OW19243   0.873   2.484   7.572
 2394SOL    HW119244   0.963   2.485   7.527
 2394SOL    HW219245   0.850   2.390   7.597
 2395SOL     OW19246   1.324   2.001   7.866
 2395SOL    HW119247   1.234   1.985   7.907
 2395SOL    HW219248   1.332   2.097   7.840
 2396SOL     OW19249   1.438   2.401   8.882
 2396SOL    HW119250   1.390   2.424   8.966
 2396SOL    HW219251   1.372   2.371   8.813
 2397SOL     OW19252   0.073   1.916   7.526
 2397SOL    HW119253   0.136   1.839   7.534
 2397SOL    HW219254   0.093   1.984   7.597
 2398SOL     OW19255   0.346   2.891   8.527
 2398SOL    HW119256   0.357   2.846   8.616
 2398SOL    HW219257   0.373   2.987   8.534
 2399SOL     OW19258   1.645   2.903   7.627
 2399SOL    HW119259   1.716   2.973   7.629
 2399SOL    HW219260   1.632   2.873   7.532
 2400SOL     OW19261   0.627   2.504   8.549
 2400SOL    HW119262   0.702   2.547   8.598
 2400SOL    HW219263   0.560   2.469   8.615
 2401SOL     OW19264   0.770   2.873   8.866
 2401SOL    HW119265   0.839   2.925   8.816
 2401SOL    HW219266   0.765   2.906   8.961
 2402SOL     OW19267   1.162   2.894   9.026
 2402SOL    HW119268   1.084   2.840   9.059
 2402SOL    HW219269   1.243   2.872   9.081
 2403SOL     OW19270   1.091   2.076   8.022
 2403SOL    HW119271   1.150   2.136   8.077
 2403SOL    HW219272   1.018   2.040   8.079
 2404SOL     OW19273   1.201   3.608   9.062
 2404SOL    HW119274   1.106   3.606   9.030
 2404SOL    HW219275   1.222   3.699   9.099
 2405SOL     OW19276   0.619   1.953   8.293
 2405SOL    HW119277   0.547   1.886   8.279
 2405SOL    HW219278   0.701   1.907   8.328
 2406SOL     OW19279   0.319   3.618   8.660
 2406SOL    HW119280   0.299   3.600   8.564
 2406SOL    HW219281   0.246   3.580   8.717
 2407SOL     OW19282   1.012   3.082   8.205
 2407SOL    HW119283   1.051   3.125   8.124
 2407SOL    HW219284   1.085   3.065   8.272
 2408SOL     OW19285   0.706   2.810   8.407
 2408SOL    HW119286   0.704   2.726   8.352
 2408SOL    HW219287   0.655   2.796   8.492
 2409SOL     OW19288   0.045   2.820   8.533
 2409SOL    HW119289   0.134   2.798   8.573
 2409SOL    HW219290  -0.010   2.736   8.529
 2410SOL     OW19291   0.273   1.865   7.813
 2410SOL    HW119292   0.311   1.953   7.840
 2410SOL    HW219293   0.196   1.841   7.873
 2411SOL     OW19294   0.689   2.482   9.141
 2411SOL    HW119295   0.641   2.533   9.070
 2411SOL    HW219296   0.782   2.461   9.111
 2412SOL     OW19297   1.792   2.064   8.234
 2412SOL    HW119298   1.747   2.046   8.321
 2412SOL    HW219299   1.890   2.081   8.250
 2413SOL     OW19300   0.840   3.040   8.486
 2413SOL    HW119301   0.791   2.955   8.467
 2413SOL    HW219302   0.910   3.055   8.417
 2414SOL     OW19303   1.178   2.463   7.695
 2414SOL    HW119304   1.230   2.535   7.741
 2414SOL    HW219305   1.191   2.470   7.597
 2415SOL     OW19306   1.539   3.278   9.022
 2415SOL    HW119307   1.524   3.180   9.036
 2415SOL    HW219308   1.456   3.320   8.986
 2416SOL     OW19309   0.296   2.720   8.762
 2416SOL    HW119310   0.260   2.630   8.788
 2416SOL    HW219311   0.257   2.790   8.822
 2417SOL     OW19312   0.798   3.346   7.420
 2417SOL    HW119313   0.773   3.423   7.479
 2417SOL    HW219314   0.862   3.286   7.468
 2418SOL     OW19315   0.616   3.553   8.454
 2418SOL    HW119316   0.636   3.523   8.361
 2418SOL    HW219317   0.541   3.498   8.491
 2419SOL     OW19318   0.759   2.964   8.171
 2419SOL    HW119319   0.848   3.010   8.171
 2419SOL    HW219320   0.752   2.904   8.250
 2420SOL     OW19321   0.937   3.311   7.840
 2420SOL    HW119322   0.987   3.299   7.755
 2420SOL    HW219323   0.883   3.228   7.859
 2421SOL     OW19324   0.127   2.658   8.240
 2421SOL    HW119325   0.222   2.649   8.208
 2421SOL    HW219326   0.093   2.750   8.219
 2422SOL     OW19327   0.064   2.775   9.167
 2422SOL    HW119328  -0.021   2.726   9.148
 2422SOL    HW219329   0.091   2.762   9.262
 2423SOL     OW19330   0.961   3.684   8.873
 2423SOL    HW119331   0.933   3.597   8.914
 2423SOL    HW219332   0.905   3.758   8.910
 2424SOL     OW19333   1.190   3.031   8.403
 2424SOL    HW119334   1.174   3.125   8.434
 2424SOL    HW219335   1.193   2.970   8.483
 2425SOL     OW19336   0.464   2.302   9.167
 2425SOL    HW119337   0.500   2.249   9.090
 2425SOL    HW219338   0.525   2.379   9.185
 2426SOL     OW19339   1.609   2.750   8.437
 2426SOL    HW119340   1.628   2.789   8.346
 2426SOL    HW219341   1.563   2.819   8.493
 2427SOL     OW19342   1.301   2.193   8.733
 2427SOL    HW119343   1.372   2.165   8.797
 2427SOL    HW219344   1.248   2.113   8.705
 2428SOL     OW19345   0.002   1.892   7.934
 2428SOL    HW119346  -0.085   1.879   7.887
 2428SOL    HW219347   0.010   1.987   7.964
 2429SOL     OW19348   1.223   1.993   9.175
 2429SOL    HW119349   1.282   2.009   9.255
 2429SOL    HW219350   1.170   2.076   9.156
 2430SOL     OW19351   0.439   3.412   9.000
 2430SOL    HW119352   0.381   3.477   9.049
 2430SOL    HW219353   0.501   3.462   8.940
 2431SOL     OW19354   1.795   3.299   8.941
 2431SOL    HW119355   1.823   3.392   8.963
 2431SOL    HW219356   1.702   3.283   8.974
 2432SOL     OW19357   1.045   2.412   8.491
 2432SOL    HW119358   1.131   2.463   8.490
 2432SOL    HW219359   1.051   2.338   8.558
 2433SOL     OW19360   1.090   3.475   8.651
 2433SOL    HW119361   1.016   3.539   8.669
 2433SOL    HW219362   1.169   3.524   8.613
 2434SOL     OW19363   0.299   3.605   9.150
 2434SOL    HW119364   0.342   3.689   9.116
 2434SOL    HW219365   0.324   3.592   9.246
 2435SOL     OW19366   0.159   3.141   9.021
 2435SOL    HW119367   0.138   3.046   8.994
 2435SOL    HW219368   0.090   3.202   8.983
 2436SOL     OW19369   0.248   3.506   8.425
 2436SOL    HW119370   0.190   3.426   8.439
 2436SOL    HW219371   0.272   3.513   8.328
 2437SOL     OW19372   0.994   2.027   8.280
 2437SOL    HW119373   1.090   2.028   8.308
 2437SOL    HW219374   0.939   1.984   8.352
 2438SOL     OW19375   1.056   3.033   7.796
 2438SOL    HW119376   1.136   3.069   7.844
 2438SOL    HW219377   1.014   2.960   7.852
 2439SOL     OW19378   1.647   2.300   8.160
 2439SOL    HW119379   1.666   2.386   8.207
 2439SOL    HW219380   1.715   2.231   8.188
 2440SOL     OW19381   0.790   2.972   7.646
 2440SOL    HW119382   0.862   3.031   7.611
 2440SOL    HW219383   0.830   2.888   7.682
 2441SOL     OW19384   0.861   1.948   7.498
 2441SOL    HW119385   0.936   1.882   7.510
 2441SOL    HW219386   0.892   2.039   7.526
 2442SOL     OW19387   0.540   2.377   8.110
 2442SOL    HW119388   0.578   2.288   8.136
 2442SOL    HW219389   0.607   2.427   8.055
 2443SOL     OW19390   0.528   2.935   8.764
 2443SOL    HW119391   0.624   2.915   8.784
 2443SOL    HW219392   0.517   3.033   8.746
 2444SOL     OW19393   1.750   2.978   8.733
 2444SOL    HW119394   1.764   3.076   8.747
 2444SOL    HW219395   1.807   2.947   8.657
 2445SOL     OW19396   0.660   3.526   7.585
 2445SOL    HW119397   0.635   3.621   7.569
 2445SOL    HW219398   0.627   3.498   7.675
 2446SOL     OW19399   1.310   2.949   8.809
 2446SOL    HW119400   1.254   2.908   8.880
 2446SOL    HW219401   1.290   3.047   8.803
 2447SOL     OW19402   0.577   3.565   8.809
 2447SOL    HW119403   0.626   3.645   8.773
 2447SOL    HW219404   0.485   3.563   8.770
 2448SOL     OW19405   0.220   2.446   9.171
 2448SOL    HW119406   0.237   2.347   9.176
 2448SOL    HW219407   0.284   2.494   9.232
 2449SOL     OW19408   1.659   3.407   8.410
 2449SOL    HW119409   1.631   3.500   8.434
 2449SOL    HW219410   1.709   3.366   8.486
 2450SOL     OW19411   0.055   2.780   7.971
 2450SOL    HW119412   0.062   2.879   7.958
 2450SOL    HW219413  -0.036   2.757   8.005
 2451SOL     OW19414   0.564   2.578   8.909
 2451SOL    HW119415   0.470   2.548   8.890
 2451SOL    HW219416   0.573   2.675   8.886
 2452SOL     OW19417   1.631   2.954   8.221
 2452SOL    HW119418   1.593   3.043   8.194
 2452SOL    HW219419   1.631   2.892   8.143
 2453SOL     OW19420   0.789   2.360   8.390
 2453SOL    HW119421   0.881   2.388   8.417
 2453SOL    HW219422   0.721   2.411   8.444
 2454SOL     OW19423   0.642   3.211   8.617
 2454SOL    HW119424   0.555   3.210   8.568
 2454SOL    HW219425   0.708   3.151   8.570
 2455SOL     OW19426   0.208   2.553   8.531
 2455SOL    HW119427   0.246   2.612   8.602
 2455SOL    HW219428   0.191   2.606   8.449
 2456SOL     OW19429   0.379   3.199   8.829
 2456SOL    HW119430   0.398   3.287   8.873
 2456SOL    HW219431   0.284   3.173   8.847
 2457SOL     OW19432   1.622   3.515   9.177
 2457SOL    HW119433   1.591   3.437   9.122
 2457SOL    HW219434   1.591   3.600   9.135
 2458SOL     OW19435   1.330   3.053   7.898
 2458SOL    HW119436   1.429   3.057   7.914
 2458SOL    HW219437   1.313   3.039   7.800
 2459SOL     OW19438   0.683   2.219   7.846
 2459SOL    HW119439   0.585   2.213   7.826
 2459SOL    HW219440   0.702   2.176   7.934
 2460SOL     OW19441   1.603   1.902   8.105
 2460SOL    HW119442   1.598   1.943   8.014
 2460SOL    HW219443   1.684   1.936   8.152
 2461SOL     OW19444   1.206   2.658   8.798
 2461SOL    HW119445   1.305   2.667   8.788
 2461SOL    HW219446   1.162   2.660   8.708
 2462SOL     OW19447   0.700   2.618   8.200
 2462SOL    HW119448   0.722   2.540   8.258
 2462SOL    HW219449   0.709   2.592   8.104
 2463SOL     OW19450   1.365   3.325   8.412
 2463SOL    HW119451   1.279   3.282   8.441
 2463SOL    HW219452   1.354   3.365   8.321
 2464SOL     OW19453   1.368   2.310   8.087
 2464SOL    HW119454   1.367   2.302   7.988
 2464SOL    HW219455   1.457   2.282   8.122
 2465SOL     OW19456   1.095   3.326   9.919
 2465SOL    HW119457   1.186   3.360   9.942
 2465SOL    HW219458   1.067   3.364   9.831
 2466SOL     OW19459   1.606   3.122   9.777
 2466SOL    HW119460   1.617   3.206   9.831
 2466SOL    HW219461   1.696   3.085   9.754
 2467SOL     OW19462   0.353   2.041   9.246
 2467SOL    HW119463   0.266   2.038   9.197
 2467SOL    HW219464   0.404   2.123   9.218
 2468SOL     OW19465   0.563   3.395   9.650
 2468SOL    HW119466   0.519   3.404   9.739
 2468SOL    HW219467   0.634   3.325   9.654
 2469SOL     OW19468   0.581   1.928   9.372
 2469SOL    HW119469   0.669   1.956   9.333
 2469SOL    HW219470   0.509   1.991   9.342
 2470SOL     OW19471   0.490   3.068   9.945
 2470SOL    HW119472   0.423   3.022  10.004
 2470SOL    HW219473   0.582   3.036   9.968
 2471SOL     OW19474   0.717   2.474   9.776
 2471SOL    HW119475   0.756   2.544   9.717
 2471SOL    HW219476   0.691   2.394   9.722
 2472SOL     OW19477   0.420   3.237   9.429
 2472SOL    HW119478   0.484   3.253   9.354
 2472SOL    HW219479   0.444   3.295   9.507
 2473SOL     OW19480   0.854   3.564   9.834
 2473SOL    HW119481   0.919   3.497   9.798
 2473SOL    HW219482   0.844   3.640   9.770
 2474SOL     OW19483   1.746   3.446   9.576
 2474SOL    HW119484   1.842   3.420   9.569
 2474SOL    HW219485   1.722   3.506   9.500
 2475SOL     OW19486   1.058   2.168   9.616
 2475SOL    HW119487   1.083   2.262   9.637
 2475SOL    HW219488   1.059   2.114   9.700
 2476SOL     OW19489   0.508   2.526   9.344
 2476SOL    HW119490   0.468   2.605   9.297
 2476SOL    HW219491   0.597   2.505   9.304
 2477SOL     OW19492   1.627   3.282  10.018
 2477SOL    HW119493   1.623   3.317  10.111
 2477SOL    HW219494   1.686   3.341   9.962
 2478SOL     OW19495   0.358   3.103   9.694
 2478SOL    HW119496   0.404   3.077   9.779
 2478SOL    HW219497   0.378   3.035   9.623
 2479SOL     OW19498   1.216   2.158   9.405
 2479SOL    HW119499   1.310   2.128   9.423
 2479SOL    HW219500   1.164   2.158   9.491
 2480SOL     OW19501   0.403   2.135   9.659
 2480SOL    HW119502   0.357   2.175   9.738
 2480SOL    HW219503   0.351   2.154   9.577
 2481SOL     OW19504   0.956   2.346   9.901
 2481SOL    HW119505   1.032   2.374   9.960
 2481SOL    HW219506   0.912   2.426   9.862
 2482SOL     OW19507   1.191   2.810   9.418
 2482SOL    HW119508   1.228   2.760   9.496
 2482SOL    HW219509   1.121   2.755   9.373
 2483SOL     OW19510   1.774   2.479   9.497
 2483SOL    HW119511   1.795   2.398   9.443
 2483SOL    HW219512   1.791   2.460   9.594
 2484SOL     OW19513   1.068   3.617   9.405
 2484SOL    HW119514   1.102   3.530   9.370
 2484SOL    HW219515   1.036   3.605   9.499
 2485SOL     OW19516   0.203   3.352   9.608
 2485SOL    HW119517   0.230   3.258   9.628
 2485SOL    HW219518   0.228   3.374   9.514
 2486SOL     OW19519   0.217   3.495   9.845
 2486SOL    HW119520   0.133   3.546   9.863
 2486SOL    HW219521   0.208   3.444   9.760
 2487SOL     OW19522   0.490   2.792   9.247
 2487SOL    HW119523   0.459   2.826   9.159
 2487SOL    HW219524   0.494   2.867   9.313
 2488SOL     OW19525   0.094   2.684   9.420
 2488SOL    HW119526   0.154   2.631   9.480
 2488SOL    HW219527   0.000   2.652   9.432
 2489SOL     OW19528   1.614   2.682   9.620
 2489SOL    HW119529   1.682   2.616   9.587
 2489SOL    HW219530   1.629   2.770   9.576
 2490SOL     OW19531   0.769   2.738   9.304
 2490SOL    HW119532   0.798   2.657   9.355
 2490SOL    HW219533   0.669   2.737   9.295
 2491SOL     OW19534   1.365   2.270   9.650
 2491SOL    HW119535   1.302   2.328   9.598
 2491SOL    HW219536   1.458   2.304   9.638
 2492SOL     OW19537   1.633   2.281   9.720
 2492SOL    HW119538   1.729   2.252   9.717
 2492SOL    HW219539   1.594   2.259   9.809
 2493SOL     OW19540   0.867   2.222   9.442
 2493SOL    HW119541   0.776   2.235   9.480
 2493SOL    HW219542   0.927   2.182   9.512
 2494SOL     OW19543   0.978   3.167   9.377
 2494SOL    HW119544   1.031   3.107   9.437
 2494SOL    HW219545   1.017   3.168   9.286
 2495SOL     OW19546   1.729   3.462   9.862
 2495SOL    HW119547   1.696   3.555   9.881
 2495SOL    HW219548   1.727   3.446   9.763
 2496SOL     OW19549   1.144   2.735   9.851
 2496SOL    HW119550   1.209   2.763   9.922
 2496SOL    HW219551   1.065   2.796   9.853
 2497SOL     OW19552   1.336   2.775  10.054
 2497SOL    HW119553   1.357   2.717  10.132
 2497SOL    HW219554   1.345   2.871  10.080
 2498SOL     OW19555   0.925   2.852   9.799
 2498SOL    HW119556   0.912   2.763   9.756
 2498SOL    HW219557   0.856   2.866   9.870
 2499SOL     OW19558   1.659   3.655   9.393
 2499SOL    HW119559   1.749   3.699   9.395
 2499SOL    HW219560   1.658   3.586   9.321
 2500SOL     OW19561   0.841   2.668   9.616
 2500SOL    HW119562   0.752   2.696   9.581
 2500SOL    HW219563   0.882   2.602   9.552
 2501SOL     OW19564   0.360   3.584   9.426
 2501SOL    HW119565   0.452   3.614   9.401
 2501SOL    HW219566   0.335   3.623   9.515
 2502SOL     OW19567   0.792   1.906   9.625
 2502SOL    HW119568   0.753   1.895   9.534
 2502SOL    HW219569   0.748   1.982   9.672
 2503SOL     OW19570   1.403   1.922   9.390
 2503SOL    HW119571   1.483   1.862   9.387
 2503SOL    HW219572   1.329   1.875   9.438
 2504SOL     OW19573   0.718   2.153   9.956
 2504SOL    HW119574   0.707   2.095  10.037
 2504SOL    HW219575   0.803   2.205   9.964
 2505SOL     OW19576   1.591   1.910   9.664
 2505SOL    HW119577   1.598   1.864   9.576
 2505SOL    HW219578   1.495   1.920   9.689
 2506SOL     OW19579   1.302   2.683   9.652
 2506SOL    HW119580   1.248   2.681   9.736
 2506SOL    HW219581   1.379   2.746   9.663
 2507SOL     OW19582   1.599   2.779   9.872
 2507SOL    HW119583   1.613   2.742   9.779
 2507SOL    HW219584   1.510   2.749   9.906
 2508SOL     OW19585   1.609   2.136   9.446
 2508SOL    HW119586   1.614   2.178   9.537
 2508SOL    HW219587   1.542   2.061   9.448
 2509SOL     OW19588   0.332   2.407   9.497
 2509SOL    HW119589   0.404   2.436   9.434
 2509SOL    HW219590   0.288   2.487   9.537
 2510SOL     OW19591   0.447   3.670   9.963
 2510SOL    HW119592   0.371   3.636   9.908
 2510SOL    HW219593   0.533   3.633   9.928
 2511SOL     OW19594   0.746   3.103   9.744
 2511SOL    HW119595   0.789   3.034   9.686
 2511SOL    HW219596   0.710   3.060   9.827
 2512SOL     OW19597   0.224   2.134   9.461
 2512SOL    HW119598   0.268   2.103   9.378
 2512SOL    HW219599   0.225   2.234   9.465
 2513SOL     OW19600   0.512   2.973   9.458
 2513SOL    HW119601   0.612   2.973   9.469
 2513SOL    HW219602   0.481   3.066   9.437
 2514SOL     OW19603   1.138   2.565   9.274
 2514SOL    HW119604   1.069   2.622   9.230
 2514SOL    HW219605   1.219   2.559   9.215
 2515SOL     OW19606   0.873   2.484   9.417
 2515SOL    HW119607   0.963   2.485   9.372
 2515SOL    HW219608   0.850   2.390   9.442
 2516SOL     OW19609   1.324   2.001   9.711
 2516SOL    HW119610   1.234   1.985   9.752
 2516SOL    HW219611   1.332   2.097   9.685
 2517SOL     OW19612   0.073   1.916   9.371
 2517SOL    HW119613   0.136   1.839   9.379
 2517SOL    HW219614   0.093   1.984   9.442
 2518SOL     OW19615   1.645   2.903   9.472
 2518SOL    HW119616   1.716   2.973   9.474
 2518SOL    HW219617   1.632   2.873   9.377
 2519SOL     OW19618   1.091   2.076   9.867
 2519SOL    HW119619   1.150   2.136   9.922
 2519SOL    HW219620   1.018   2.040   9.924
 2520SOL     OW19621   0.273   1.865   9.658
 2520SOL    HW119622   0.311   1.953   9.685
 2520SOL    HW219623   0.196   1.841   9.718
 2521SOL     OW19624   0.095   2.952   9.478
 2521SOL    HW119625   0.085   2.855   9.457
 2521SOL    HW219626   0.148   2.997   9.406
 2522SOL     OW19627   1.792   2.064  10.079
 2522SOL    HW119628   1.747   2.046  10.166
 2522SOL    HW219629   1.890   2.081  10.095
 2523SOL     OW19630   1.178   2.463   9.540
 2523SOL    HW119631   1.230   2.535   9.586
 2523SOL    HW219632   1.191   2.470   9.442
 2524SOL     OW19633   0.798   3.346   9.265
 2524SOL    HW119634   0.773   3.423   9.324
 2524SOL    HW219635   0.862   3.286   9.313
 2525SOL     OW19636   0.759   2.964  10.016
 2525SOL    HW119637   0.848   3.010  10.016
 2525SOL    HW219638   0.752   2.904  10.095
 2526SOL     OW19639   0.937   3.311   9.685
 2526SOL    HW119640   0.987   3.299   9.600
 2526SOL    HW219641   0.883   3.228   9.704
 2527SOL     OW19642   0.528   2.719   9.584
 2527SOL    HW119643   0.478   2.784   9.528
 2527SOL    HW219644   0.470   2.640   9.603
 2528SOL     OW19645   0.449   3.358   9.908
 2528SOL    HW119646   0.447   3.259   9.921
 2528SOL    HW219647   0.358   3.391   9.885
 2529SOL     OW19648   1.056   3.033   9.641
 2529SOL    HW119649   1.136   3.069   9.689
 2529SOL    HW219650   1.014   2.960   9.697
 2530SOL     OW19651   1.647   2.300  10.005
 2530SOL    HW119652   1.666   2.386  10.052
 2530SOL    HW219653   1.715   2.231  10.033
 2531SOL     OW19654   0.790   2.972   9.491
 2531SOL    HW119655   0.862   3.031   9.456
 2531SOL    HW219656   0.830   2.888   9.527
 2532SOL     OW19657   0.861   1.948   9.343
 2532SOL    HW119658   0.936   1.882   9.355
 2532SOL    HW219659   0.892   2.039   9.371
 2533SOL     OW19660   0.540   2.377   9.955
 2533SOL    HW119661   0.578   2.288   9.981
 2533SOL    HW219662   0.607   2.427   9.900
 2534SOL     OW19663   0.233   3.087   9.270
 2534SOL    HW119664   0.225   3.099   9.171
 2534SOL    HW219665   0.292   3.158   9.308
 2535SOL     OW19666   0.660   3.526   9.430
 2535SOL    HW119667   0.635   3.621   9.414
 2535SOL    HW219668   0.627   3.498   9.520
 2536SOL     OW19669   1.330   3.053   9.743
 2536SOL    HW119670   1.429   3.057   9.759
 2536SOL    HW219671   1.313   3.039   9.645
 2537SOL     OW19672   0.683   2.219   9.691
 2537SOL    HW119673   0.585   2.213   9.671
 2537SOL    HW219674   0.702   2.176   9.779
 2538SOL     OW19675   1.603   1.902   9.950
 2538SOL    HW119676   1.598   1.943   9.859
 2538SOL    HW219677   1.684   1.936   9.997
 2539SOL     OW19678   1.368   2.310   9.932
 2539SOL    HW119679   1.367   2.302   9.833
 2539SOL    HW219680   1.457   2.282   9.967
 2540SOL     OW19681   1.095   5.172   0.692
 2540SOL    HW119682   1.186   5.206   0.715
 2540SOL    HW219683   1.067   5.210   0.604
 2541SOL     OW19684   1.686   4.250   1.414
 2541SOL    HW119685   1.588   4.242   1.436
 2541SOL    HW219686   1.739   4.239   1.498
 2542SOL     OW19687   0.353   3.887   0.019
 2542SOL    HW119688   0.266   3.884  -0.030
 2542SOL    HW219689   0.404   3.969  -0.009
 2543SOL     OW19690   1.340   5.276   0.794
 2543SOL    HW119691   1.329   5.373   0.817
 2543SOL    HW219692   1.433   5.259   0.764
 2544SOL     OW19693   1.218   3.787   1.352
 2544SOL    HW119694   1.142   3.742   1.399
 2544SOL    HW219695   1.247   3.732   1.274
 2545SOL     OW19696   0.956   4.567   1.729
 2545SOL    HW119697   0.921   4.542   1.639
 2545SOL    HW219698   0.880   4.588   1.790
 2546SOL     OW19699   0.563   5.241   0.423
 2546SOL    HW119700   0.519   5.250   0.512
 2546SOL    HW219701   0.634   5.171   0.427
 2547SOL     OW19702   0.581   3.774   0.145
 2547SOL    HW119703   0.669   3.802   0.106
 2547SOL    HW219704   0.509   3.837   0.115
 2548SOL     OW19705   1.551   4.759   1.528
 2548SOL    HW119706   1.459   4.764   1.490
 2548SOL    HW219707   1.616   4.797   1.462
 2549SOL     OW19708   1.451   4.766   1.209
 2549SOL    HW119709   1.376   4.755   1.274
 2549SOL    HW219710   1.488   4.859   1.215
 2550SOL     OW19711   0.947   5.021   1.509
 2550SOL    HW119712   0.890   5.084   1.455
 2550SOL    HW219713   0.980   4.947   1.450
 2551SOL     OW19714   0.490   4.914   0.718
 2551SOL    HW119715   0.423   4.868   0.777
 2551SOL    HW219716   0.582   4.882   0.741
 2552SOL     OW19717   0.717   4.320   0.549
 2552SOL    HW119718   0.756   4.390   0.490
 2552SOL    HW219719   0.691   4.240   0.495
 2553SOL     OW19720   1.337   4.228   1.758
 2553SOL    HW119721   1.433   4.232   1.784
 2553SOL    HW219722   1.293   4.152   1.805
 2554SOL     OW19723   0.420   5.083   0.202
 2554SOL    HW119724   0.484   5.099   0.127
 2554SOL    HW219725   0.444   5.141   0.280
 2555SOL     OW19726   0.571   4.039   1.012
 2555SOL    HW119727   0.647   4.104   1.008
 2555SOL    HW219728   0.601   3.950   0.979
 2556SOL     OW19729   0.268   4.465   0.430
 2556SOL    HW119730   0.283   4.399   0.504
 2556SOL    HW219731   0.218   4.544   0.465
 2557SOL     OW19732   0.854   5.410   0.607
 2557SOL    HW119733   0.919   5.343   0.571
 2557SOL    HW219734   0.844   5.486   0.543
 2558SOL     OW19735   1.746   5.292   0.349
 2558SOL    HW119736   1.842   5.266   0.342
 2558SOL    HW219737   1.722   5.352   0.273
 2559SOL     OW19738   1.658   3.985   1.120
 2559SOL    HW119739   1.709   4.057   1.073
 2559SOL    HW219740   1.563   4.012   1.129
 2560SOL     OW19741   1.058   4.014   0.389
 2560SOL    HW119742   1.083   4.108   0.410
 2560SOL    HW219743   1.059   3.960   0.473
 2561SOL     OW19744   0.182   4.727   1.574
 2561SOL    HW119745   0.278   4.742   1.592
 2561SOL    HW219746   0.144   4.665   1.643
 2562SOL     OW19747   0.508   4.372   0.117
 2562SOL    HW119748   0.468   4.451   0.070
 2562SOL    HW219749   0.597   4.351   0.077
 2563SOL     OW19750   0.681   5.296   0.815
 2563SOL    HW119751   0.754   5.319   0.751
 2563SOL    HW219752   0.610   5.243   0.769
 2564SOL     OW19753   1.023   4.328   1.569
 2564SOL    HW119754   1.056   4.245   1.616
 2564SOL    HW219755   1.096   4.396   1.568
 2565SOL     OW19756   1.627   5.128   0.791
 2565SOL    HW119757   1.623   5.163   0.884
 2565SOL    HW219758   1.686   5.187   0.735
 2566SOL     OW19759   0.358   4.949   0.467
 2566SOL    HW119760   0.404   4.923   0.552
 2566SOL    HW219761   0.378   4.881   0.396
 2567SOL     OW19762   1.216   4.004   0.178
 2567SOL    HW119763   1.310   3.974   0.196
 2567SOL    HW219764   1.164   4.004   0.264
 2568SOL     OW19765   0.368   4.209   1.273
 2568SOL    HW119766   0.358   4.122   1.225
 2568SOL    HW219767   0.304   4.276   1.236
 2569SOL     OW19768   1.450   4.489   1.311
 2569SOL    HW119769   1.454   4.583   1.276
 2569SOL    HW219770   1.543   4.458   1.333
 2570SOL     OW19771   0.403   3.981   0.432
 2570SOL    HW119772   0.357   4.021   0.511
 2570SOL    HW219773   0.351   4.000   0.350
 2571SOL     OW19774   1.531   5.508   1.344
 2571SOL    HW119775   1.474   5.459   1.278
 2571SOL    HW219776   1.617   5.535   1.301
 2572SOL     OW19777   1.826   4.226   1.199
 2572SOL    HW119778   1.883   4.308   1.201
 2572SOL    HW219779   1.767   4.225   1.279
 2573SOL     OW19780   1.843   5.452   1.112
 2573SOL    HW119781   1.889   5.462   1.200
 2573SOL    HW219782   1.910   5.455   1.039
 2574SOL     OW19783   0.956   4.192   0.674
 2574SOL    HW119784   1.032   4.220   0.733
 2574SOL    HW219785   0.912   4.272   0.635
 2575SOL     OW19786   1.191   4.656   0.191
 2575SOL    HW119787   1.228   4.606   0.269
 2575SOL    HW219788   1.121   4.601   0.146
 2576SOL     OW19789   1.033   4.078   1.812
 2576SOL    HW119790   1.096   4.083   1.889
 2576SOL    HW219791   0.941   4.056   1.845
 2577SOL     OW19792   1.068   5.463   0.178
 2577SOL    HW119793   1.102   5.376   0.143
 2577SOL    HW219794   1.036   5.451   0.272
 2578SOL     OW19795   0.749   3.730   1.710
 2578SOL    HW119796   0.756   3.636   1.677
 2578SOL    HW219797   0.806   3.740   1.792
 2579SOL     OW19798   1.082   4.997   1.744
 2579SOL    HW119799   1.104   4.907   1.706
 2579SOL    HW219800   1.017   5.044   1.685
 2580SOL     OW19801   0.737   4.839   1.748
 2580SOL    HW119802   0.708   4.916   1.805
 2580SOL    HW219803   0.747   4.758   1.806
 2581SOL     OW19804   1.372   3.703   0.854
 2581SOL    HW119805   1.321   3.787   0.836
 2581SOL    HW219806   1.458   3.705   0.803
 2582SOL     OW19807   1.727   3.909   1.783
 2582SOL    HW119808   1.704   3.930   1.878
 2582SOL    HW219809   1.703   3.814   1.763
 2583SOL     OW19810   0.030   4.313   0.527
 2583SOL    HW119811   0.032   4.264   0.614
 2583SOL    HW219812   0.032   4.412   0.545
 2584SOL     OW19813   0.351   3.901   0.848
 2584SOL    HW119814   0.403   3.941   0.923
 2584SOL    HW219815   0.404   3.828   0.805
 2585SOL     OW19816   0.335   3.949   1.182
 2585SOL    HW119817   0.300   3.856   1.182
 2585SOL    HW219818   0.422   3.952   1.133
 2586SOL     OW19819   1.002   4.571   0.922
 2586SOL    HW119820   1.028   4.651   0.868
 2586SOL    HW219821   0.996   4.491   0.862
 2587SOL     OW19822   0.203   5.198   0.381
 2587SOL    HW119823   0.230   5.104   0.401
 2587SOL    HW219824   0.228   5.220   0.287
 2588SOL     OW19825   1.485   5.067   1.255
 2588SOL    HW119826   1.456   5.104   1.166
 2588SOL    HW219827   1.407   5.067   1.317
 2589SOL     OW19828   0.217   5.341   0.618
 2589SOL    HW119829   0.133   5.392   0.636
 2589SOL    HW219830   0.208   5.290   0.533
 2590SOL     OW19831   1.738   5.138   1.293
 2590SOL    HW119832   1.769   5.152   1.387
 2590SOL    HW219833   1.639   5.125   1.292
 2591SOL     OW19834   0.490   4.638   0.020
 2591SOL    HW119835   0.459   4.672  -0.068
 2591SOL    HW219836   0.494   4.713   0.086
 2592SOL     OW19837   1.007   4.825   1.319
 2592SOL    HW119838   1.057   4.740   1.303
 2592SOL    HW219839   0.961   4.852   1.234
 2593SOL     OW19840   0.094   4.530   0.193
 2593SOL    HW119841   0.154   4.477   0.253
 2593SOL    HW219842   0.000   4.498   0.205
 2594SOL     OW19843   0.862   5.515   1.041
 2594SOL    HW119844   0.908   5.448   0.983
 2594SOL    HW219845   0.788   5.471   1.091
 2595SOL     OW19846   0.769   4.584   0.077
 2595SOL    HW119847   0.798   4.503   0.128
 2595SOL    HW219848   0.669   4.583   0.068
 2596SOL     OW19849   0.262   4.317   1.523
 2596SOL    HW119850   0.282   4.222   1.498
 2596SOL    HW219851   0.225   4.320   1.616
 2597SOL     OW19852   0.144   3.972   1.413
 2597SOL    HW119853   0.216   3.982   1.344
 2597SOL    HW219854   0.055   3.971   1.368
 2598SOL     OW19855   1.042   4.593   1.178
 2598SOL    HW119856   1.036   4.579   1.079
 2598SOL    HW219857   0.961   4.554   1.222
 2599SOL     OW19858   0.917   5.202   0.930
 2599SOL    HW119859   0.975   5.213   0.849
 2599SOL    HW219860   0.823   5.226   0.908
 2600SOL     OW19861   0.867   4.068   0.215
 2600SOL    HW119862   0.776   4.081   0.253
 2600SOL    HW219863   0.927   4.028   0.285
 2601SOL     OW19864   0.978   5.013   0.150
 2601SOL    HW119865   1.031   4.953   0.210
 2601SOL    HW219866   1.017   5.014   0.059
 2602SOL     OW19867   1.729   5.308   0.635
 2602SOL    HW119868   1.696   5.401   0.654
 2602SOL    HW219869   1.727   5.292   0.536
 2603SOL     OW19870   1.144   4.581   0.624
 2603SOL    HW119871   1.209   4.609   0.695
 2603SOL    HW219872   1.065   4.642   0.626
 2604SOL     OW19873   0.892   5.307   1.648
 2604SOL    HW119874   0.880   5.238   1.577
 2604SOL    HW219875   0.855   5.272   1.735
 2605SOL     OW19876   1.336   4.621   0.827
 2605SOL    HW119877   1.357   4.563   0.905
 2605SOL    HW219878   1.345   4.717   0.853
 2606SOL     OW19879   0.292   4.750   0.873
 2606SOL    HW119880   0.215   4.812   0.866
 2606SOL    HW219881   0.329   4.751   0.966
 2607SOL     OW19882   0.925   4.698   0.572
 2607SOL    HW119883   0.912   4.609   0.529
 2607SOL    HW219884   0.856   4.712   0.643
 2608SOL     OW19885   1.229   5.086   1.411
 2608SOL    HW119886   1.262   5.171   1.452
 2608SOL    HW219887   1.130   5.082   1.418
 2609SOL     OW19888   0.036   4.003   0.475
 2609SOL    HW119889   0.096   3.954   0.413
 2609SOL    HW219890   0.091   4.055   0.540
 2610SOL     OW19891   1.659   5.501   0.166
 2610SOL    HW119892   1.749   5.545   0.168
 2610SOL    HW219893   1.658   5.432   0.094
 2611SOL     OW19894   0.823   4.468   1.324
 2611SOL    HW119895   0.825   4.554   1.375
 2611SOL    HW219896   0.880   4.400   1.371
 2612SOL     OW19897   0.060   5.495   1.395
 2612SOL    HW119898   0.068   5.595   1.393
 2612SOL    HW219899   0.036   5.466   1.488
 2613SOL     OW19900   0.841   4.514   0.389
 2613SOL    HW119901   0.752   4.542   0.354
 2613SOL    HW219902   0.882   4.448   0.325
 2614SOL     OW19903   0.363   4.232   0.928
 2614SOL    HW119904   0.419   4.225   0.845
 2614SOL    HW219905   0.420   4.210   1.008
 2615SOL     OW19906   0.360   5.430   0.199
 2615SOL    HW119907   0.452   5.460   0.174
 2615SOL    HW219908   0.335   5.469   0.288
 2616SOL     OW19909   1.336   5.452   1.136
 2616SOL    HW119910   1.355   5.515   1.062
 2616SOL    HW219911   1.344   5.358   1.103
 2617SOL     OW19912   0.041   4.847   0.948
 2617SOL    HW119913  -0.049   4.863   0.909
 2617SOL    HW219914   0.039   4.763   1.003
 2618SOL     OW19915   0.792   3.752   0.398
 2618SOL    HW119916   0.753   3.741   0.307
 2618SOL    HW219917   0.748   3.828   0.445
 2619SOL     OW19918   0.037   4.888   0.492
 2619SOL    HW119919   0.115   4.946   0.516
 2619SOL    HW219920   0.056   4.839   0.407
 2620SOL     OW19921   1.567   4.016   1.576
 2620SOL    HW119922   1.506   4.094   1.573
 2620SOL    HW219923   1.622   4.020   1.659
 2621SOL     OW19924   1.283   3.962   0.867
 2621SOL    HW119925   1.282   4.040   0.804
 2621SOL    HW219926   1.326   3.989   0.953
 2622SOL     OW19927   1.616   3.740   1.597
 2622SOL    HW119928   1.642   3.697   1.511
 2622SOL    HW219929   1.566   3.824   1.579
 2623SOL     OW19930   0.718   3.999   0.729
 2623SOL    HW119931   0.707   3.941   0.810
 2623SOL    HW219932   0.803   4.051   0.737
 2624SOL     OW19933   1.298   4.350   1.121
 2624SOL    HW119934   1.352   4.390   1.047
 2624SOL    HW219935   1.336   4.379   1.209
 2625SOL     OW19936   0.567   5.071   1.800
 2625SOL    HW119937   0.528   5.134   1.733
 2625SOL    HW219938   0.650   5.111   1.840
 2626SOL     OW19939   0.443   4.803   1.632
 2626SOL    HW119940   0.462   4.827   1.537
 2626SOL    HW219941   0.436   4.886   1.687
 2627SOL     OW19942   0.104   5.093   1.106
 2627SOL    HW119943   0.073   5.019   1.047
 2627SOL    HW219944   0.036   5.111   1.177
 2628SOL     OW19945   1.190   4.294   0.839
 2628SOL    HW119946   1.272   4.271   0.787
 2628SOL    HW219947   1.185   4.235   0.920
 2629SOL     OW19948   1.790   4.321   1.675
 2629SOL    HW119949   1.779   4.407   1.624
 2629SOL    HW219950   1.884   4.312   1.705
 2630SOL     OW19951   1.361   4.094   1.094
 2630SOL    HW119952   1.335   4.191   1.100
 2630SOL    HW219953   1.361   4.054   1.186
 2631SOL     OW19954   1.591   4.226   1.845
 2631SOL    HW119955   1.671   4.251   1.789
 2631SOL    HW219956   1.622   4.191   1.933
 2632SOL     OW19957   1.302   4.529   0.425
 2632SOL    HW119958   1.248   4.527   0.509
 2632SOL    HW219959   1.379   4.592   0.436
 2633SOL     OW19960   1.599   4.625   0.645
 2633SOL    HW119961   1.613   4.588   0.552
 2633SOL    HW219962   1.510   4.595   0.679
 2634SOL     OW19963   1.755   4.562   1.540
 2634SOL    HW119964   1.657   4.583   1.542
 2634SOL    HW219965   1.804   4.638   1.499
 2635SOL     OW19966   0.756   5.197   1.439
 2635SOL    HW119967   0.693   5.275   1.446
 2635SOL    HW219968   0.724   5.135   1.367
 2636SOL     OW19969   0.147   3.992   1.704
 2636SOL    HW119970   0.165   3.981   1.606
 2636SOL    HW219971   0.049   3.988   1.721
 2637SOL     OW19972   0.027   5.406   1.648
 2637SOL    HW119973   0.099   5.392   1.716
 2637SOL    HW219974  -0.062   5.409   1.693
 2638SOL     OW19975   0.195   4.062   0.672
 2638SOL    HW119976   0.138   4.117   0.733
 2638SOL    HW219977   0.265   4.014   0.725
 2639SOL     OW19978   1.367   5.294   1.535
 2639SOL    HW119979   1.320   5.362   1.590
 2639SOL    HW219980   1.434   5.340   1.476
 2640SOL     OW19981   0.332   4.253   0.270
 2640SOL    HW119982   0.404   4.282   0.207
 2640SOL    HW219983   0.288   4.333   0.310
 2641SOL     OW19984   1.718   3.915   1.373
 2641SOL    HW119985   1.674   3.963   1.449
 2641SOL    HW219986   1.696   3.961   1.287
 2642SOL     OW19987   0.447   5.516   0.736
 2642SOL    HW119988   0.371   5.482   0.681
 2642SOL    HW219989   0.533   5.479   0.701
 2643SOL     OW19990   0.372   5.025   1.181
 2643SOL    HW119991   0.384   5.041   1.278
 2643SOL    HW219992   0.285   5.065   1.151
 2644SOL     OW19993   1.256   5.229   1.827
 2644SOL    HW119994   1.215   5.144   1.793
 2644SOL    HW219995   1.236   5.303   1.763
 2645SOL     OW19996   0.746   4.949   0.517
 2645SOL    HW119997   0.789   4.880   0.459
 2645SOL    HW219998   0.710   4.906   0.600
 2646SOL     OW19999   0.378   4.500   0.719
 2646SOL    HW120000   0.370   4.598   0.737
 2646SOL    HW220001   0.462   4.466   0.760
 2647SOL     OW20002   0.224   3.980   0.234
 2647SOL    HW120003   0.268   3.949   0.151
 2647SOL    HW220004   0.225   4.080   0.238
 2648SOL     OW20005   0.077   4.232   0.845
 2648SOL    HW120006   0.041   4.325   0.837
 2648SOL    HW220007   0.160   4.233   0.901
 2649SOL     OW20008   0.512   4.819   0.231
 2649SOL    HW120009   0.612   4.819   0.242
 2649SOL    HW220010   0.481   4.912   0.210
 2650SOL     OW20011   1.138   4.411   0.047
 2650SOL    HW120012   1.069   4.468   0.003
 2650SOL    HW220013   1.219   4.405  -0.012
 2651SOL     OW20014   0.873   4.330   0.190
 2651SOL    HW120015   0.963   4.331   0.145
 2651SOL    HW220016   0.850   4.236   0.215
 2652SOL     OW20017   1.438   4.247   1.500
 2652SOL    HW120018   1.390   4.270   1.584
 2652SOL    HW220019   1.372   4.217   1.431
 2653SOL     OW20020   0.073   3.762   0.144
 2653SOL    HW120021   0.136   3.685   0.152
 2653SOL    HW220022   0.093   3.830   0.215
 2654SOL     OW20023   0.346   4.737   1.145
 2654SOL    HW120024   0.357   4.692   1.234
 2654SOL    HW220025   0.373   4.833   1.152
 2655SOL     OW20026   1.645   4.749   0.245
 2655SOL    HW120027   1.716   4.819   0.247
 2655SOL    HW220028   1.632   4.719   0.150
 2656SOL     OW20029   0.627   4.350   1.167
 2656SOL    HW120030   0.702   4.393   1.216
 2656SOL    HW220031   0.560   4.315   1.233
 2657SOL     OW20032   0.770   4.719   1.484
 2657SOL    HW120033   0.839   4.771   1.434
 2657SOL    HW220034   0.765   4.752   1.579
 2658SOL     OW20035   1.162   4.740   1.644
 2658SOL    HW120036   1.084   4.686   1.677
 2658SOL    HW220037   1.243   4.718   1.699
 2659SOL     OW20038   1.091   3.922   0.640
 2659SOL    HW120039   1.150   3.982   0.695
 2659SOL    HW220040   1.018   3.886   0.697
 2660SOL     OW20041   1.201   5.454   1.680
 2660SOL    HW120042   1.106   5.452   1.648
 2660SOL    HW220043   1.222   5.545   1.717
 2661SOL     OW20044   0.619   3.799   0.911
 2661SOL    HW120045   0.547   3.732   0.897
 2661SOL    HW220046   0.701   3.753   0.946
 2662SOL     OW20047   0.319   5.464   1.278
 2662SOL    HW120048   0.299   5.446   1.182
 2662SOL    HW220049   0.246   5.426   1.335
 2663SOL     OW20050   1.012   4.928   0.823
 2663SOL    HW120051   1.051   4.971   0.742
 2663SOL    HW220052   1.085   4.911   0.890
 2664SOL     OW20053   0.706   4.656   1.025
 2664SOL    HW120054   0.704   4.572   0.970
 2664SOL    HW220055   0.655   4.642   1.110
 2665SOL     OW20056   0.045   4.666   1.151
 2665SOL    HW120057   0.134   4.644   1.191
 2665SOL    HW220058  -0.010   4.582   1.147
 2666SOL     OW20059   0.273   3.711   0.431
 2666SOL    HW120060   0.311   3.799   0.458
 2666SOL    HW220061   0.196   3.687   0.491
 2667SOL     OW20062   0.689   4.328   1.759
 2667SOL    HW120063   0.641   4.379   1.688
 2667SOL    HW220064   0.782   4.307   1.729
 2668SOL     OW20065   0.095   4.798   0.251
 2668SOL    HW120066   0.085   4.701   0.230
 2668SOL    HW220067   0.148   4.843   0.179
 2669SOL     OW20068   1.792   3.910   0.852
 2669SOL    HW120069   1.747   3.892   0.939
 2669SOL    HW220070   1.890   3.927   0.868
 2670SOL     OW20071   0.840   4.886   1.104
 2670SOL    HW120072   0.791   4.801   1.085
 2670SOL    HW220073   0.910   4.901   1.035
 2671SOL     OW20074   1.178   4.309   0.313
 2671SOL    HW120075   1.230   4.381   0.359
 2671SOL    HW220076   1.191   4.316   0.215
 2672SOL     OW20077   1.539   5.124   1.640
 2672SOL    HW120078   1.524   5.026   1.654
 2672SOL    HW220079   1.456   5.166   1.604
 2673SOL     OW20080   0.296   4.566   1.380
 2673SOL    HW120081   0.260   4.476   1.406
 2673SOL    HW220082   0.257   4.636   1.440
 2674SOL     OW20083   0.798   5.192   0.038
 2674SOL    HW120084   0.773   5.269   0.097
 2674SOL    HW220085   0.862   5.132   0.086
 2675SOL     OW20086   0.616   5.399   1.072
 2675SOL    HW120087   0.636   5.369   0.979
 2675SOL    HW220088   0.541   5.344   1.109
 2676SOL     OW20089   0.759   4.810   0.789
 2676SOL    HW120090   0.848   4.856   0.789
 2676SOL    HW220091   0.752   4.750   0.868
 2677SOL     OW20092   0.937   5.157   0.458
 2677SOL    HW120093   0.987   5.145   0.373
 2677SOL    HW220094   0.883   5.074   0.477
 2678SOL     OW20095   0.127   4.504   0.858
 2678SOL    HW120096   0.222   4.495   0.826
 2678SOL    HW220097   0.093   4.596   0.837
 2679SOL     OW20098   0.064   4.621   1.785
 2679SOL    HW120099  -0.021   4.572   1.766
 2679SOL    HW220100   0.091   4.608   1.880
 2680SOL     OW20101   0.961   5.530   1.491
 2680SOL    HW120102   0.933   5.443   1.532
 2680SOL    HW220103   0.905   5.604   1.528
 2681SOL     OW20104   1.190   4.877   1.021
 2681SOL    HW120105   1.174   4.971   1.052
 2681SOL    HW220106   1.193   4.816   1.101
 2682SOL     OW20107   0.464   4.148   1.785
 2682SOL    HW120108   0.500   4.095   1.708
 2682SOL    HW220109   0.525   4.225   1.803
 2683SOL     OW20110   0.528   4.565   0.357
 2683SOL    HW120111   0.478   4.630   0.301
 2683SOL    HW220112   0.470   4.486   0.376
 2684SOL     OW20113   1.301   4.039   1.351
 2684SOL    HW120114   1.372   4.011   1.415
 2684SOL    HW220115   1.248   3.959   1.323
 2685SOL     OW20116   0.002   3.738   0.552
 2685SOL    HW120117  -0.085   3.725   0.505
 2685SOL    HW220118   0.010   3.833   0.582
 2686SOL     OW20119   1.223   3.839   1.793
 2686SOL    HW120120   1.282   3.855   1.873
 2686SOL    HW220121   1.170   3.922   1.774
 2687SOL     OW20122   0.439   5.258   1.618
 2687SOL    HW120123   0.381   5.323   1.667
 2687SOL    HW220124   0.501   5.308   1.558
 2688SOL     OW20125   1.795   5.145   1.559
 2688SOL    HW120126   1.823   5.238   1.581
 2688SOL    HW220127   1.702   5.129   1.592
 2689SOL     OW20128   1.045   4.258   1.109
 2689SOL    HW120129   1.131   4.309   1.108
 2689SOL    HW220130   1.051   4.184   1.176
 2690SOL     OW20131   0.449   5.204   0.681
 2690SOL    HW120132   0.447   5.105   0.694
 2690SOL    HW220133   0.358   5.237   0.658
 2691SOL     OW20134   1.090   5.321   1.269
 2691SOL    HW120135   1.016   5.385   1.287
 2691SOL    HW220136   1.169   5.370   1.231
 2692SOL     OW20137   0.299   5.451   1.768
 2692SOL    HW120138   0.342   5.535   1.734
 2692SOL    HW220139   0.324   5.438   1.864
 2693SOL     OW20140   0.159   4.987   1.639
 2693SOL    HW120141   0.138   4.892   1.612
 2693SOL    HW220142   0.090   5.048   1.601
 2694SOL     OW20143   0.248   5.352   1.043
 2694SOL    HW120144   0.190   5.272   1.057
 2694SOL    HW220145   0.272   5.359   0.946
 2695SOL     OW20146   0.994   3.873   0.898
 2695SOL    HW120147   1.090   3.874   0.926
 2695SOL    HW220148   0.939   3.830   0.970
 2696SOL     OW20149   1.056   4.879   0.414
 2696SOL    HW120150   1.136   4.915   0.462
 2696SOL    HW220151   1.014   4.806   0.470
 2697SOL     OW20152   0.790   4.818   0.264
 2697SOL    HW120153   0.862   4.877   0.229
 2697SOL    HW220154   0.830   4.734   0.300
 2698SOL     OW20155   0.861   3.794   0.116
 2698SOL    HW120156   0.936   3.728   0.128
 2698SOL    HW220157   0.892   3.885   0.144
 2699SOL     OW20158   0.540   4.223   0.728
 2699SOL    HW120159   0.578   4.134   0.754
 2699SOL    HW220160   0.607   4.273   0.673
 2700SOL     OW20161   0.528   4.781   1.382
 2700SOL    HW120162   0.624   4.761   1.402
 2700SOL    HW220163   0.517   4.879   1.364
 2701SOL     OW20164   1.750   4.824   1.351
 2701SOL    HW120165   1.764   4.922   1.365
 2701SOL    HW220166   1.807   4.793   1.275
 2702SOL     OW20167   0.233   4.933   0.043
 2702SOL    HW120168   0.225   4.945  -0.056
 2702SOL    HW220169   0.292   5.004   0.081
 2703SOL     OW20170   0.660   5.372   0.203
 2703SOL    HW120171   0.635   5.467   0.187
 2703SOL    HW220172   0.627   5.344   0.293
 2704SOL     OW20173   1.310   4.795   1.427
 2704SOL    HW120174   1.254   4.754   1.498
 2704SOL    HW220175   1.290   4.893   1.421
 2705SOL     OW20176   0.577   5.411   1.427
 2705SOL    HW120177   0.626   5.491   1.391
 2705SOL    HW220178   0.485   5.409   1.388
 2706SOL     OW20179   0.220   4.292   1.789
 2706SOL    HW120180   0.237   4.193   1.794
 2706SOL    HW220181   0.284   4.340   1.850
 2707SOL     OW20182   1.659   5.253   1.028
 2707SOL    HW120183   1.631   5.346   1.052
 2707SOL    HW220184   1.709   5.212   1.104
 2708SOL     OW20185   0.055   4.626   0.589
 2708SOL    HW120186   0.062   4.725   0.576
 2708SOL    HW220187  -0.036   4.603   0.623
 2709SOL     OW20188   0.564   4.424   1.527
 2709SOL    HW120189   0.470   4.394   1.508
 2709SOL    HW220190   0.573   4.521   1.504
 2710SOL     OW20191   0.789   4.206   1.008
 2710SOL    HW120192   0.881   4.234   1.035
 2710SOL    HW220193   0.721   4.257   1.062
 2711SOL     OW20194   0.642   5.057   1.235
 2711SOL    HW120195   0.555   5.056   1.186
 2711SOL    HW220196   0.708   4.997   1.188
 2712SOL     OW20197   0.208   4.399   1.149
 2712SOL    HW120198   0.246   4.458   1.220
 2712SOL    HW220199   0.191   4.452   1.067
 2713SOL     OW20200   0.379   5.045   1.447
 2713SOL    HW120201   0.398   5.133   1.491
 2713SOL    HW220202   0.284   5.019   1.465
 2714SOL     OW20203   1.622   5.361   1.795
 2714SOL    HW120204   1.591   5.283   1.740
 2714SOL    HW220205   1.591   5.446   1.753
 2715SOL     OW20206   1.330   4.899   0.516
 2715SOL    HW120207   1.429   4.903   0.532
 2715SOL    HW220208   1.313   4.885   0.418
 2716SOL     OW20209   0.683   4.065   0.464
 2716SOL    HW120210   0.585   4.059   0.444
 2716SOL    HW220211   0.702   4.022   0.552
 2717SOL     OW20212   1.603   3.748   0.723
 2717SOL    HW120213   1.598   3.789   0.632
 2717SOL    HW220214   1.684   3.782   0.770
 2718SOL     OW20215   1.206   4.504   1.416
 2718SOL    HW120216   1.305   4.513   1.406
 2718SOL    HW220217   1.162   4.506   1.326
 2719SOL     OW20218   0.700   4.464   0.818
 2719SOL    HW120219   0.722   4.386   0.876
 2719SOL    HW220220   0.709   4.438   0.722
 2720SOL     OW20221   1.365   5.171   1.030
 2720SOL    HW120222   1.279   5.128   1.059
 2720SOL    HW220223   1.354   5.211   0.939
 2721SOL     OW20224   1.095   5.172   2.537
 2721SOL    HW120225   1.186   5.206   2.560
 2721SOL    HW220226   1.067   5.210   2.449
 2722SOL     OW20227   1.606   4.968   2.395
 2722SOL    HW120228   1.617   5.052   2.449
 2722SOL    HW220229   1.696   4.931   2.372
 2723SOL     OW20230   0.353   3.887   1.864
 2723SOL    HW120231   0.266   3.884   1.815
 2723SOL    HW220232   0.404   3.969   1.836
 2724SOL     OW20233   1.340   5.276   2.639
 2724SOL    HW120234   1.329   5.373   2.662
 2724SOL    HW220235   1.433   5.259   2.609
 2725SOL     OW20236   0.956   4.567   3.574
 2725SOL    HW120237   0.921   4.542   3.484
 2725SOL    HW220238   0.880   4.588   3.635
 2726SOL     OW20239   0.563   5.241   2.268
 2726SOL    HW120240   0.519   5.250   2.357
 2726SOL    HW220241   0.634   5.171   2.272
 2727SOL     OW20242   0.581   3.774   1.990
 2727SOL    HW120243   0.669   3.802   1.951
 2727SOL    HW220244   0.509   3.837   1.960
 2728SOL     OW20245   1.451   4.766   3.054
 2728SOL    HW120246   1.376   4.755   3.119
 2728SOL    HW220247   1.488   4.859   3.060
 2729SOL     OW20248   0.947   5.021   3.354
 2729SOL    HW120249   0.890   5.084   3.300
 2729SOL    HW220250   0.980   4.947   3.295
 2730SOL     OW20251   0.490   4.914   2.563
 2730SOL    HW120252   0.423   4.868   2.622
 2730SOL    HW220253   0.582   4.882   2.586
 2731SOL     OW20254   0.717   4.320   2.394
 2731SOL    HW120255   0.756   4.390   2.335
 2731SOL    HW220256   0.691   4.240   2.340
 2732SOL     OW20257   0.420   5.083   2.047
 2732SOL    HW120258   0.484   5.099   1.972
 2732SOL    HW220259   0.444   5.141   2.125
 2733SOL     OW20260   0.571   4.039   2.857
 2733SOL    HW120261   0.647   4.104   2.853
 2733SOL    HW220262   0.601   3.950   2.824
 2734SOL     OW20263   0.268   4.465   2.275
 2734SOL    HW120264   0.283   4.399   2.349
 2734SOL    HW220265   0.218   4.544   2.310
 2735SOL     OW20266   0.854   5.410   2.452
 2735SOL    HW120267   0.919   5.343   2.416
 2735SOL    HW220268   0.844   5.486   2.388
 2736SOL     OW20269   1.746   5.292   2.194
 2736SOL    HW120270   1.842   5.266   2.187
 2736SOL    HW220271   1.722   5.352   2.118
 2737SOL     OW20272   1.058   4.014   2.234
 2737SOL    HW120273   1.083   4.108   2.255
 2737SOL    HW220274   1.059   3.960   2.318
 2738SOL     OW20275   0.182   4.727   3.419
 2738SOL    HW120276   0.278   4.742   3.437
 2738SOL    HW220277   0.144   4.665   3.488
 2739SOL     OW20278   0.508   4.372   1.962
 2739SOL    HW120279   0.468   4.451   1.915
 2739SOL    HW220280   0.597   4.351   1.922
 2740SOL     OW20281   0.681   5.296   2.660
 2740SOL    HW120282   0.754   5.319   2.596
 2740SOL    HW220283   0.610   5.243   2.614
 2741SOL     OW20284   1.023   4.328   3.414
 2741SOL    HW120285   1.056   4.245   3.461
 2741SOL    HW220286   1.096   4.396   3.413
 2742SOL     OW20287   1.627   5.128   2.636
 2742SOL    HW120288   1.623   5.163   2.729
 2742SOL    HW220289   1.686   5.187   2.580
 2743SOL     OW20290   0.358   4.949   2.312
 2743SOL    HW120291   0.404   4.923   2.397
 2743SOL    HW220292   0.378   4.881   2.241
 2744SOL     OW20293   1.216   4.004   2.023
 2744SOL    HW120294   1.310   3.974   2.041
 2744SOL    HW220295   1.164   4.004   2.109
 2745SOL     OW20296   0.368   4.209   3.118
 2745SOL    HW120297   0.358   4.122   3.070
 2745SOL    HW220298   0.304   4.276   3.081
 2746SOL     OW20299   1.450   4.489   3.156
 2746SOL    HW120300   1.454   4.583   3.121
 2746SOL    HW220301   1.543   4.458   3.178
 2747SOL     OW20302   0.403   3.981   2.277
 2747SOL    HW120303   0.357   4.021   2.356
 2747SOL    HW220304   0.351   4.000   2.195
 2748SOL     OW20305   0.956   4.192   2.519
 2748SOL    HW120306   1.032   4.220   2.578
 2748SOL    HW220307   0.912   4.272   2.480
 2749SOL     OW20308   1.191   4.656   2.036
 2749SOL    HW120309   1.228   4.606   2.114
 2749SOL    HW220310   1.121   4.601   1.991
 2750SOL     OW20311   1.033   4.078   3.657
 2750SOL    HW120312   1.096   4.083   3.734
 2750SOL    HW220313   0.941   4.056   3.690
 2751SOL     OW20314   1.774   4.325   2.115
 2751SOL    HW120315   1.795   4.244   2.061
 2751SOL    HW220316   1.791   4.306   2.212
 2752SOL     OW20317   1.068   5.463   2.023
 2752SOL    HW120318   1.102   5.376   1.988
 2752SOL    HW220319   1.036   5.451   2.117
 2753SOL     OW20320   0.749   3.730   3.555
 2753SOL    HW120321   0.756   3.636   3.522
 2753SOL    HW220322   0.806   3.740   3.637
 2754SOL     OW20323   1.672   4.331   2.823
 2754SOL    HW120324   1.657   4.422   2.860
 2754SOL    HW220325   1.742   4.284   2.877
 2755SOL     OW20326   1.082   4.997   3.589
 2755SOL    HW120327   1.104   4.907   3.551
 2755SOL    HW220328   1.017   5.044   3.530
 2756SOL     OW20329   0.737   4.839   3.593
 2756SOL    HW120330   0.708   4.916   3.650
 2756SOL    HW220331   0.747   4.758   3.651
 2757SOL     OW20332   0.030   4.313   2.372
 2757SOL    HW120333   0.032   4.264   2.459
 2757SOL    HW220334   0.032   4.412   2.390
 2758SOL     OW20335   0.351   3.901   2.693
 2758SOL    HW120336   0.403   3.941   2.768
 2758SOL    HW220337   0.404   3.828   2.650
 2759SOL     OW20338   0.335   3.949   3.027
 2759SOL    HW120339   0.300   3.856   3.027
 2759SOL    HW220340   0.422   3.952   2.978
 2760SOL     OW20341   1.002   4.571   2.767
 2760SOL    HW120342   1.028   4.651   2.713
 2760SOL    HW220343   0.996   4.491   2.707
 2761SOL     OW20344   0.203   5.198   2.226
 2761SOL    HW120345   0.230   5.104   2.246
 2761SOL    HW220346   0.228   5.220   2.132
 2762SOL     OW20347   0.217   5.341   2.463
 2762SOL    HW120348   0.133   5.392   2.481
 2762SOL    HW220349   0.208   5.290   2.378
 2763SOL     OW20350   1.738   5.138   3.138
 2763SOL    HW120351   1.769   5.152   3.232
 2763SOL    HW220352   1.639   5.125   3.137
 2764SOL     OW20353   0.490   4.638   1.865
 2764SOL    HW120354   0.459   4.672   1.777
 2764SOL    HW220355   0.494   4.713   1.931
 2765SOL     OW20356   1.007   4.825   3.164
 2765SOL    HW120357   1.057   4.740   3.148
 2765SOL    HW220358   0.961   4.852   3.079
 2766SOL     OW20359   0.094   4.530   2.038
 2766SOL    HW120360   0.154   4.477   2.098
 2766SOL    HW220361   0.000   4.498   2.050
 2767SOL     OW20362   1.614   4.528   2.238
 2767SOL    HW120363   1.682   4.462   2.205
 2767SOL    HW220364   1.629   4.616   2.194
 2768SOL     OW20365   0.862   5.515   2.886
 2768SOL    HW120366   0.908   5.448   2.828
 2768SOL    HW220367   0.788   5.471   2.936
 2769SOL     OW20368   0.769   4.584   1.922
 2769SOL    HW120369   0.798   4.503   1.973
 2769SOL    HW220370   0.669   4.583   1.913
 2770SOL     OW20371   1.365   4.116   2.268
 2770SOL    HW120372   1.302   4.174   2.216
 2770SOL    HW220373   1.458   4.150   2.256
 2771SOL     OW20374   0.262   4.317   3.368
 2771SOL    HW120375   0.282   4.222   3.343
 2771SOL    HW220376   0.225   4.320   3.461
 2772SOL     OW20377   0.144   3.972   3.258
 2772SOL    HW120378   0.216   3.982   3.189
 2772SOL    HW220379   0.055   3.971   3.213
 2773SOL     OW20380   1.042   4.593   3.023
 2773SOL    HW120381   1.036   4.579   2.924
 2773SOL    HW220382   0.961   4.554   3.067
 2774SOL     OW20383   1.633   4.127   2.338
 2774SOL    HW120384   1.729   4.098   2.335
 2774SOL    HW220385   1.594   4.105   2.427
 2775SOL     OW20386   0.917   5.202   2.775
 2775SOL    HW120387   0.975   5.213   2.694
 2775SOL    HW220388   0.823   5.226   2.753
 2776SOL     OW20389   0.867   4.068   2.060
 2776SOL    HW120390   0.776   4.081   2.098
 2776SOL    HW220391   0.927   4.028   2.130
 2777SOL     OW20392   0.978   5.013   1.995
 2777SOL    HW120393   1.031   4.953   2.055
 2777SOL    HW220394   1.017   5.014   1.904
 2778SOL     OW20395   1.729   5.308   2.480
 2778SOL    HW120396   1.696   5.401   2.499
 2778SOL    HW220397   1.727   5.292   2.381
 2779SOL     OW20398   1.144   4.581   2.469
 2779SOL    HW120399   1.209   4.609   2.540
 2779SOL    HW220400   1.065   4.642   2.471
 2780SOL     OW20401   0.892   5.307   3.493
 2780SOL    HW120402   0.880   5.238   3.422
 2780SOL    HW220403   0.855   5.272   3.580
 2781SOL     OW20404   1.336   4.621   2.672
 2781SOL    HW120405   1.357   4.563   2.750
 2781SOL    HW220406   1.345   4.717   2.698
 2782SOL     OW20407   0.292   4.750   2.718
 2782SOL    HW120408   0.215   4.812   2.711
 2782SOL    HW220409   0.329   4.751   2.811
 2783SOL     OW20410   0.925   4.698   2.417
 2783SOL    HW120411   0.912   4.609   2.374
 2783SOL    HW220412   0.856   4.712   2.488
 2784SOL     OW20413   0.036   4.003   2.320
 2784SOL    HW120414   0.096   3.954   2.258
 2784SOL    HW220415   0.091   4.055   2.385
 2785SOL     OW20416   1.659   5.501   2.011
 2785SOL    HW120417   1.749   5.545   2.013
 2785SOL    HW220418   1.658   5.432   1.939
 2786SOL     OW20419   0.823   4.468   3.169
 2786SOL    HW120420   0.825   4.554   3.220
 2786SOL    HW220421   0.880   4.400   3.216
 2787SOL     OW20422   0.060   5.495   3.240
 2787SOL    HW120423   0.068   5.595   3.238
 2787SOL    HW220424   0.036   5.466   3.333
 2788SOL     OW20425   0.841   4.514   2.234
 2788SOL    HW120426   0.752   4.542   2.199
 2788SOL    HW220427   0.882   4.448   2.170
 2789SOL     OW20428   0.363   4.232   2.773
 2789SOL    HW120429   0.419   4.225   2.690
 2789SOL    HW220430   0.420   4.210   2.853
 2790SOL     OW20431   0.360   5.430   2.044
 2790SOL    HW120432   0.452   5.460   2.019
 2790SOL    HW220433   0.335   5.469   2.133
 2791SOL     OW20434   0.041   4.847   2.793
 2791SOL    HW120435  -0.049   4.863   2.754
 2791SOL    HW220436   0.039   4.763   2.848
 2792SOL     OW20437   0.792   3.752   2.243
 2792SOL    HW120438   0.753   3.741   2.152
 2792SOL    HW220439   0.748   3.828   2.290
 2793SOL     OW20440   0.037   4.888   2.337
 2793SOL    HW120441   0.115   4.946   2.361
 2793SOL    HW220442   0.056   4.839   2.252
 2794SOL     OW20443   1.283   3.962   2.712
 2794SOL    HW120444   1.282   4.040   2.649
 2794SOL    HW220445   1.326   3.989   2.798
 2795SOL     OW20446   1.403   3.768   2.008
 2795SOL    HW120447   1.483   3.708   2.005
 2795SOL    HW220448   1.329   3.721   2.056
 2796SOL     OW20449   1.616   3.740   3.442
 2796SOL    HW120450   1.642   3.697   3.356
 2796SOL    HW220451   1.566   3.824   3.424
 2797SOL     OW20452   0.718   3.999   2.574
 2797SOL    HW120453   0.707   3.941   2.655
 2797SOL    HW220454   0.803   4.051   2.582
 2798SOL     OW20455   1.591   3.756   2.282
 2798SOL    HW120456   1.598   3.710   2.194
 2798SOL    HW220457   1.495   3.766   2.307
 2799SOL     OW20458   0.567   5.071   3.645
 2799SOL    HW120459   0.528   5.134   3.578
 2799SOL    HW220460   0.650   5.111   3.685
 2800SOL     OW20461   0.443   4.803   3.477
 2800SOL    HW120462   0.462   4.827   3.382
 2800SOL    HW220463   0.436   4.886   3.532
 2801SOL     OW20464   0.104   5.093   2.951
 2801SOL    HW120465   0.073   5.019   2.892
 2801SOL    HW220466   0.036   5.111   3.022
 2802SOL     OW20467   1.190   4.294   2.684
 2802SOL    HW120468   1.272   4.271   2.632
 2802SOL    HW220469   1.185   4.235   2.765
 2803SOL     OW20470   1.302   4.529   2.270
 2803SOL    HW120471   1.248   4.527   2.354
 2803SOL    HW220472   1.379   4.592   2.281
 2804SOL     OW20473   1.599   4.625   2.490
 2804SOL    HW120474   1.613   4.588   2.397
 2804SOL    HW220475   1.510   4.595   2.524
 2805SOL     OW20476   1.755   4.562   3.385
 2805SOL    HW120477   1.657   4.583   3.387
 2805SOL    HW220478   1.804   4.638   3.344
 2806SOL     OW20479   1.609   3.982   2.064
 2806SOL    HW120480   1.614   4.024   2.155
 2806SOL    HW220481   1.542   3.907   2.066
 2807SOL     OW20482   0.756   5.197   3.284
 2807SOL    HW120483   0.693   5.275   3.291
 2807SOL    HW220484   0.724   5.135   3.212
 2808SOL     OW20485   0.147   3.992   3.549
 2808SOL    HW120486   0.165   3.981   3.451
 2808SOL    HW220487   0.049   3.988   3.566
 2809SOL     OW20488   0.027   5.406   3.493
 2809SOL    HW120489   0.099   5.392   3.561
 2809SOL    HW220490  -0.062   5.409   3.538
 2810SOL     OW20491   0.195   4.062   2.517
 2810SOL    HW120492   0.138   4.117   2.578
 2810SOL    HW220493   0.265   4.014   2.570
 2811SOL     OW20494   0.332   4.253   2.115
 2811SOL    HW120495   0.404   4.282   2.052
 2811SOL    HW220496   0.288   4.333   2.155
 2812SOL     OW20497   0.447   5.516   2.581
 2812SOL    HW120498   0.371   5.482   2.526
 2812SOL    HW220499   0.533   5.479   2.546
 2813SOL     OW20500   0.372   5.025   3.026
 2813SOL    HW120501   0.384   5.041   3.123
 2813SOL    HW220502   0.285   5.065   2.996
 2814SOL     OW20503   1.256   5.229   3.672
 2814SOL    HW120504   1.215   5.144   3.638
 2814SOL    HW220505   1.236   5.303   3.608
 2815SOL     OW20506   0.746   4.949   2.362
 2815SOL    HW120507   0.789   4.880   2.304
 2815SOL    HW220508   0.710   4.906   2.445
 2816SOL     OW20509   0.378   4.500   2.564
 2816SOL    HW120510   0.370   4.598   2.582
 2816SOL    HW220511   0.462   4.466   2.605
 2817SOL     OW20512   0.224   3.980   2.079
 2817SOL    HW120513   0.268   3.949   1.996
 2817SOL    HW220514   0.225   4.080   2.083
 2818SOL     OW20515   0.077   4.232   2.690
 2818SOL    HW120516   0.041   4.325   2.682
 2818SOL    HW220517   0.160   4.233   2.746
 2819SOL     OW20518   0.512   4.819   2.076
 2819SOL    HW120519   0.612   4.819   2.087
 2819SOL    HW220520   0.481   4.912   2.055
 2820SOL     OW20521   1.138   4.411   1.892
 2820SOL    HW120522   1.069   4.468   1.848
 2820SOL    HW220523   1.219   4.405   1.833
 2821SOL     OW20524   0.873   4.330   2.035
 2821SOL    HW120525   0.963   4.331   1.990
 2821SOL    HW220526   0.850   4.236   2.060
 2822SOL     OW20527   1.324   3.847   2.329
 2822SOL    HW120528   1.234   3.831   2.370
 2822SOL    HW220529   1.332   3.943   2.303
 2823SOL     OW20530   0.073   3.762   1.989
 2823SOL    HW120531   0.136   3.685   1.997
 2823SOL    HW220532   0.093   3.830   2.060
 2824SOL     OW20533   0.346   4.737   2.990
 2824SOL    HW120534   0.357   4.692   3.079
 2824SOL    HW220535   0.373   4.833   2.997
 2825SOL     OW20536   1.645   4.749   2.090
 2825SOL    HW120537   1.716   4.819   2.092
 2825SOL    HW220538   1.632   4.719   1.995
 2826SOL     OW20539   0.627   4.350   3.012
 2826SOL    HW120540   0.702   4.393   3.061
 2826SOL    HW220541   0.560   4.315   3.078
 2827SOL     OW20542   0.770   4.719   3.329
 2827SOL    HW120543   0.839   4.771   3.279
 2827SOL    HW220544   0.765   4.752   3.424
 2828SOL     OW20545   1.091   3.922   2.485
 2828SOL    HW120546   1.150   3.982   2.540
 2828SOL    HW220547   1.018   3.886   2.542
 2829SOL     OW20548   1.201   5.454   3.525
 2829SOL    HW120549   1.106   5.452   3.493
 2829SOL    HW220550   1.222   5.545   3.562
 2830SOL     OW20551   0.619   3.799   2.756
 2830SOL    HW120552   0.547   3.732   2.742
 2830SOL    HW220553   0.701   3.753   2.791
 2831SOL     OW20554   0.319   5.464   3.123
 2831SOL    HW120555   0.299   5.446   3.027
 2831SOL    HW220556   0.246   5.426   3.180
 2832SOL     OW20557   1.012   4.928   2.668
 2832SOL    HW120558   1.051   4.971   2.587
 2832SOL    HW220559   1.085   4.911   2.735
 2833SOL     OW20560   0.706   4.656   2.870
 2833SOL    HW120561   0.704   4.572   2.815
 2833SOL    HW220562   0.655   4.642   2.955
 2834SOL     OW20563   0.045   4.666   2.996
 2834SOL    HW120564   0.134   4.644   3.036
 2834SOL    HW220565  -0.010   4.582   2.992
 2835SOL     OW20566   0.273   3.711   2.276
 2835SOL    HW120567   0.311   3.799   2.303
 2835SOL    HW220568   0.196   3.687   2.336
 2836SOL     OW20569   0.689   4.328   3.604
 2836SOL    HW120570   0.641   4.379   3.533
 2836SOL    HW220571   0.782   4.307   3.574
 2837SOL     OW20572   0.095   4.798   2.096
 2837SOL    HW120573   0.085   4.701   2.075
 2837SOL    HW220574   0.148   4.843   2.024
 2838SOL     OW20575   0.840   4.886   2.949
 2838SOL    HW120576   0.791   4.801   2.930
 2838SOL    HW220577   0.910   4.901   2.880
 2839SOL     OW20578   1.178   4.309   2.158
 2839SOL    HW120579   1.230   4.381   2.204
 2839SOL    HW220580   1.191   4.316   2.060
 2840SOL     OW20581   0.296   4.566   3.225
 2840SOL    HW120582   0.260   4.476   3.251
 2840SOL    HW220583   0.257   4.636   3.285
 2841SOL     OW20584   0.798   5.192   1.883
 2841SOL    HW120585   0.773   5.269   1.942
 2841SOL    HW220586   0.862   5.132   1.931
 2842SOL     OW20587   0.616   5.399   2.917
 2842SOL    HW120588   0.636   5.369   2.824
 2842SOL    HW220589   0.541   5.344   2.954
 2843SOL     OW20590   0.759   4.810   2.634
 2843SOL    HW120591   0.848   4.856   2.634
 2843SOL    HW220592   0.752   4.750   2.713
 2844SOL     OW20593   0.937   5.157   2.303
 2844SOL    HW120594   0.987   5.145   2.218
 2844SOL    HW220595   0.883   5.074   2.322
 2845SOL     OW20596   0.127   4.504   2.703
 2845SOL    HW120597   0.222   4.495   2.671
 2845SOL    HW220598   0.093   4.596   2.682
 2846SOL     OW20599   0.064   4.621   3.630
 2846SOL    HW120600  -0.021   4.572   3.611
 2846SOL    HW220601   0.091   4.608   3.725
 2847SOL     OW20602   0.961   5.530   3.336
 2847SOL    HW120603   0.933   5.443   3.377
 2847SOL    HW220604   0.905   5.604   3.373
 2848SOL     OW20605   1.190   4.877   2.866
 2848SOL    HW120606   1.174   4.971   2.897
 2848SOL    HW220607   1.193   4.816   2.946
 2849SOL     OW20608   0.464   4.148   3.630
 2849SOL    HW120609   0.500   4.095   3.553
 2849SOL    HW220610   0.525   4.225   3.648
 2850SOL     OW20611   0.528   4.565   2.202
 2850SOL    HW120612   0.478   4.630   2.146
 2850SOL    HW220613   0.470   4.486   2.221
 2851SOL     OW20614   1.609   4.596   2.900
 2851SOL    HW120615   1.628   4.635   2.809
 2851SOL    HW220616   1.563   4.665   2.956
 2852SOL     OW20617   0.002   3.738   2.397
 2852SOL    HW120618  -0.085   3.725   2.350
 2852SOL    HW220619   0.010   3.833   2.427
 2853SOL     OW20620   1.223   3.839   3.638
 2853SOL    HW120621   1.282   3.855   3.718
 2853SOL    HW220622   1.170   3.922   3.619
 2854SOL     OW20623   0.439   5.258   3.463
 2854SOL    HW120624   0.381   5.323   3.512
 2854SOL    HW220625   0.501   5.308   3.403
 2855SOL     OW20626   1.795   5.145   3.404
 2855SOL    HW120627   1.823   5.238   3.426
 2855SOL    HW220628   1.702   5.129   3.437
 2856SOL     OW20629   1.045   4.258   2.954
 2856SOL    HW120630   1.131   4.309   2.953
 2856SOL    HW220631   1.051   4.184   3.021
 2857SOL     OW20632   0.449   5.204   2.526
 2857SOL    HW120633   0.447   5.105   2.539
 2857SOL    HW220634   0.358   5.237   2.503
 2858SOL     OW20635   1.090   5.321   3.114
 2858SOL    HW120636   1.016   5.385   3.132
 2858SOL    HW220637   1.169   5.370   3.076
 2859SOL     OW20638   0.299   5.451   3.613
 2859SOL    HW120639   0.342   5.535   3.579
 2859SOL    HW220640   0.324   5.438   3.709
 2860SOL     OW20641   0.159   4.987   3.484
 2860SOL    HW120642   0.138   4.892   3.457
 2860SOL    HW220643   0.090   5.048   3.446
 2861SOL     OW20644   0.248   5.352   2.888
 2861SOL    HW120645   0.190   5.272   2.902
 2861SOL    HW220646   0.272   5.359   2.791
 2862SOL     OW20647   0.994   3.873   2.743
 2862SOL    HW120648   1.090   3.874   2.771
 2862SOL    HW220649   0.939   3.830   2.815
 2863SOL     OW20650   1.056   4.879   2.259
 2863SOL    HW120651   1.136   4.915   2.307
 2863SOL    HW220652   1.014   4.806   2.315
 2864SOL     OW20653   1.647   4.146   2.623
 2864SOL    HW120654   1.666   4.232   2.670
 2864SOL    HW220655   1.715   4.077   2.651
 2865SOL     OW20656   0.790   4.818   2.109
 2865SOL    HW120657   0.862   4.877   2.074
 2865SOL    HW220658   0.830   4.734   2.145
 2866SOL     OW20659   0.861   3.794   1.961
 2866SOL    HW120660   0.936   3.728   1.973
 2866SOL    HW220661   0.892   3.885   1.989
 2867SOL     OW20662   0.540   4.223   2.573
 2867SOL    HW120663   0.578   4.134   2.599
 2867SOL    HW220664   0.607   4.273   2.518
 2868SOL     OW20665   0.528   4.781   3.227
 2868SOL    HW120666   0.624   4.761   3.247
 2868SOL    HW220667   0.517   4.879   3.209
 2869SOL     OW20668   1.750   4.824   3.196
 2869SOL    HW120669   1.764   4.922   3.210
 2869SOL    HW220670   1.807   4.793   3.120
 2870SOL     OW20671   0.233   4.933   1.888
 2870SOL    HW120672   0.225   4.945   1.789
 2870SOL    HW220673   0.292   5.004   1.926
 2871SOL     OW20674   0.660   5.372   2.048
 2871SOL    HW120675   0.635   5.467   2.032
 2871SOL    HW220676   0.627   5.344   2.138
 2872SOL     OW20677   0.577   5.411   3.272
 2872SOL    HW120678   0.626   5.491   3.236
 2872SOL    HW220679   0.485   5.409   3.233
 2873SOL     OW20680   0.220   4.292   3.634
 2873SOL    HW120681   0.237   4.193   3.639
 2873SOL    HW220682   0.284   4.340   3.695
 2874SOL     OW20683   1.659   5.253   2.873
 2874SOL    HW120684   1.631   5.346   2.897
 2874SOL    HW220685   1.709   5.212   2.949
 2875SOL     OW20686   0.055   4.626   2.434
 2875SOL    HW120687   0.062   4.725   2.421
 2875SOL    HW220688  -0.036   4.603   2.468
 2876SOL     OW20689   0.564   4.424   3.372
 2876SOL    HW120690   0.470   4.394   3.353
 2876SOL    HW220691   0.573   4.521   3.349
 2877SOL     OW20692   1.631   4.800   2.684
 2877SOL    HW120693   1.593   4.889   2.657
 2877SOL    HW220694   1.631   4.738   2.606
 2878SOL     OW20695   0.789   4.206   2.853
 2878SOL    HW120696   0.881   4.234   2.880
 2878SOL    HW220697   0.721   4.257   2.907
 2879SOL     OW20698   0.642   5.057   3.080
 2879SOL    HW120699   0.555   5.056   3.031
 2879SOL    HW220700   0.708   4.997   3.033
 2880SOL     OW20701   0.208   4.399   2.994
 2880SOL    HW120702   0.246   4.458   3.065
 2880SOL    HW220703   0.191   4.452   2.912
 2881SOL     OW20704   0.379   5.045   3.292
 2881SOL    HW120705   0.398   5.133   3.336
 2881SOL    HW220706   0.284   5.019   3.310
 2882SOL     OW20707   1.622   5.361   3.640
 2882SOL    HW120708   1.591   5.283   3.585
 2882SOL    HW220709   1.591   5.446   3.598
 2883SOL     OW20710   1.330   4.899   2.361
 2883SOL    HW120711   1.429   4.903   2.377
 2883SOL    HW220712   1.313   4.885   2.263
 2884SOL     OW20713   0.683   4.065   2.309
 2884SOL    HW120714   0.585   4.059   2.289
 2884SOL    HW220715   0.702   4.022   2.397
 2885SOL     OW20716   1.206   4.504   3.261
 2885SOL    HW120717   1.305   4.513   3.251
 2885SOL    HW220718   1.162   4.506   3.171
 2886SOL     OW20719   0.700   4.464   2.663
 2886SOL    HW120720   0.722   4.386   2.721
 2886SOL    HW220721   0.709   4.438   2.567
 2887SOL     OW20722   1.365   5.171   2.875
 2887SOL    HW120723   1.279   5.128   2.904
 2887SOL    HW220724   1.354   5.211   2.784
 2888SOL     OW20725   1.368   4.156   2.550
 2888SOL    HW120726   1.367   4.148   2.451
 2888SOL    HW220727   1.457   4.128   2.585
 2889SOL     OW20728   1.686   4.250   5.105
 2889SOL    HW120729   1.588   4.242   5.127
 2889SOL    HW220730   1.739   4.239   5.189
 2890SOL     OW20731   0.353   3.887   3.710
 2890SOL    HW120732   0.266   3.884   3.661
 2890SOL    HW220733   0.404   3.969   3.682
 2891SOL     OW20734   1.218   3.787   5.043
 2891SOL    HW120735   1.142   3.742   5.090
 2891SOL    HW220736   1.247   3.732   4.965
 2892SOL     OW20737   0.956   4.567   5.420
 2892SOL    HW120738   0.921   4.542   5.330
 2892SOL    HW220739   0.880   4.588   5.481
 2893SOL     OW20740   0.563   5.241   4.114
 2893SOL    HW120741   0.519   5.250   4.203
 2893SOL    HW220742   0.634   5.171   4.118
 2894SOL     OW20743   0.581   3.774   3.836
 2894SOL    HW120744   0.669   3.802   3.797
 2894SOL    HW220745   0.509   3.837   3.806
 2895SOL     OW20746   1.551   4.759   5.219
 2895SOL    HW120747   1.459   4.764   5.181
 2895SOL    HW220748   1.616   4.797   5.153
 2896SOL     OW20749   1.451   4.766   4.900
 2896SOL    HW120750   1.376   4.755   4.965
 2896SOL    HW220751   1.488   4.859   4.906
 2897SOL     OW20752   0.947   5.021   5.200
 2897SOL    HW120753   0.890   5.084   5.146
 2897SOL    HW220754   0.980   4.947   5.141
 2898SOL     OW20755   0.490   4.914   4.409
 2898SOL    HW120756   0.423   4.868   4.468
 2898SOL    HW220757   0.582   4.882   4.432
 2899SOL     OW20758   0.717   4.320   4.240
 2899SOL    HW120759   0.756   4.390   4.181
 2899SOL    HW220760   0.691   4.240   4.186
 2900SOL     OW20761   1.337   4.228   5.449
 2900SOL    HW120762   1.433   4.232   5.475
 2900SOL    HW220763   1.293   4.152   5.496
 2901SOL     OW20764   0.420   5.083   3.893
 2901SOL    HW120765   0.484   5.099   3.818
 2901SOL    HW220766   0.444   5.141   3.971
 2902SOL     OW20767   0.571   4.039   4.703
 2902SOL    HW120768   0.647   4.104   4.699
 2902SOL    HW220769   0.601   3.950   4.670
 2903SOL     OW20770   0.268   4.465   4.121
 2903SOL    HW120771   0.283   4.399   4.195
 2903SOL    HW220772   0.218   4.544   4.156
 2904SOL     OW20773   1.746   5.292   4.040
 2904SOL    HW120774   1.842   5.266   4.033
 2904SOL    HW220775   1.722   5.352   3.964
 2905SOL     OW20776   1.658   3.985   4.811
 2905SOL    HW120777   1.709   4.057   4.764
 2905SOL    HW220778   1.563   4.012   4.820
 2906SOL     OW20779   1.058   4.014   4.080
 2906SOL    HW120780   1.083   4.108   4.101
 2906SOL    HW220781   1.059   3.960   4.164
 2907SOL     OW20782   0.182   4.727   5.265
 2907SOL    HW120783   0.278   4.742   5.283
 2907SOL    HW220784   0.144   4.665   5.334
 2908SOL     OW20785   0.508   4.372   3.808
 2908SOL    HW120786   0.468   4.451   3.761
 2908SOL    HW220787   0.597   4.351   3.768
 2909SOL     OW20788   0.681   5.296   4.506
 2909SOL    HW120789   0.754   5.319   4.442
 2909SOL    HW220790   0.610   5.243   4.460
 2910SOL     OW20791   1.023   4.328   5.260
 2910SOL    HW120792   1.056   4.245   5.307
 2910SOL    HW220793   1.096   4.396   5.259
 2911SOL     OW20794   1.627   5.128   4.482
 2911SOL    HW120795   1.623   5.163   4.575
 2911SOL    HW220796   1.686   5.187   4.426
 2912SOL     OW20797   0.358   4.949   4.158
 2912SOL    HW120798   0.404   4.923   4.243
 2912SOL    HW220799   0.378   4.881   4.087
 2913SOL     OW20800   1.216   4.004   3.869
 2913SOL    HW120801   1.310   3.974   3.887
 2913SOL    HW220802   1.164   4.004   3.955
 2914SOL     OW20803   0.368   4.209   4.964
 2914SOL    HW120804   0.358   4.122   4.916
 2914SOL    HW220805   0.304   4.276   4.927
 2915SOL     OW20806   1.450   4.489   5.002
 2915SOL    HW120807   1.454   4.583   4.967
 2915SOL    HW220808   1.543   4.458   5.024
 2916SOL     OW20809   0.403   3.981   4.123
 2916SOL    HW120810   0.357   4.021   4.202
 2916SOL    HW220811   0.351   4.000   4.041
 2917SOL     OW20812   1.531   5.508   5.035
 2917SOL    HW120813   1.474   5.459   4.969
 2917SOL    HW220814   1.617   5.535   4.992
 2918SOL     OW20815   1.826   4.226   4.890
 2918SOL    HW120816   1.883   4.308   4.892
 2918SOL    HW220817   1.767   4.225   4.970
 2919SOL     OW20818   1.843   5.452   4.803
 2919SOL    HW120819   1.889   5.462   4.891
 2919SOL    HW220820   1.910   5.455   4.730
 2920SOL     OW20821   0.956   4.192   4.365
 2920SOL    HW120822   1.032   4.220   4.424
 2920SOL    HW220823   0.912   4.272   4.326
 2921SOL     OW20824   1.191   4.656   3.882
 2921SOL    HW120825   1.228   4.606   3.960
 2921SOL    HW220826   1.121   4.601   3.837
 2922SOL     OW20827   1.033   4.078   5.503
 2922SOL    HW120828   1.096   4.083   5.580
 2922SOL    HW220829   0.941   4.056   5.536
 2923SOL     OW20830   1.068   5.463   3.869
 2923SOL    HW120831   1.102   5.376   3.834
 2923SOL    HW220832   1.036   5.451   3.963
 2924SOL     OW20833   0.749   3.730   5.401
 2924SOL    HW120834   0.756   3.636   5.368
 2924SOL    HW220835   0.806   3.740   5.483
 2925SOL     OW20836   1.672   4.331   4.669
 2925SOL    HW120837   1.657   4.422   4.706
 2925SOL    HW220838   1.742   4.284   4.723
 2926SOL     OW20839   1.082   4.997   5.435
 2926SOL    HW120840   1.104   4.907   5.397
 2926SOL    HW220841   1.017   5.044   5.376
 2927SOL     OW20842   0.737   4.839   5.439
 2927SOL    HW120843   0.708   4.916   5.496
 2927SOL    HW220844   0.747   4.758   5.497
 2928SOL     OW20845   1.372   3.703   4.545
 2928SOL    HW120846   1.321   3.787   4.527
 2928SOL    HW220847   1.458   3.705   4.494
 2929SOL     OW20848   0.030   4.313   4.218
 2929SOL    HW120849   0.032   4.264   4.305
 2929SOL    HW220850   0.032   4.412   4.236
 2930SOL     OW20851   0.351   3.901   4.539
 2930SOL    HW120852   0.403   3.941   4.614
 2930SOL    HW220853   0.404   3.828   4.496
 2931SOL     OW20854   0.335   3.949   4.873
 2931SOL    HW120855   0.300   3.856   4.873
 2931SOL    HW220856   0.422   3.952   4.824
 2932SOL     OW20857   1.002   4.571   4.613
 2932SOL    HW120858   1.028   4.651   4.559
 2932SOL    HW220859   0.996   4.491   4.553
 2933SOL     OW20860   0.203   5.198   4.072
 2933SOL    HW120861   0.230   5.104   4.092
 2933SOL    HW220862   0.228   5.220   3.978
 2934SOL     OW20863   0.217   5.341   4.309
 2934SOL    HW120864   0.133   5.392   4.327
 2934SOL    HW220865   0.208   5.290   4.224
 2935SOL     OW20866   1.738   5.138   4.984
 2935SOL    HW120867   1.769   5.152   5.078
 2935SOL    HW220868   1.639   5.125   4.983
 2936SOL     OW20869   0.490   4.638   3.711
 2936SOL    HW120870   0.459   4.672   3.623
 2936SOL    HW220871   0.494   4.713   3.777
 2937SOL     OW20872   1.007   4.825   5.010
 2937SOL    HW120873   1.057   4.740   4.994
 2937SOL    HW220874   0.961   4.852   4.925
 2938SOL     OW20875   0.094   4.530   3.884
 2938SOL    HW120876   0.154   4.477   3.944
 2938SOL    HW220877   0.000   4.498   3.896
 2939SOL     OW20878   0.862   5.515   4.732
 2939SOL    HW120879   0.908   5.448   4.674
 2939SOL    HW220880   0.788   5.471   4.782
 2940SOL     OW20881   0.769   4.584   3.768
 2940SOL    HW120882   0.798   4.503   3.819
 2940SOL    HW220883   0.669   4.583   3.759
 2941SOL     OW20884   0.262   4.317   5.214
 2941SOL    HW120885   0.282   4.222   5.189
 2941SOL    HW220886   0.225   4.320   5.307
 2942SOL     OW20887   0.144   3.972   5.104
 2942SOL    HW120888   0.216   3.982   5.035
 2942SOL    HW220889   0.055   3.971   5.059
 2943SOL     OW20890   1.042   4.593   4.869
 2943SOL    HW120891   1.036   4.579   4.770
 2943SOL    HW220892   0.961   4.554   4.913
 2944SOL     OW20893   0.867   4.068   3.906
 2944SOL    HW120894   0.776   4.081   3.944
 2944SOL    HW220895   0.927   4.028   3.976
 2945SOL     OW20896   0.978   5.013   3.841
 2945SOL    HW120897   1.031   4.953   3.901
 2945SOL    HW220898   1.017   5.014   3.750
 2946SOL     OW20899   1.729   5.308   4.326
 2946SOL    HW120900   1.696   5.401   4.345
 2946SOL    HW220901   1.727   5.292   4.227
 2947SOL     OW20902   0.892   5.307   5.339
 2947SOL    HW120903   0.880   5.238   5.268
 2947SOL    HW220904   0.855   5.272   5.426
 2948SOL     OW20905   1.336   4.621   4.518
 2948SOL    HW120906   1.357   4.563   4.596
 2948SOL    HW220907   1.345   4.717   4.544
 2949SOL     OW20908   0.292   4.750   4.564
 2949SOL    HW120909   0.215   4.812   4.557
 2949SOL    HW220910   0.329   4.751   4.657
 2950SOL     OW20911   0.925   4.698   4.263
 2950SOL    HW120912   0.912   4.609   4.220
 2950SOL    HW220913   0.856   4.712   4.334
 2951SOL     OW20914   1.229   5.086   5.102
 2951SOL    HW120915   1.262   5.171   5.143
 2951SOL    HW220916   1.130   5.082   5.109
 2952SOL     OW20917   0.036   4.003   4.166
 2952SOL    HW120918   0.096   3.954   4.104
 2952SOL    HW220919   0.091   4.055   4.231
 2953SOL     OW20920   1.659   5.501   3.857
 2953SOL    HW120921   1.749   5.545   3.859
 2953SOL    HW220922   1.658   5.432   3.785
 2954SOL     OW20923   0.823   4.468   5.015
 2954SOL    HW120924   0.825   4.554   5.066
 2954SOL    HW220925   0.880   4.400   5.062
 2955SOL     OW20926   0.060   5.495   5.086
 2955SOL    HW120927   0.068   5.595   5.084
 2955SOL    HW220928   0.036   5.466   5.179
 2956SOL     OW20929   0.841   4.514   4.080
 2956SOL    HW120930   0.752   4.542   4.045
 2956SOL    HW220931   0.882   4.448   4.016
 2957SOL     OW20932   0.363   4.232   4.619
 2957SOL    HW120933   0.419   4.225   4.536
 2957SOL    HW220934   0.420   4.210   4.699
 2958SOL     OW20935   0.360   5.430   3.890
 2958SOL    HW120936   0.452   5.460   3.865
 2958SOL    HW220937   0.335   5.469   3.979
 2959SOL     OW20938   1.336   5.452   4.827
 2959SOL    HW120939   1.355   5.515   4.753
 2959SOL    HW220940   1.344   5.358   4.794
 2960SOL     OW20941   0.041   4.847   4.639
 2960SOL    HW120942  -0.049   4.863   4.600
 2960SOL    HW220943   0.039   4.763   4.694
 2961SOL     OW20944   0.792   3.752   4.089
 2961SOL    HW120945   0.753   3.741   3.998
 2961SOL    HW220946   0.748   3.828   4.136
 2962SOL     OW20947   0.037   4.888   4.183
 2962SOL    HW120948   0.115   4.946   4.207
 2962SOL    HW220949   0.056   4.839   4.098
 2963SOL     OW20950   1.567   4.016   5.267
 2963SOL    HW120951   1.506   4.094   5.264
 2963SOL    HW220952   1.622   4.020   5.350
 2964SOL     OW20953   1.283   3.962   4.558
 2964SOL    HW120954   1.282   4.040   4.495
 2964SOL    HW220955   1.326   3.989   4.644
 2965SOL     OW20956   1.403   3.768   3.854
 2965SOL    HW120957   1.483   3.708   3.851
 2965SOL    HW220958   1.329   3.721   3.902
 2966SOL     OW20959   1.616   3.740   5.288
 2966SOL    HW120960   1.642   3.697   5.202
 2966SOL    HW220961   1.566   3.824   5.270
 2967SOL     OW20962   0.718   3.999   4.420
 2967SOL    HW120963   0.707   3.941   4.501
 2967SOL    HW220964   0.803   4.051   4.428
 2968SOL     OW20965   1.298   4.350   4.812
 2968SOL    HW120966   1.352   4.390   4.738
 2968SOL    HW220967   1.336   4.379   4.900
 2969SOL     OW20968   1.591   3.756   4.128
 2969SOL    HW120969   1.598   3.710   4.040
 2969SOL    HW220970   1.495   3.766   4.153
 2970SOL     OW20971   0.567   5.071   5.491
 2970SOL    HW120972   0.528   5.134   5.424
 2970SOL    HW220973   0.650   5.111   5.531
 2971SOL     OW20974   0.443   4.803   5.323
 2971SOL    HW120975   0.462   4.827   5.228
 2971SOL    HW220976   0.436   4.886   5.378
 2972SOL     OW20977   0.104   5.093   4.797
 2972SOL    HW120978   0.073   5.019   4.738
 2972SOL    HW220979   0.036   5.111   4.868
 2973SOL     OW20980   1.190   4.294   4.530
 2973SOL    HW120981   1.272   4.271   4.478
 2973SOL    HW220982   1.185   4.235   4.611
 2974SOL     OW20983   1.790   4.321   5.366
 2974SOL    HW120984   1.779   4.407   5.315
 2974SOL    HW220985   1.884   4.312   5.396
 2975SOL     OW20986   1.361   4.094   4.785
 2975SOL    HW120987   1.335   4.191   4.791
 2975SOL    HW220988   1.361   4.054   4.877
 2976SOL     OW20989   1.591   4.226   5.536
 2976SOL    HW120990   1.671   4.251   5.480
 2976SOL    HW220991   1.622   4.191   5.624
 2977SOL     OW20992   1.755   4.562   5.231
 2977SOL    HW120993   1.657   4.583   5.233
 2977SOL    HW220994   1.804   4.638   5.190
 2978SOL     OW20995   0.756   5.197   5.130
 2978SOL    HW120996   0.693   5.275   5.137
 2978SOL    HW220997   0.724   5.135   5.058
 2979SOL     OW20998   0.147   3.992   5.395
 2979SOL    HW120999   0.165   3.981   5.297
 2979SOL    HW221000   0.049   3.988   5.412
 2980SOL     OW21001   0.027   5.406   5.339
 2980SOL    HW121002   0.099   5.392   5.407
 2980SOL    HW221003  -0.062   5.409   5.384
 2981SOL     OW21004   0.195   4.062   4.363
 2981SOL    HW121005   0.138   4.117   4.424
 2981SOL    HW221006   0.265   4.014   4.416
 2982SOL     OW21007   1.367   5.294   5.226
 2982SOL    HW121008   1.320   5.362   5.281
 2982SOL    HW221009   1.434   5.340   5.167
 2983SOL     OW21010   0.332   4.253   3.961
 2983SOL    HW121011   0.404   4.282   3.898
 2983SOL    HW221012   0.288   4.333   4.001
 2984SOL     OW21013   1.718   3.915   5.064
 2984SOL    HW121014   1.674   3.963   5.140
 2984SOL    HW221015   1.696   3.961   4.978
 2985SOL     OW21016   0.447   5.516   4.427
 2985SOL    HW121017   0.371   5.482   4.372
 2985SOL    HW221018   0.533   5.479   4.392
 2986SOL     OW21019   0.372   5.025   4.872
 2986SOL    HW121020   0.384   5.041   4.969
 2986SOL    HW221021   0.285   5.065   4.842
 2987SOL     OW21022   1.256   5.229   5.518
 2987SOL    HW121023   1.215   5.144   5.484
 2987SOL    HW221024   1.236   5.303   5.454
 2988SOL     OW21025   0.746   4.949   4.208
 2988SOL    HW121026   0.789   4.880   4.150
 2988SOL    HW221027   0.710   4.906   4.291
 2989SOL     OW21028   0.378   4.500   4.410
 2989SOL    HW121029   0.370   4.598   4.428
 2989SOL    HW221030   0.462   4.466   4.451
 2990SOL     OW21031   0.224   3.980   3.925
 2990SOL    HW121032   0.268   3.949   3.842
 2990SOL    HW221033   0.225   4.080   3.929
 2991SOL     OW21034   0.077   4.232   4.536
 2991SOL    HW121035   0.041   4.325   4.528
 2991SOL    HW221036   0.160   4.233   4.592
 2992SOL     OW21037   0.512   4.819   3.922
 2992SOL    HW121038   0.612   4.819   3.933
 2992SOL    HW221039   0.481   4.912   3.901
 2993SOL     OW21040   1.138   4.411   3.738
 2993SOL    HW121041   1.069   4.468   3.694
 2993SOL    HW221042   1.219   4.405   3.679
 2994SOL     OW21043   0.873   4.330   3.881
 2994SOL    HW121044   0.963   4.331   3.836
 2994SOL    HW221045   0.850   4.236   3.906
 2995SOL     OW21046   1.324   3.847   4.175
 2995SOL    HW121047   1.234   3.831   4.216
 2995SOL    HW221048   1.332   3.943   4.149
 2996SOL     OW21049   1.438   4.247   5.191
 2996SOL    HW121050   1.390   4.270   5.275
 2996SOL    HW221051   1.372   4.217   5.122
 2997SOL     OW21052   0.073   3.762   3.835
 2997SOL    HW121053   0.136   3.685   3.843
 2997SOL    HW221054   0.093   3.830   3.906
 2998SOL     OW21055   0.346   4.737   4.836
 2998SOL    HW121056   0.357   4.692   4.925
 2998SOL    HW221057   0.373   4.833   4.843
 2999SOL     OW21058   0.627   4.350   4.858
 2999SOL    HW121059   0.702   4.393   4.907
 2999SOL    HW221060   0.560   4.315   4.924
 3000SOL     OW21061   0.770   4.719   5.175
 3000SOL    HW121062   0.839   4.771   5.125
 3000SOL    HW221063   0.765   4.752   5.270
 3001SOL     OW21064   1.162   4.740   5.335
 3001SOL    HW121065   1.084   4.686   5.368
 3001SOL    HW221066   1.243   4.718   5.390
 3002SOL     OW21067   1.091   3.922   4.331
 3002SOL    HW121068   1.150   3.982   4.386
 3002SOL    HW221069   1.018   3.886   4.388
 3003SOL     OW21070   0.619   3.799   4.602
 3003SOL    HW121071   0.547   3.732   4.588
 3003SOL    HW221072   0.701   3.753   4.637
 3004SOL     OW21073   0.319   5.464   4.969
 3004SOL    HW121074   0.299   5.446   4.873
 3004SOL    HW221075   0.246   5.426   5.026
 3005SOL     OW21076   0.706   4.656   4.716
 3005SOL    HW121077   0.704   4.572   4.661
 3005SOL    HW221078   0.655   4.642   4.801
 3006SOL     OW21079   0.045   4.666   4.842
 3006SOL    HW121080   0.134   4.644   4.882
 3006SOL    HW221081  -0.010   4.582   4.838
 3007SOL     OW21082   0.273   3.711   4.122
 3007SOL    HW121083   0.311   3.799   4.149
 3007SOL    HW221084   0.196   3.687   4.182
 3008SOL     OW21085   0.689   4.328   5.450
 3008SOL    HW121086   0.641   4.379   5.379
 3008SOL    HW221087   0.782   4.307   5.420
 3009SOL     OW21088   0.095   4.798   3.942
 3009SOL    HW121089   0.085   4.701   3.921
 3009SOL    HW221090   0.148   4.843   3.870
 3010SOL     OW21091   1.792   3.910   4.543
 3010SOL    HW121092   1.747   3.892   4.630
 3010SOL    HW221093   1.890   3.927   4.559
 3011SOL     OW21094   0.840   4.886   4.795
 3011SOL    HW121095   0.791   4.801   4.776
 3011SOL    HW221096   0.910   4.901   4.726
 3012SOL     OW21097   1.178   4.309   4.004
 3012SOL    HW121098   1.230   4.381   4.050
 3012SOL    HW221099   1.191   4.316   3.906
 3013SOL     OW21100   1.539   5.124   5.331
 3013SOL    HW121101   1.524   5.026   5.345
 3013SOL    HW221102   1.456   5.166   5.295
 3014SOL     OW21103   0.296   4.566   5.071
 3014SOL    HW121104   0.260   4.476   5.097
 3014SOL    HW221105   0.257   4.636   5.131
 3015SOL     OW21106   0.798   5.192   3.729
 3015SOL    HW121107   0.773   5.269   3.788
 3015SOL    HW221108   0.862   5.132   3.777
 3016SOL     OW21109   0.616   5.399   4.763
 3016SOL    HW121110   0.636   5.369   4.670
 3016SOL    HW221111   0.541   5.344   4.800
 3017SOL     OW21112   0.759   4.810   4.480
 3017SOL    HW121113   0.848   4.856   4.480
 3017SOL    HW221114   0.752   4.750   4.559
 3018SOL     OW21115   0.127   4.504   4.549
 3018SOL    HW121116   0.222   4.495   4.517
 3018SOL    HW221117   0.093   4.596   4.528
 3019SOL     OW21118   0.064   4.621   5.476
 3019SOL    HW121119  -0.021   4.572   5.457
 3019SOL    HW221120   0.091   4.608   5.571
 3020SOL     OW21121   0.961   5.530   5.182
 3020SOL    HW121122   0.933   5.443   5.223
 3020SOL    HW221123   0.905   5.604   5.219
 3021SOL     OW21124   1.190   4.877   4.712
 3021SOL    HW121125   1.174   4.971   4.743
 3021SOL    HW221126   1.193   4.816   4.792
 3022SOL     OW21127   0.464   4.148   5.476
 3022SOL    HW121128   0.500   4.095   5.399
 3022SOL    HW221129   0.525   4.225   5.494
 3023SOL     OW21130   0.528   4.565   4.048
 3023SOL    HW121131   0.478   4.630   3.992
 3023SOL    HW221132   0.470   4.486   4.067
 3024SOL     OW21133   1.609   4.596   4.746
 3024SOL    HW121134   1.628   4.635   4.655
 3024SOL    HW221135   1.563   4.665   4.802
 3025SOL     OW21136   1.301   4.039   5.042
 3025SOL    HW121137   1.372   4.011   5.106
 3025SOL    HW221138   1.248   3.959   5.014
 3026SOL     OW21139   0.002   3.738   4.243
 3026SOL    HW121140  -0.085   3.725   4.196
 3026SOL    HW221141   0.010   3.833   4.273
 3027SOL     OW21142   1.223   3.839   5.484
 3027SOL    HW121143   1.282   3.855   5.564
 3027SOL    HW221144   1.170   3.922   5.465
 3028SOL     OW21145   0.439   5.258   5.309
 3028SOL    HW121146   0.381   5.323   5.358
 3028SOL    HW221147   0.501   5.308   5.249
 3029SOL     OW21148   1.795   5.145   5.250
 3029SOL    HW121149   1.823   5.238   5.272
 3029SOL    HW221150   1.702   5.129   5.283
 3030SOL     OW21151   1.045   4.258   4.800
 3030SOL    HW121152   1.131   4.309   4.799
 3030SOL    HW221153   1.051   4.184   4.867
 3031SOL     OW21154   0.449   5.204   4.372
 3031SOL    HW121155   0.447   5.105   4.385
 3031SOL    HW221156   0.358   5.237   4.349
 3032SOL     OW21157   1.090   5.321   4.960
 3032SOL    HW121158   1.016   5.385   4.978
 3032SOL    HW221159   1.169   5.370   4.922
 3033SOL     OW21160   0.299   5.451   5.459
 3033SOL    HW121161   0.342   5.535   5.425
 3033SOL    HW221162   0.324   5.438   5.555
 3034SOL     OW21163   0.159   4.987   5.330
 3034SOL    HW121164   0.138   4.892   5.303
 3034SOL    HW221165   0.090   5.048   5.292
 3035SOL     OW21166   0.248   5.352   4.734
 3035SOL    HW121167   0.190   5.272   4.748
 3035SOL    HW221168   0.272   5.359   4.637
 3036SOL     OW21169   0.994   3.873   4.589
 3036SOL    HW121170   1.090   3.874   4.617
 3036SOL    HW221171   0.939   3.830   4.661
 3037SOL     OW21172   1.647   4.146   4.469
 3037SOL    HW121173   1.666   4.232   4.516
 3037SOL    HW221174   1.715   4.077   4.497
 3038SOL     OW21175   0.790   4.818   3.955
 3038SOL    HW121176   0.862   4.877   3.920
 3038SOL    HW221177   0.830   4.734   3.991
 3039SOL     OW21178   0.861   3.794   3.807
 3039SOL    HW121179   0.936   3.728   3.819
 3039SOL    HW221180   0.892   3.885   3.835
 3040SOL     OW21181   0.540   4.223   4.419
 3040SOL    HW121182   0.578   4.134   4.445
 3040SOL    HW221183   0.607   4.273   4.364
 3041SOL     OW21184   0.528   4.781   5.073
 3041SOL    HW121185   0.624   4.761   5.093
 3041SOL    HW221186   0.517   4.879   5.055
 3042SOL     OW21187   1.750   4.824   5.042
 3042SOL    HW121188   1.764   4.922   5.056
 3042SOL    HW221189   1.807   4.793   4.966
 3043SOL     OW21190   0.233   4.933   3.734
 3043SOL    HW121191   0.225   4.945   3.635
 3043SOL    HW221192   0.292   5.004   3.772
 3044SOL     OW21193   0.660   5.372   3.894
 3044SOL    HW121194   0.635   5.467   3.878
 3044SOL    HW221195   0.627   5.344   3.984
 3045SOL     OW21196   1.310   4.795   5.118
 3045SOL    HW121197   1.254   4.754   5.189
 3045SOL    HW221198   1.290   4.893   5.112
 3046SOL     OW21199   0.577   5.411   5.118
 3046SOL    HW121200   0.626   5.491   5.082
 3046SOL    HW221201   0.485   5.409   5.079
 3047SOL     OW21202   0.220   4.292   5.480
 3047SOL    HW121203   0.237   4.193   5.485
 3047SOL    HW221204   0.284   4.340   5.541
 3048SOL     OW21205   1.659   5.253   4.719
 3048SOL    HW121206   1.631   5.346   4.743
 3048SOL    HW221207   1.709   5.212   4.795
 3049SOL     OW21208   0.055   4.626   4.280
 3049SOL    HW121209   0.062   4.725   4.267
 3049SOL    HW221210  -0.036   4.603   4.314
 3050SOL     OW21211   0.564   4.424   5.218
 3050SOL    HW121212   0.470   4.394   5.199
 3050SOL    HW221213   0.573   4.521   5.195
 3051SOL     OW21214   1.631   4.800   4.530
 3051SOL    HW121215   1.593   4.889   4.503
 3051SOL    HW221216   1.631   4.738   4.452
 3052SOL     OW21217   0.789   4.206   4.699
 3052SOL    HW121218   0.881   4.234   4.726
 3052SOL    HW221219   0.721   4.257   4.753
 3053SOL     OW21220   0.642   5.057   4.926
 3053SOL    HW121221   0.555   5.056   4.877
 3053SOL    HW221222   0.708   4.997   4.879
 3054SOL     OW21223   0.208   4.399   4.840
 3054SOL    HW121224   0.246   4.458   4.911
 3054SOL    HW221225   0.191   4.452   4.758
 3055SOL     OW21226   0.379   5.045   5.138
 3055SOL    HW121227   0.398   5.133   5.182
 3055SOL    HW221228   0.284   5.019   5.156
 3056SOL     OW21229   1.622   5.361   5.486
 3056SOL    HW121230   1.591   5.283   5.431
 3056SOL    HW221231   1.591   5.446   5.444
 3057SOL     OW21232   0.683   4.065   4.155
 3057SOL    HW121233   0.585   4.059   4.135
 3057SOL    HW221234   0.702   4.022   4.243
 3058SOL     OW21235   1.603   3.748   4.414
 3058SOL    HW121236   1.598   3.789   4.323
 3058SOL    HW221237   1.684   3.782   4.461
 3059SOL     OW21238   1.206   4.504   5.107
 3059SOL    HW121239   1.305   4.513   5.097
 3059SOL    HW221240   1.162   4.506   5.017
 3060SOL     OW21241   0.700   4.464   4.509
 3060SOL    HW121242   0.722   4.386   4.567
 3060SOL    HW221243   0.709   4.438   4.413
 3061SOL     OW21244   1.368   4.156   4.396
 3061SOL    HW121245   1.367   4.148   4.297
 3061SOL    HW221246   1.457   4.128   4.431
 3062SOL     OW21247   1.095   5.172   6.228
 3062SOL    HW121248   1.186   5.206   6.251
 3062SOL    HW221249   1.067   5.210   6.140
 3063SOL     OW21250   1.606   4.968   6.086
 3063SOL    HW121251   1.617   5.052   6.140
 3063SOL    HW221252   1.696   4.931   6.063
 3064SOL     OW21253   1.686   4.250   6.950
 3064SOL    HW121254   1.588   4.242   6.972
 3064SOL    HW221255   1.739   4.239   7.034
 3065SOL     OW21256   0.353   3.887   5.555
 3065SOL    HW121257   0.266   3.884   5.506
 3065SOL    HW221258   0.404   3.969   5.527
 3066SOL     OW21259   1.340   5.276   6.330
 3066SOL    HW121260   1.329   5.373   6.353
 3066SOL    HW221261   1.433   5.259   6.300
 3067SOL     OW21262   1.218   3.787   6.888
 3067SOL    HW121263   1.142   3.742   6.935
 3067SOL    HW221264   1.247   3.732   6.810
 3068SOL     OW21265   0.956   4.567   7.265
 3068SOL    HW121266   0.921   4.542   7.175
 3068SOL    HW221267   0.880   4.588   7.326
 3069SOL     OW21268   0.563   5.241   5.959
 3069SOL    HW121269   0.519   5.250   6.048
 3069SOL    HW221270   0.634   5.171   5.963
 3070SOL     OW21271   0.581   3.774   5.681
 3070SOL    HW121272   0.669   3.802   5.642
 3070SOL    HW221273   0.509   3.837   5.651
 3071SOL     OW21274   1.551   4.759   7.064
 3071SOL    HW121275   1.459   4.764   7.026
 3071SOL    HW221276   1.616   4.797   6.998
 3072SOL     OW21277   1.451   4.766   6.745
 3072SOL    HW121278   1.376   4.755   6.810
 3072SOL    HW221279   1.488   4.859   6.751
 3073SOL     OW21280   0.947   5.021   7.045
 3073SOL    HW121281   0.890   5.084   6.991
 3073SOL    HW221282   0.980   4.947   6.986
 3074SOL     OW21283   0.490   4.914   6.254
 3074SOL    HW121284   0.423   4.868   6.313
 3074SOL    HW221285   0.582   4.882   6.277
 3075SOL     OW21286   0.717   4.320   6.085
 3075SOL    HW121287   0.756   4.390   6.026
 3075SOL    HW221288   0.691   4.240   6.031
 3076SOL     OW21289   1.337   4.228   7.294
 3076SOL    HW121290   1.433   4.232   7.320
 3076SOL    HW221291   1.293   4.152   7.341
 3077SOL     OW21292   0.420   5.083   5.738
 3077SOL    HW121293   0.484   5.099   5.663
 3077SOL    HW221294   0.444   5.141   5.816
 3078SOL     OW21295   0.571   4.039   6.548
 3078SOL    HW121296   0.647   4.104   6.544
 3078SOL    HW221297   0.601   3.950   6.515
 3079SOL     OW21298   0.268   4.465   5.966
 3079SOL    HW121299   0.283   4.399   6.040
 3079SOL    HW221300   0.218   4.544   6.001
 3080SOL     OW21301   0.854   5.410   6.143
 3080SOL    HW121302   0.919   5.343   6.107
 3080SOL    HW221303   0.844   5.486   6.079
 3081SOL     OW21304   1.746   5.292   5.885
 3081SOL    HW121305   1.842   5.266   5.878
 3081SOL    HW221306   1.722   5.352   5.809
 3082SOL     OW21307   1.658   3.985   6.656
 3082SOL    HW121308   1.709   4.057   6.609
 3082SOL    HW221309   1.563   4.012   6.665
 3083SOL     OW21310   1.058   4.014   5.925
 3083SOL    HW121311   1.083   4.108   5.946
 3083SOL    HW221312   1.059   3.960   6.009
 3084SOL     OW21313   0.182   4.727   7.110
 3084SOL    HW121314   0.278   4.742   7.128
 3084SOL    HW221315   0.144   4.665   7.179
 3085SOL     OW21316   0.508   4.372   5.653
 3085SOL    HW121317   0.468   4.451   5.606
 3085SOL    HW221318   0.597   4.351   5.613
 3086SOL     OW21319   0.681   5.296   6.351
 3086SOL    HW121320   0.754   5.319   6.287
 3086SOL    HW221321   0.610   5.243   6.305
 3087SOL     OW21322   1.023   4.328   7.105
 3087SOL    HW121323   1.056   4.245   7.152
 3087SOL    HW221324   1.096   4.396   7.104
 3088SOL     OW21325   1.627   5.128   6.327
 3088SOL    HW121326   1.623   5.163   6.420
 3088SOL    HW221327   1.686   5.187   6.271
 3089SOL     OW21328   0.358   4.949   6.003
 3089SOL    HW121329   0.404   4.923   6.088
 3089SOL    HW221330   0.378   4.881   5.932
 3090SOL     OW21331   1.216   4.004   5.714
 3090SOL    HW121332   1.310   3.974   5.732
 3090SOL    HW221333   1.164   4.004   5.800
 3091SOL     OW21334   0.368   4.209   6.809
 3091SOL    HW121335   0.358   4.122   6.761
 3091SOL    HW221336   0.304   4.276   6.772
 3092SOL     OW21337   1.450   4.489   6.847
 3092SOL    HW121338   1.454   4.583   6.812
 3092SOL    HW221339   1.543   4.458   6.869
 3093SOL     OW21340   0.403   3.981   5.968
 3093SOL    HW121341   0.357   4.021   6.047
 3093SOL    HW221342   0.351   4.000   5.886
 3094SOL     OW21343   1.531   5.508   6.880
 3094SOL    HW121344   1.474   5.459   6.814
 3094SOL    HW221345   1.617   5.535   6.837
 3095SOL     OW21346   1.826   4.226   6.735
 3095SOL    HW121347   1.883   4.308   6.737
 3095SOL    HW221348   1.767   4.225   6.815
 3096SOL     OW21349   1.843   5.452   6.648
 3096SOL    HW121350   1.889   5.462   6.736
 3096SOL    HW221351   1.910   5.455   6.575
 3097SOL     OW21352   0.956   4.192   6.210
 3097SOL    HW121353   1.032   4.220   6.269
 3097SOL    HW221354   0.912   4.272   6.171
 3098SOL     OW21355   1.191   4.656   5.727
 3098SOL    HW121356   1.228   4.606   5.805
 3098SOL    HW221357   1.121   4.601   5.682
 3099SOL     OW21358   1.033   4.078   7.348
 3099SOL    HW121359   1.096   4.083   7.425
 3099SOL    HW221360   0.941   4.056   7.381
 3100SOL     OW21361   1.774   4.325   5.806
 3100SOL    HW121362   1.795   4.244   5.752
 3100SOL    HW221363   1.791   4.306   5.903
 3101SOL     OW21364   1.068   5.463   5.714
 3101SOL    HW121365   1.102   5.376   5.679
 3101SOL    HW221366   1.036   5.451   5.808
 3102SOL     OW21367   0.749   3.730   7.246
 3102SOL    HW121368   0.756   3.636   7.213
 3102SOL    HW221369   0.806   3.740   7.328
 3103SOL     OW21370   1.672   4.331   6.514
 3103SOL    HW121371   1.657   4.422   6.551
 3103SOL    HW221372   1.742   4.284   6.568
 3104SOL     OW21373   1.082   4.997   7.280
 3104SOL    HW121374   1.104   4.907   7.242
 3104SOL    HW221375   1.017   5.044   7.221
 3105SOL     OW21376   0.737   4.839   7.284
 3105SOL    HW121377   0.708   4.916   7.341
 3105SOL    HW221378   0.747   4.758   7.342
 3106SOL     OW21379   1.372   3.703   6.390
 3106SOL    HW121380   1.321   3.787   6.372
 3106SOL    HW221381   1.458   3.705   6.339
 3107SOL     OW21382   1.727   3.909   7.319
 3107SOL    HW121383   1.704   3.930   7.414
 3107SOL    HW221384   1.703   3.814   7.299
 3108SOL     OW21385   0.030   4.313   6.063
 3108SOL    HW121386   0.032   4.264   6.150
 3108SOL    HW221387   0.032   4.412   6.081
 3109SOL     OW21388   0.351   3.901   6.384
 3109SOL    HW121389   0.403   3.941   6.459
 3109SOL    HW221390   0.404   3.828   6.341
 3110SOL     OW21391   0.335   3.949   6.718
 3110SOL    HW121392   0.300   3.856   6.718
 3110SOL    HW221393   0.422   3.952   6.669
 3111SOL     OW21394   1.002   4.571   6.458
 3111SOL    HW121395   1.028   4.651   6.404
 3111SOL    HW221396   0.996   4.491   6.398
 3112SOL     OW21397   0.203   5.198   5.917
 3112SOL    HW121398   0.230   5.104   5.937
 3112SOL    HW221399   0.228   5.220   5.823
 3113SOL     OW21400   1.485   5.067   6.791
 3113SOL    HW121401   1.456   5.104   6.702
 3113SOL    HW221402   1.407   5.067   6.853
 3114SOL     OW21403   0.217   5.341   6.154
 3114SOL    HW121404   0.133   5.392   6.172
 3114SOL    HW221405   0.208   5.290   6.069
 3115SOL     OW21406   1.738   5.138   6.829
 3115SOL    HW121407   1.769   5.152   6.923
 3115SOL    HW221408   1.639   5.125   6.828
 3116SOL     OW21409   0.490   4.638   5.556
 3116SOL    HW121410   0.459   4.672   5.468
 3116SOL    HW221411   0.494   4.713   5.622
 3117SOL     OW21412   1.007   4.825   6.855
 3117SOL    HW121413   1.057   4.740   6.839
 3117SOL    HW221414   0.961   4.852   6.770
 3118SOL     OW21415   0.094   4.530   5.729
 3118SOL    HW121416   0.154   4.477   5.789
 3118SOL    HW221417   0.000   4.498   5.741
 3119SOL     OW21418   1.614   4.528   5.929
 3119SOL    HW121419   1.682   4.462   5.896
 3119SOL    HW221420   1.629   4.616   5.885
 3120SOL     OW21421   0.862   5.515   6.577
 3120SOL    HW121422   0.908   5.448   6.519
 3120SOL    HW221423   0.788   5.471   6.627
 3121SOL     OW21424   0.769   4.584   5.613
 3121SOL    HW121425   0.798   4.503   5.664
 3121SOL    HW221426   0.669   4.583   5.604
 3122SOL     OW21427   1.365   4.116   5.959
 3122SOL    HW121428   1.302   4.174   5.907
 3122SOL    HW221429   1.458   4.150   5.947
 3123SOL     OW21430   0.262   4.317   7.059
 3123SOL    HW121431   0.282   4.222   7.034
 3123SOL    HW221432   0.225   4.320   7.152
 3124SOL     OW21433   0.144   3.972   6.949
 3124SOL    HW121434   0.216   3.982   6.880
 3124SOL    HW221435   0.055   3.971   6.904
 3125SOL     OW21436   1.042   4.593   6.714
 3125SOL    HW121437   1.036   4.579   6.615
 3125SOL    HW221438   0.961   4.554   6.758
 3126SOL     OW21439   1.633   4.127   6.029
 3126SOL    HW121440   1.729   4.098   6.026
 3126SOL    HW221441   1.594   4.105   6.118
 3127SOL     OW21442   0.917   5.202   6.466
 3127SOL    HW121443   0.975   5.213   6.385
 3127SOL    HW221444   0.823   5.226   6.444
 3128SOL     OW21445   0.867   4.068   5.751
 3128SOL    HW121446   0.776   4.081   5.789
 3128SOL    HW221447   0.927   4.028   5.821
 3129SOL     OW21448   0.978   5.013   5.686
 3129SOL    HW121449   1.031   4.953   5.746
 3129SOL    HW221450   1.017   5.014   5.595
 3130SOL     OW21451   1.729   5.308   6.171
 3130SOL    HW121452   1.696   5.401   6.190
 3130SOL    HW221453   1.727   5.292   6.072
 3131SOL     OW21454   1.144   4.581   6.160
 3131SOL    HW121455   1.209   4.609   6.231
 3131SOL    HW221456   1.065   4.642   6.162
 3132SOL     OW21457   0.892   5.307   7.184
 3132SOL    HW121458   0.880   5.238   7.113
 3132SOL    HW221459   0.855   5.272   7.271
 3133SOL     OW21460   1.336   4.621   6.363
 3133SOL    HW121461   1.357   4.563   6.441
 3133SOL    HW221462   1.345   4.717   6.389
 3134SOL     OW21463   0.292   4.750   6.409
 3134SOL    HW121464   0.215   4.812   6.402
 3134SOL    HW221465   0.329   4.751   6.502
 3135SOL     OW21466   0.925   4.698   6.108
 3135SOL    HW121467   0.912   4.609   6.065
 3135SOL    HW221468   0.856   4.712   6.179
 3136SOL     OW21469   1.229   5.086   6.947
 3136SOL    HW121470   1.262   5.171   6.988
 3136SOL    HW221471   1.130   5.082   6.954
 3137SOL     OW21472   0.036   4.003   6.011
 3137SOL    HW121473   0.096   3.954   5.949
 3137SOL    HW221474   0.091   4.055   6.076
 3138SOL     OW21475   1.659   5.501   5.702
 3138SOL    HW121476   1.749   5.545   5.704
 3138SOL    HW221477   1.658   5.432   5.630
 3139SOL     OW21478   0.823   4.468   6.860
 3139SOL    HW121479   0.825   4.554   6.911
 3139SOL    HW221480   0.880   4.400   6.907
 3140SOL     OW21481   0.060   5.495   6.931
 3140SOL    HW121482   0.068   5.595   6.929
 3140SOL    HW221483   0.036   5.466   7.024
 3141SOL     OW21484   0.841   4.514   5.925
 3141SOL    HW121485   0.752   4.542   5.890
 3141SOL    HW221486   0.882   4.448   5.861
 3142SOL     OW21487   0.363   4.232   6.464
 3142SOL    HW121488   0.419   4.225   6.381
 3142SOL    HW221489   0.420   4.210   6.544
 3143SOL     OW21490   0.360   5.430   5.735
 3143SOL    HW121491   0.452   5.460   5.710
 3143SOL    HW221492   0.335   5.469   5.824
 3144SOL     OW21493   1.336   5.452   6.672
 3144SOL    HW121494   1.355   5.515   6.598
 3144SOL    HW221495   1.344   5.358   6.639
 3145SOL     OW21496   0.041   4.847   6.484
 3145SOL    HW121497  -0.049   4.863   6.445
 3145SOL    HW221498   0.039   4.763   6.539
 3146SOL     OW21499   0.792   3.752   5.934
 3146SOL    HW121500   0.753   3.741   5.843
 3146SOL    HW221501   0.748   3.828   5.981
 3147SOL     OW21502   0.037   4.888   6.028
 3147SOL    HW121503   0.115   4.946   6.052
 3147SOL    HW221504   0.056   4.839   5.943
 3148SOL     OW21505   1.567   4.016   7.112
 3148SOL    HW121506   1.506   4.094   7.109
 3148SOL    HW221507   1.622   4.020   7.195
 3149SOL     OW21508   1.283   3.962   6.403
 3149SOL    HW121509   1.282   4.040   6.340
 3149SOL    HW221510   1.326   3.989   6.489
 3150SOL     OW21511   1.403   3.768   5.699
 3150SOL    HW121512   1.483   3.708   5.696
 3150SOL    HW221513   1.329   3.721   5.747
 3151SOL     OW21514   1.616   3.740   7.133
 3151SOL    HW121515   1.642   3.697   7.047
 3151SOL    HW221516   1.566   3.824   7.115
 3152SOL     OW21517   0.718   3.999   6.265
 3152SOL    HW121518   0.707   3.941   6.346
 3152SOL    HW221519   0.803   4.051   6.273
 3153SOL     OW21520   1.298   4.350   6.657
 3153SOL    HW121521   1.352   4.390   6.583
 3153SOL    HW221522   1.336   4.379   6.745
 3154SOL     OW21523   0.567   5.071   7.336
 3154SOL    HW121524   0.528   5.134   7.269
 3154SOL    HW221525   0.650   5.111   7.376
 3155SOL     OW21526   0.443   4.803   7.168
 3155SOL    HW121527   0.462   4.827   7.073
 3155SOL    HW221528   0.436   4.886   7.223
 3156SOL     OW21529   0.104   5.093   6.642
 3156SOL    HW121530   0.073   5.019   6.583
 3156SOL    HW221531   0.036   5.111   6.713
 3157SOL     OW21532   1.190   4.294   6.375
 3157SOL    HW121533   1.272   4.271   6.323
 3157SOL    HW221534   1.185   4.235   6.456
 3158SOL     OW21535   1.790   4.321   7.211
 3158SOL    HW121536   1.779   4.407   7.160
 3158SOL    HW221537   1.884   4.312   7.241
 3159SOL     OW21538   1.361   4.094   6.630
 3159SOL    HW121539   1.335   4.191   6.636
 3159SOL    HW221540   1.361   4.054   6.722
 3160SOL     OW21541   1.591   4.226   7.381
 3160SOL    HW121542   1.671   4.251   7.325
 3160SOL    HW221543   1.622   4.191   7.469
 3161SOL     OW21544   1.302   4.529   5.961
 3161SOL    HW121545   1.248   4.527   6.045
 3161SOL    HW221546   1.379   4.592   5.972
 3162SOL     OW21547   1.599   4.625   6.181
 3162SOL    HW121548   1.613   4.588   6.088
 3162SOL    HW221549   1.510   4.595   6.215
 3163SOL     OW21550   1.755   4.562   7.076
 3163SOL    HW121551   1.657   4.583   7.078
 3163SOL    HW221552   1.804   4.638   7.035
 3164SOL     OW21553   0.756   5.197   6.975
 3164SOL    HW121554   0.693   5.275   6.982
 3164SOL    HW221555   0.724   5.135   6.903
 3165SOL     OW21556   0.147   3.992   7.240
 3165SOL    HW121557   0.165   3.981   7.142
 3165SOL    HW221558   0.049   3.988   7.257
 3166SOL     OW21559   0.027   5.406   7.184
 3166SOL    HW121560   0.099   5.392   7.252
 3166SOL    HW221561  -0.062   5.409   7.229
 3167SOL     OW21562   0.195   4.062   6.208
 3167SOL    HW121563   0.138   4.117   6.269
 3167SOL    HW221564   0.265   4.014   6.261
 3168SOL     OW21565   1.367   5.294   7.071
 3168SOL    HW121566   1.320   5.362   7.126
 3168SOL    HW221567   1.434   5.340   7.012
 3169SOL     OW21568   0.332   4.253   5.806
 3169SOL    HW121569   0.404   4.282   5.743
 3169SOL    HW221570   0.288   4.333   5.846
 3170SOL     OW21571   1.718   3.915   6.909
 3170SOL    HW121572   1.674   3.963   6.985
 3170SOL    HW221573   1.696   3.961   6.823
 3171SOL     OW21574   0.447   5.516   6.272
 3171SOL    HW121575   0.371   5.482   6.217
 3171SOL    HW221576   0.533   5.479   6.237
 3172SOL     OW21577   0.372   5.025   6.717
 3172SOL    HW121578   0.384   5.041   6.814
 3172SOL    HW221579   0.285   5.065   6.687
 3173SOL     OW21580   1.256   5.229   7.363
 3173SOL    HW121581   1.215   5.144   7.329
 3173SOL    HW221582   1.236   5.303   7.299
 3174SOL     OW21583   0.746   4.949   6.053
 3174SOL    HW121584   0.789   4.880   5.995
 3174SOL    HW221585   0.710   4.906   6.136
 3175SOL     OW21586   0.378   4.500   6.255
 3175SOL    HW121587   0.370   4.598   6.273
 3175SOL    HW221588   0.462   4.466   6.296
 3176SOL     OW21589   0.224   3.980   5.770
 3176SOL    HW121590   0.268   3.949   5.687
 3176SOL    HW221591   0.225   4.080   5.774
 3177SOL     OW21592   0.077   4.232   6.381
 3177SOL    HW121593   0.041   4.325   6.373
 3177SOL    HW221594   0.160   4.233   6.437
 3178SOL     OW21595   0.512   4.819   5.767
 3178SOL    HW121596   0.612   4.819   5.778
 3178SOL    HW221597   0.481   4.912   5.746
 3179SOL     OW21598   1.138   4.411   5.583
 3179SOL    HW121599   1.069   4.468   5.539
 3179SOL    HW221600   1.219   4.405   5.524
 3180SOL     OW21601   0.873   4.330   5.726
 3180SOL    HW121602   0.963   4.331   5.681
 3180SOL    HW221603   0.850   4.236   5.751
 3181SOL     OW21604   1.324   3.847   6.020
 3181SOL    HW121605   1.234   3.831   6.061
 3181SOL    HW221606   1.332   3.943   5.994
 3182SOL     OW21607   1.438   4.247   7.036
 3182SOL    HW121608   1.390   4.270   7.120
 3182SOL    HW221609   1.372   4.217   6.967
 3183SOL     OW21610   0.073   3.762   5.680
 3183SOL    HW121611   0.136   3.685   5.688
 3183SOL    HW221612   0.093   3.830   5.751
 3184SOL     OW21613   0.346   4.737   6.681
 3184SOL    HW121614   0.357   4.692   6.770
 3184SOL    HW221615   0.373   4.833   6.688
 3185SOL     OW21616   1.645   4.749   5.781
 3185SOL    HW121617   1.716   4.819   5.783
 3185SOL    HW221618   1.632   4.719   5.686
 3186SOL     OW21619   0.627   4.350   6.703
 3186SOL    HW121620   0.702   4.393   6.752
 3186SOL    HW221621   0.560   4.315   6.769
 3187SOL     OW21622   0.770   4.719   7.020
 3187SOL    HW121623   0.839   4.771   6.970
 3187SOL    HW221624   0.765   4.752   7.115
 3188SOL     OW21625   1.162   4.740   7.180
 3188SOL    HW121626   1.084   4.686   7.213
 3188SOL    HW221627   1.243   4.718   7.235
 3189SOL     OW21628   1.091   3.922   6.176
 3189SOL    HW121629   1.150   3.982   6.231
 3189SOL    HW221630   1.018   3.886   6.233
 3190SOL     OW21631   1.201   5.454   7.216
 3190SOL    HW121632   1.106   5.452   7.184
 3190SOL    HW221633   1.222   5.545   7.253
 3191SOL     OW21634   0.619   3.799   6.447
 3191SOL    HW121635   0.547   3.732   6.433
 3191SOL    HW221636   0.701   3.753   6.482
 3192SOL     OW21637   0.319   5.464   6.814
 3192SOL    HW121638   0.299   5.446   6.718
 3192SOL    HW221639   0.246   5.426   6.871
 3193SOL     OW21640   1.012   4.928   6.359
 3193SOL    HW121641   1.051   4.971   6.278
 3193SOL    HW221642   1.085   4.911   6.426
 3194SOL     OW21643   0.706   4.656   6.561
 3194SOL    HW121644   0.704   4.572   6.506
 3194SOL    HW221645   0.655   4.642   6.646
 3195SOL     OW21646   0.045   4.666   6.687
 3195SOL    HW121647   0.134   4.644   6.727
 3195SOL    HW221648  -0.010   4.582   6.683
 3196SOL     OW21649   0.273   3.711   5.967
 3196SOL    HW121650   0.311   3.799   5.994
 3196SOL    HW221651   0.196   3.687   6.027
 3197SOL     OW21652   0.689   4.328   7.295
 3197SOL    HW121653   0.641   4.379   7.224
 3197SOL    HW221654   0.782   4.307   7.265
 3198SOL     OW21655   0.095   4.798   5.787
 3198SOL    HW121656   0.085   4.701   5.766
 3198SOL    HW221657   0.148   4.843   5.715
 3199SOL     OW21658   1.792   3.910   6.388
 3199SOL    HW121659   1.747   3.892   6.475
 3199SOL    HW221660   1.890   3.927   6.404
 3200SOL     OW21661   0.840   4.886   6.640
 3200SOL    HW121662   0.791   4.801   6.621
 3200SOL    HW221663   0.910   4.901   6.571
 3201SOL     OW21664   1.178   4.309   5.849
 3201SOL    HW121665   1.230   4.381   5.895
 3201SOL    HW221666   1.191   4.316   5.751
 3202SOL     OW21667   1.539   5.124   7.176
 3202SOL    HW121668   1.524   5.026   7.190
 3202SOL    HW221669   1.456   5.166   7.140
 3203SOL     OW21670   0.296   4.566   6.916
 3203SOL    HW121671   0.260   4.476   6.942
 3203SOL    HW221672   0.257   4.636   6.976
 3204SOL     OW21673   0.798   5.192   5.574
 3204SOL    HW121674   0.773   5.269   5.633
 3204SOL    HW221675   0.862   5.132   5.622
 3205SOL     OW21676   0.616   5.399   6.608
 3205SOL    HW121677   0.636   5.369   6.515
 3205SOL    HW221678   0.541   5.344   6.645
 3206SOL     OW21679   0.759   4.810   6.325
 3206SOL    HW121680   0.848   4.856   6.325
 3206SOL    HW221681   0.752   4.750   6.404
 3207SOL     OW21682   0.937   5.157   5.994
 3207SOL    HW121683   0.987   5.145   5.909
 3207SOL    HW221684   0.883   5.074   6.013
 3208SOL     OW21685   0.127   4.504   6.394
 3208SOL    HW121686   0.222   4.495   6.362
 3208SOL    HW221687   0.093   4.596   6.373
 3209SOL     OW21688   0.064   4.621   7.321
 3209SOL    HW121689  -0.021   4.572   7.302
 3209SOL    HW221690   0.091   4.608   7.416
 3210SOL     OW21691   0.961   5.530   7.027
 3210SOL    HW121692   0.933   5.443   7.068
 3210SOL    HW221693   0.905   5.604   7.064
 3211SOL     OW21694   1.190   4.877   6.557
 3211SOL    HW121695   1.174   4.971   6.588
 3211SOL    HW221696   1.193   4.816   6.637
 3212SOL     OW21697   0.464   4.148   7.321
 3212SOL    HW121698   0.500   4.095   7.244
 3212SOL    HW221699   0.525   4.225   7.339
 3213SOL     OW21700   0.528   4.565   5.893
 3213SOL    HW121701   0.478   4.630   5.837
 3213SOL    HW221702   0.470   4.486   5.912
 3214SOL     OW21703   1.609   4.596   6.591
 3214SOL    HW121704   1.628   4.635   6.500
 3214SOL    HW221705   1.563   4.665   6.647
 3215SOL     OW21706   1.301   4.039   6.887
 3215SOL    HW121707   1.372   4.011   6.951
 3215SOL    HW221708   1.248   3.959   6.859
 3216SOL     OW21709   0.002   3.738   6.088
 3216SOL    HW121710  -0.085   3.725   6.041
 3216SOL    HW221711   0.010   3.833   6.118
 3217SOL     OW21712   1.223   3.839   7.329
 3217SOL    HW121713   1.282   3.855   7.409
 3217SOL    HW221714   1.170   3.922   7.310
 3218SOL     OW21715   0.439   5.258   7.154
 3218SOL    HW121716   0.381   5.323   7.203
 3218SOL    HW221717   0.501   5.308   7.094
 3219SOL     OW21718   1.795   5.145   7.095
 3219SOL    HW121719   1.823   5.238   7.117
 3219SOL    HW221720   1.702   5.129   7.128
 3220SOL     OW21721   1.045   4.258   6.645
 3220SOL    HW121722   1.131   4.309   6.644
 3220SOL    HW221723   1.051   4.184   6.712
 3221SOL     OW21724   0.449   5.204   6.217
 3221SOL    HW121725   0.447   5.105   6.230
 3221SOL    HW221726   0.358   5.237   6.194
 3222SOL     OW21727   1.090   5.321   6.805
 3222SOL    HW121728   1.016   5.385   6.823
 3222SOL    HW221729   1.169   5.370   6.767
 3223SOL     OW21730   0.299   5.451   7.304
 3223SOL    HW121731   0.342   5.535   7.270
 3223SOL    HW221732   0.324   5.438   7.400
 3224SOL     OW21733   0.159   4.987   7.175
 3224SOL    HW121734   0.138   4.892   7.148
 3224SOL    HW221735   0.090   5.048   7.137
 3225SOL     OW21736   0.248   5.352   6.579
 3225SOL    HW121737   0.190   5.272   6.593
 3225SOL    HW221738   0.272   5.359   6.482
 3226SOL     OW21739   0.994   3.873   6.434
 3226SOL    HW121740   1.090   3.874   6.462
 3226SOL    HW221741   0.939   3.830   6.506
 3227SOL     OW21742   1.056   4.879   5.950
 3227SOL    HW121743   1.136   4.915   5.998
 3227SOL    HW221744   1.014   4.806   6.006
 3228SOL     OW21745   1.647   4.146   6.314
 3228SOL    HW121746   1.666   4.232   6.361
 3228SOL    HW221747   1.715   4.077   6.342
 3229SOL     OW21748   0.790   4.818   5.800
 3229SOL    HW121749   0.862   4.877   5.765
 3229SOL    HW221750   0.830   4.734   5.836
 3230SOL     OW21751   0.861   3.794   5.652
 3230SOL    HW121752   0.936   3.728   5.664
 3230SOL    HW221753   0.892   3.885   5.680
 3231SOL     OW21754   0.540   4.223   6.264
 3231SOL    HW121755   0.578   4.134   6.290
 3231SOL    HW221756   0.607   4.273   6.209
 3232SOL     OW21757   0.528   4.781   6.918
 3232SOL    HW121758   0.624   4.761   6.938
 3232SOL    HW221759   0.517   4.879   6.900
 3233SOL     OW21760   1.750   4.824   6.887
 3233SOL    HW121761   1.764   4.922   6.901
 3233SOL    HW221762   1.807   4.793   6.811
 3234SOL     OW21763   0.233   4.933   5.579
 3234SOL    HW121764   0.225   4.945   5.480
 3234SOL    HW221765   0.292   5.004   5.617
 3235SOL     OW21766   0.660   5.372   5.739
 3235SOL    HW121767   0.635   5.467   5.723
 3235SOL    HW221768   0.627   5.344   5.829
 3236SOL     OW21769   1.310   4.795   6.963
 3236SOL    HW121770   1.254   4.754   7.034
 3236SOL    HW221771   1.290   4.893   6.957
 3237SOL     OW21772   0.577   5.411   6.963
 3237SOL    HW121773   0.626   5.491   6.927
 3237SOL    HW221774   0.485   5.409   6.924
 3238SOL     OW21775   0.220   4.292   7.325
 3238SOL    HW121776   0.237   4.193   7.330
 3238SOL    HW221777   0.284   4.340   7.386
 3239SOL     OW21778   1.659   5.253   6.564
 3239SOL    HW121779   1.631   5.346   6.588
 3239SOL    HW221780   1.709   5.212   6.640
 3240SOL     OW21781   0.055   4.626   6.125
 3240SOL    HW121782   0.062   4.725   6.112
 3240SOL    HW221783  -0.036   4.603   6.159
 3241SOL     OW21784   0.564   4.424   7.063
 3241SOL    HW121785   0.470   4.394   7.044
 3241SOL    HW221786   0.573   4.521   7.040
 3242SOL     OW21787   1.631   4.800   6.375
 3242SOL    HW121788   1.593   4.889   6.348
 3242SOL    HW221789   1.631   4.738   6.297
 3243SOL     OW21790   0.789   4.206   6.544
 3243SOL    HW121791   0.881   4.234   6.571
 3243SOL    HW221792   0.721   4.257   6.598
 3244SOL     OW21793   0.642   5.057   6.771
 3244SOL    HW121794   0.555   5.056   6.722
 3244SOL    HW221795   0.708   4.997   6.724
 3245SOL     OW21796   0.208   4.399   6.685
 3245SOL    HW121797   0.246   4.458   6.756
 3245SOL    HW221798   0.191   4.452   6.603
 3246SOL     OW21799   0.379   5.045   6.983
 3246SOL    HW121800   0.398   5.133   7.027
 3246SOL    HW221801   0.284   5.019   7.001
 3247SOL     OW21802   1.622   5.361   7.331
 3247SOL    HW121803   1.591   5.283   7.276
 3247SOL    HW221804   1.591   5.446   7.289
 3248SOL     OW21805   1.330   4.899   6.052
 3248SOL    HW121806   1.429   4.903   6.068
 3248SOL    HW221807   1.313   4.885   5.954
 3249SOL     OW21808   0.683   4.065   6.000
 3249SOL    HW121809   0.585   4.059   5.980
 3249SOL    HW221810   0.702   4.022   6.088
 3250SOL     OW21811   1.603   3.748   6.259
 3250SOL    HW121812   1.598   3.789   6.168
 3250SOL    HW221813   1.684   3.782   6.306
 3251SOL     OW21814   1.206   4.504   6.952
 3251SOL    HW121815   1.305   4.513   6.942
 3251SOL    HW221816   1.162   4.506   6.862
 3252SOL     OW21817   0.700   4.464   6.354
 3252SOL    HW121818   0.722   4.386   6.412
 3252SOL    HW221819   0.709   4.438   6.258
 3253SOL     OW21820   1.365   5.171   6.566
 3253SOL    HW121821   1.279   5.128   6.595
 3253SOL    HW221822   1.354   5.211   6.475
 3254SOL     OW21823   1.368   4.156   6.241
 3254SOL    HW121824   1.367   4.148   6.142
 3254SOL    HW221825   1.457   4.128   6.276
 3255SOL     OW21826   1.095   5.172   8.074
 3255SOL    HW121827   1.186   5.206   8.097
 3255SOL    HW221828   1.067   5.210   7.986
 3256SOL     OW21829   1.606   4.968   7.932
 3256SOL    HW121830   1.617   5.052   7.986
 3256SOL    HW221831   1.696   4.931   7.909
 3257SOL     OW21832   1.686   4.250   8.796
 3257SOL    HW121833   1.588   4.242   8.818
 3257SOL    HW221834   1.739   4.239   8.880
 3258SOL     OW21835   0.353   3.887   7.401
 3258SOL    HW121836   0.266   3.884   7.352
 3258SOL    HW221837   0.404   3.969   7.373
 3259SOL     OW21838   1.340   5.276   8.176
 3259SOL    HW121839   1.329   5.373   8.199
 3259SOL    HW221840   1.433   5.259   8.146
 3260SOL     OW21841   1.218   3.787   8.734
 3260SOL    HW121842   1.142   3.742   8.781
 3260SOL    HW221843   1.247   3.732   8.656
 3261SOL     OW21844   0.956   4.567   9.111
 3261SOL    HW121845   0.921   4.542   9.021
 3261SOL    HW221846   0.880   4.588   9.172
 3262SOL     OW21847   0.563   5.241   7.805
 3262SOL    HW121848   0.519   5.250   7.894
 3262SOL    HW221849   0.634   5.171   7.809
 3263SOL     OW21850   0.581   3.774   7.527
 3263SOL    HW121851   0.669   3.802   7.488
 3263SOL    HW221852   0.509   3.837   7.497
 3264SOL     OW21853   1.551   4.759   8.910
 3264SOL    HW121854   1.459   4.764   8.872
 3264SOL    HW221855   1.616   4.797   8.844
 3265SOL     OW21856   1.451   4.766   8.591
 3265SOL    HW121857   1.376   4.755   8.656
 3265SOL    HW221858   1.488   4.859   8.597
 3266SOL     OW21859   0.947   5.021   8.891
 3266SOL    HW121860   0.890   5.084   8.837
 3266SOL    HW221861   0.980   4.947   8.832
 3267SOL     OW21862   0.490   4.914   8.100
 3267SOL    HW121863   0.423   4.868   8.159
 3267SOL    HW221864   0.582   4.882   8.123
 3268SOL     OW21865   0.717   4.320   7.931
 3268SOL    HW121866   0.756   4.390   7.872
 3268SOL    HW221867   0.691   4.240   7.877
 3269SOL     OW21868   1.337   4.228   9.140
 3269SOL    HW121869   1.433   4.232   9.166
 3269SOL    HW221870   1.293   4.152   9.187
 3270SOL     OW21871   0.420   5.083   7.584
 3270SOL    HW121872   0.484   5.099   7.509
 3270SOL    HW221873   0.444   5.141   7.662
 3271SOL     OW21874   0.571   4.039   8.394
 3271SOL    HW121875   0.647   4.104   8.390
 3271SOL    HW221876   0.601   3.950   8.361
 3272SOL     OW21877   0.268   4.465   7.812
 3272SOL    HW121878   0.283   4.399   7.886
 3272SOL    HW221879   0.218   4.544   7.847
 3273SOL     OW21880   0.854   5.410   7.989
 3273SOL    HW121881   0.919   5.343   7.953
 3273SOL    HW221882   0.844   5.486   7.925
 3274SOL     OW21883   1.746   5.292   7.731
 3274SOL    HW121884   1.842   5.266   7.724
 3274SOL    HW221885   1.722   5.352   7.655
 3275SOL     OW21886   1.658   3.985   8.502
 3275SOL    HW121887   1.709   4.057   8.455
 3275SOL    HW221888   1.563   4.012   8.511
 3276SOL     OW21889   0.182   4.727   8.956
 3276SOL    HW121890   0.278   4.742   8.974
 3276SOL    HW221891   0.144   4.665   9.025
 3277SOL     OW21892   0.508   4.372   7.499
 3277SOL    HW121893   0.468   4.451   7.452
 3277SOL    HW221894   0.597   4.351   7.459
 3278SOL     OW21895   0.681   5.296   8.197
 3278SOL    HW121896   0.754   5.319   8.133
 3278SOL    HW221897   0.610   5.243   8.151
 3279SOL     OW21898   1.023   4.328   8.951
 3279SOL    HW121899   1.056   4.245   8.998
 3279SOL    HW221900   1.096   4.396   8.950
 3280SOL     OW21901   1.627   5.128   8.173
 3280SOL    HW121902   1.623   5.163   8.266
 3280SOL    HW221903   1.686   5.187   8.117
 3281SOL     OW21904   0.358   4.949   7.849
 3281SOL    HW121905   0.404   4.923   7.934
 3281SOL    HW221906   0.378   4.881   7.778
 3282SOL     OW21907   1.216   4.004   7.560
 3282SOL    HW121908   1.310   3.974   7.578
 3282SOL    HW221909   1.164   4.004   7.646
 3283SOL     OW21910   0.368   4.209   8.655
 3283SOL    HW121911   0.358   4.122   8.607
 3283SOL    HW221912   0.304   4.276   8.618
 3284SOL     OW21913   1.450   4.489   8.693
 3284SOL    HW121914   1.454   4.583   8.658
 3284SOL    HW221915   1.543   4.458   8.715
 3285SOL     OW21916   0.403   3.981   7.814
 3285SOL    HW121917   0.357   4.021   7.893
 3285SOL    HW221918   0.351   4.000   7.732
 3286SOL     OW21919   1.531   5.508   8.726
 3286SOL    HW121920   1.474   5.459   8.660
 3286SOL    HW221921   1.617   5.535   8.683
 3287SOL     OW21922   1.826   4.226   8.581
 3287SOL    HW121923   1.883   4.308   8.583
 3287SOL    HW221924   1.767   4.225   8.661
 3288SOL     OW21925   1.843   5.452   8.494
 3288SOL    HW121926   1.889   5.462   8.582
 3288SOL    HW221927   1.910   5.455   8.421
 3289SOL     OW21928   0.956   4.192   8.056
 3289SOL    HW121929   1.032   4.220   8.115
 3289SOL    HW221930   0.912   4.272   8.017
 3290SOL     OW21931   1.191   4.656   7.573
 3290SOL    HW121932   1.228   4.606   7.651
 3290SOL    HW221933   1.121   4.601   7.528
 3291SOL     OW21934   1.033   4.078   9.194
 3291SOL    HW121935   1.096   4.083   9.271
 3291SOL    HW221936   0.941   4.056   9.227
 3292SOL     OW21937   1.774   4.325   7.652
 3292SOL    HW121938   1.795   4.244   7.598
 3292SOL    HW221939   1.791   4.306   7.749
 3293SOL     OW21940   1.068   5.463   7.560
 3293SOL    HW121941   1.102   5.376   7.525
 3293SOL    HW221942   1.036   5.451   7.654
 3294SOL     OW21943   0.749   3.730   9.092
 3294SOL    HW121944   0.756   3.636   9.059
 3294SOL    HW221945   0.806   3.740   9.174
 3295SOL     OW21946   1.672   4.331   8.360
 3295SOL    HW121947   1.657   4.422   8.397
 3295SOL    HW221948   1.742   4.284   8.414
 3296SOL     OW21949   1.082   4.997   9.126
 3296SOL    HW121950   1.104   4.907   9.088
 3296SOL    HW221951   1.017   5.044   9.067
 3297SOL     OW21952   0.737   4.839   9.130
 3297SOL    HW121953   0.708   4.916   9.187
 3297SOL    HW221954   0.747   4.758   9.188
 3298SOL     OW21955   1.372   3.703   8.236
 3298SOL    HW121956   1.321   3.787   8.218
 3298SOL    HW221957   1.458   3.705   8.185
 3299SOL     OW21958   1.727   3.909   9.165
 3299SOL    HW121959   1.704   3.930   9.260
 3299SOL    HW221960   1.703   3.814   9.145
 3300SOL     OW21961   0.030   4.313   7.909
 3300SOL    HW121962   0.032   4.264   7.996
 3300SOL    HW221963   0.032   4.412   7.927
 3301SOL     OW21964   0.351   3.901   8.230
 3301SOL    HW121965   0.403   3.941   8.305
 3301SOL    HW221966   0.404   3.828   8.187
 3302SOL     OW21967   0.335   3.949   8.564
 3302SOL    HW121968   0.300   3.856   8.564
 3302SOL    HW221969   0.422   3.952   8.515
 3303SOL     OW21970   1.002   4.571   8.304
 3303SOL    HW121971   1.028   4.651   8.250
 3303SOL    HW221972   0.996   4.491   8.244
 3304SOL     OW21973   0.203   5.198   7.763
 3304SOL    HW121974   0.230   5.104   7.783
 3304SOL    HW221975   0.228   5.220   7.669
 3305SOL     OW21976   1.485   5.067   8.637
 3305SOL    HW121977   1.456   5.104   8.548
 3305SOL    HW221978   1.407   5.067   8.699
 3306SOL     OW21979   0.217   5.341   8.000
 3306SOL    HW121980   0.133   5.392   8.018
 3306SOL    HW221981   0.208   5.290   7.915
 3307SOL     OW21982   1.738   5.138   8.675
 3307SOL    HW121983   1.769   5.152   8.769
 3307SOL    HW221984   1.639   5.125   8.674
 3308SOL     OW21985   0.490   4.638   7.402
 3308SOL    HW121986   0.459   4.672   7.314
 3308SOL    HW221987   0.494   4.713   7.468
 3309SOL     OW21988   1.007   4.825   8.701
 3309SOL    HW121989   1.057   4.740   8.685
 3309SOL    HW221990   0.961   4.852   8.616
 3310SOL     OW21991   0.094   4.530   7.575
 3310SOL    HW121992   0.154   4.477   7.635
 3310SOL    HW221993   0.000   4.498   7.587
 3311SOL     OW21994   1.614   4.528   7.775
 3311SOL    HW121995   1.682   4.462   7.742
 3311SOL    HW221996   1.629   4.616   7.731
 3312SOL     OW21997   0.862   5.515   8.423
 3312SOL    HW121998   0.908   5.448   8.365
 3312SOL    HW221999   0.788   5.471   8.473
 3313SOL     OW22000   0.769   4.584   7.459
 3313SOL    HW122001   0.798   4.503   7.510
 3313SOL    HW222002   0.669   4.583   7.450
 3314SOL     OW22003   1.365   4.116   7.805
 3314SOL    HW122004   1.302   4.174   7.753
 3314SOL    HW222005   1.458   4.150   7.793
 3315SOL     OW22006   0.262   4.317   8.905
 3315SOL    HW122007   0.282   4.222   8.880
 3315SOL    HW222008   0.225   4.320   8.998
 3316SOL     OW22009   0.144   3.972   8.795
 3316SOL    HW122010   0.216   3.982   8.726
 3316SOL    HW222011   0.055   3.971   8.750
 3317SOL     OW22012   1.042   4.593   8.560
 3317SOL    HW122013   1.036   4.579   8.461
 3317SOL    HW222014   0.961   4.554   8.604
 3318SOL     OW22015   1.633   4.127   7.875
 3318SOL    HW122016   1.729   4.098   7.872
 3318SOL    HW222017   1.594   4.105   7.964
 3319SOL     OW22018   0.917   5.202   8.312
 3319SOL    HW122019   0.975   5.213   8.231
 3319SOL    HW222020   0.823   5.226   8.290
 3320SOL     OW22021   0.867   4.068   7.597
 3320SOL    HW122022   0.776   4.081   7.635
 3320SOL    HW222023   0.927   4.028   7.667
 3321SOL     OW22024   0.978   5.013   7.532
 3321SOL    HW122025   1.031   4.953   7.592
 3321SOL    HW222026   1.017   5.014   7.441
 3322SOL     OW22027   1.729   5.308   8.017
 3322SOL    HW122028   1.696   5.401   8.036
 3322SOL    HW222029   1.727   5.292   7.918
 3323SOL     OW22030   1.144   4.581   8.006
 3323SOL    HW122031   1.209   4.609   8.077
 3323SOL    HW222032   1.065   4.642   8.008
 3324SOL     OW22033   0.892   5.307   9.030
 3324SOL    HW122034   0.880   5.238   8.959
 3324SOL    HW222035   0.855   5.272   9.117
 3325SOL     OW22036   1.336   4.621   8.209
 3325SOL    HW122037   1.357   4.563   8.287
 3325SOL    HW222038   1.345   4.717   8.235
 3326SOL     OW22039   0.292   4.750   8.255
 3326SOL    HW122040   0.215   4.812   8.248
 3326SOL    HW222041   0.329   4.751   8.348
 3327SOL     OW22042   0.925   4.698   7.954
 3327SOL    HW122043   0.912   4.609   7.911
 3327SOL    HW222044   0.856   4.712   8.025
 3328SOL     OW22045   1.229   5.086   8.793
 3328SOL    HW122046   1.262   5.171   8.834
 3328SOL    HW222047   1.130   5.082   8.800
 3329SOL     OW22048   0.036   4.003   7.857
 3329SOL    HW122049   0.096   3.954   7.795
 3329SOL    HW222050   0.091   4.055   7.922
 3330SOL     OW22051   1.659   5.501   7.548
 3330SOL    HW122052   1.749   5.545   7.550
 3330SOL    HW222053   1.658   5.432   7.476
 3331SOL     OW22054   0.823   4.468   8.706
 3331SOL    HW122055   0.825   4.554   8.757
 3331SOL    HW222056   0.880   4.400   8.753
 3332SOL     OW22057   0.060   5.495   8.777
 3332SOL    HW122058   0.068   5.595   8.775
 3332SOL    HW222059   0.036   5.466   8.870
 3333SOL     OW22060   0.841   4.514   7.771
 3333SOL    HW122061   0.752   4.542   7.736
 3333SOL    HW222062   0.882   4.448   7.707
 3334SOL     OW22063   0.363   4.232   8.310
 3334SOL    HW122064   0.419   4.225   8.227
 3334SOL    HW222065   0.420   4.210   8.390
 3335SOL     OW22066   0.360   5.430   7.581
 3335SOL    HW122067   0.452   5.460   7.556
 3335SOL    HW222068   0.335   5.469   7.670
 3336SOL     OW22069   1.336   5.452   8.518
 3336SOL    HW122070   1.355   5.515   8.444
 3336SOL    HW222071   1.344   5.358   8.485
 3337SOL     OW22072   0.041   4.847   8.330
 3337SOL    HW122073  -0.049   4.863   8.291
 3337SOL    HW222074   0.039   4.763   8.385
 3338SOL     OW22075   0.792   3.752   7.780
 3338SOL    HW122076   0.753   3.741   7.689
 3338SOL    HW222077   0.748   3.828   7.827
 3339SOL     OW22078   0.037   4.888   7.874
 3339SOL    HW122079   0.115   4.946   7.898
 3339SOL    HW222080   0.056   4.839   7.789
 3340SOL     OW22081   1.567   4.016   8.958
 3340SOL    HW122082   1.506   4.094   8.955
 3340SOL    HW222083   1.622   4.020   9.041
 3341SOL     OW22084   1.283   3.962   8.249
 3341SOL    HW122085   1.282   4.040   8.186
 3341SOL    HW222086   1.326   3.989   8.335
 3342SOL     OW22087   1.403   3.768   7.545
 3342SOL    HW122088   1.483   3.708   7.542
 3342SOL    HW222089   1.329   3.721   7.593
 3343SOL     OW22090   1.616   3.740   8.979
 3343SOL    HW122091   1.642   3.697   8.893
 3343SOL    HW222092   1.566   3.824   8.961
 3344SOL     OW22093   1.298   4.350   8.503
 3344SOL    HW122094   1.352   4.390   8.429
 3344SOL    HW222095   1.336   4.379   8.591
 3345SOL     OW22096   1.591   3.756   7.819
 3345SOL    HW122097   1.598   3.710   7.731
 3345SOL    HW222098   1.495   3.766   7.844
 3346SOL     OW22099   0.567   5.071   9.182
 3346SOL    HW122100   0.528   5.134   9.115
 3346SOL    HW222101   0.650   5.111   9.222
 3347SOL     OW22102   0.443   4.803   9.014
 3347SOL    HW122103   0.462   4.827   8.919
 3347SOL    HW222104   0.436   4.886   9.069
 3348SOL     OW22105   0.104   5.093   8.488
 3348SOL    HW122106   0.073   5.019   8.429
 3348SOL    HW222107   0.036   5.111   8.559
 3349SOL     OW22108   1.190   4.294   8.221
 3349SOL    HW122109   1.272   4.271   8.169
 3349SOL    HW222110   1.185   4.235   8.302
 3350SOL     OW22111   1.790   4.321   9.057
 3350SOL    HW122112   1.779   4.407   9.006
 3350SOL    HW222113   1.884   4.312   9.087
 3351SOL     OW22114   1.361   4.094   8.476
 3351SOL    HW122115   1.335   4.191   8.482
 3351SOL    HW222116   1.361   4.054   8.568
 3352SOL     OW22117   1.591   4.226   9.227
 3352SOL    HW122118   1.671   4.251   9.171
 3352SOL    HW222119   1.622   4.191   9.315
 3353SOL     OW22120   1.302   4.529   7.807
 3353SOL    HW122121   1.248   4.527   7.891
 3353SOL    HW222122   1.379   4.592   7.818
 3354SOL     OW22123   1.599   4.625   8.027
 3354SOL    HW122124   1.613   4.588   7.934
 3354SOL    HW222125   1.510   4.595   8.061
 3355SOL     OW22126   1.755   4.562   8.922
 3355SOL    HW122127   1.657   4.583   8.924
 3355SOL    HW222128   1.804   4.638   8.881
 3356SOL     OW22129   1.609   3.982   7.601
 3356SOL    HW122130   1.614   4.024   7.692
 3356SOL    HW222131   1.542   3.907   7.603
 3357SOL     OW22132   0.756   5.197   8.821
 3357SOL    HW122133   0.693   5.275   8.828
 3357SOL    HW222134   0.724   5.135   8.749
 3358SOL     OW22135   0.147   3.992   9.086
 3358SOL    HW122136   0.165   3.981   8.988
 3358SOL    HW222137   0.049   3.988   9.103
 3359SOL     OW22138   0.027   5.406   9.030
 3359SOL    HW122139   0.099   5.392   9.098
 3359SOL    HW222140  -0.062   5.409   9.075
 3360SOL     OW22141   0.195   4.062   8.054
 3360SOL    HW122142   0.138   4.117   8.115
 3360SOL    HW222143   0.265   4.014   8.107
 3361SOL     OW22144   1.367   5.294   8.917
 3361SOL    HW122145   1.320   5.362   8.972
 3361SOL    HW222146   1.434   5.340   8.858
 3362SOL     OW22147   0.332   4.253   7.652
 3362SOL    HW122148   0.404   4.282   7.589
 3362SOL    HW222149   0.288   4.333   7.692
 3363SOL     OW22150   1.718   3.915   8.755
 3363SOL    HW122151   1.674   3.963   8.831
 3363SOL    HW222152   1.696   3.961   8.669
 3364SOL     OW22153   0.447   5.516   8.118
 3364SOL    HW122154   0.371   5.482   8.063
 3364SOL    HW222155   0.533   5.479   8.083
 3365SOL     OW22156   0.372   5.025   8.563
 3365SOL    HW122157   0.384   5.041   8.660
 3365SOL    HW222158   0.285   5.065   8.533
 3366SOL     OW22159   1.256   5.229   9.209
 3366SOL    HW122160   1.215   5.144   9.175
 3366SOL    HW222161   1.236   5.303   9.145
 3367SOL     OW22162   0.746   4.949   7.899
 3367SOL    HW122163   0.789   4.880   7.841
 3367SOL    HW222164   0.710   4.906   7.982
 3368SOL     OW22165   0.378   4.500   8.101
 3368SOL    HW122166   0.370   4.598   8.119
 3368SOL    HW222167   0.462   4.466   8.142
 3369SOL     OW22168   0.224   3.980   7.616
 3369SOL    HW122169   0.268   3.949   7.533
 3369SOL    HW222170   0.225   4.080   7.620
 3370SOL     OW22171   0.077   4.232   8.227
 3370SOL    HW122172   0.041   4.325   8.219
 3370SOL    HW222173   0.160   4.233   8.283
 3371SOL     OW22174   0.512   4.819   7.613
 3371SOL    HW122175   0.612   4.819   7.624
 3371SOL    HW222176   0.481   4.912   7.592
 3372SOL     OW22177   1.138   4.411   7.429
 3372SOL    HW122178   1.069   4.468   7.385
 3372SOL    HW222179   1.219   4.405   7.370
 3373SOL     OW22180   0.873   4.330   7.572
 3373SOL    HW122181   0.963   4.331   7.527
 3373SOL    HW222182   0.850   4.236   7.597
 3374SOL     OW22183   1.324   3.847   7.866
 3374SOL    HW122184   1.234   3.831   7.907
 3374SOL    HW222185   1.332   3.943   7.840
 3375SOL     OW22186   1.438   4.247   8.882
 3375SOL    HW122187   1.390   4.270   8.966
 3375SOL    HW222188   1.372   4.217   8.813
 3376SOL     OW22189   0.073   3.762   7.526
 3376SOL    HW122190   0.136   3.685   7.534
 3376SOL    HW222191   0.093   3.830   7.597
 3377SOL     OW22192   0.346   4.737   8.527
 3377SOL    HW122193   0.357   4.692   8.616
 3377SOL    HW222194   0.373   4.833   8.534
 3378SOL     OW22195   1.645   4.749   7.627
 3378SOL    HW122196   1.716   4.819   7.629
 3378SOL    HW222197   1.632   4.719   7.532
 3379SOL     OW22198   0.627   4.350   8.549
 3379SOL    HW122199   0.702   4.393   8.598
 3379SOL    HW222200   0.560   4.315   8.615
 3380SOL     OW22201   0.770   4.719   8.866
 3380SOL    HW122202   0.839   4.771   8.816
 3380SOL    HW222203   0.765   4.752   8.961
 3381SOL     OW22204   1.162   4.740   9.026
 3381SOL    HW122205   1.084   4.686   9.059
 3381SOL    HW222206   1.243   4.718   9.081
 3382SOL     OW22207   1.201   5.454   9.062
 3382SOL    HW122208   1.106   5.452   9.030
 3382SOL    HW222209   1.222   5.545   9.099
 3383SOL     OW22210   0.319   5.464   8.660
 3383SOL    HW122211   0.299   5.446   8.564
 3383SOL    HW222212   0.246   5.426   8.717
 3384SOL     OW22213   1.012   4.928   8.205
 3384SOL    HW122214   1.051   4.971   8.124
 3384SOL    HW222215   1.085   4.911   8.272
 3385SOL     OW22216   0.706   4.656   8.407
 3385SOL    HW122217   0.704   4.572   8.352
 3385SOL    HW222218   0.655   4.642   8.492
 3386SOL     OW22219   0.045   4.666   8.533
 3386SOL    HW122220   0.134   4.644   8.573
 3386SOL    HW222221  -0.010   4.582   8.529
 3387SOL     OW22222   0.273   3.711   7.813
 3387SOL    HW122223   0.311   3.799   7.840
 3387SOL    HW222224   0.196   3.687   7.873
 3388SOL     OW22225   0.689   4.328   9.141
 3388SOL    HW122226   0.641   4.379   9.070
 3388SOL    HW222227   0.782   4.307   9.111
 3389SOL     OW22228   0.095   4.798   7.633
 3389SOL    HW122229   0.085   4.701   7.612
 3389SOL    HW222230   0.148   4.843   7.561
 3390SOL     OW22231   1.792   3.910   8.234
 3390SOL    HW122232   1.747   3.892   8.321
 3390SOL    HW222233   1.890   3.927   8.250
 3391SOL     OW22234   0.840   4.886   8.486
 3391SOL    HW122235   0.791   4.801   8.467
 3391SOL    HW222236   0.910   4.901   8.417
 3392SOL     OW22237   1.178   4.309   7.695
 3392SOL    HW122238   1.230   4.381   7.741
 3392SOL    HW222239   1.191   4.316   7.597
 3393SOL     OW22240   1.539   5.124   9.022
 3393SOL    HW122241   1.524   5.026   9.036
 3393SOL    HW222242   1.456   5.166   8.986
 3394SOL     OW22243   0.296   4.566   8.762
 3394SOL    HW122244   0.260   4.476   8.788
 3394SOL    HW222245   0.257   4.636   8.822
 3395SOL     OW22246   0.798   5.192   7.420
 3395SOL    HW122247   0.773   5.269   7.479
 3395SOL    HW222248   0.862   5.132   7.468
 3396SOL     OW22249   0.616   5.399   8.454
 3396SOL    HW122250   0.636   5.369   8.361
 3396SOL    HW222251   0.541   5.344   8.491
 3397SOL     OW22252   0.759   4.810   8.171
 3397SOL    HW122253   0.848   4.856   8.171
 3397SOL    HW222254   0.752   4.750   8.250
 3398SOL     OW22255   0.937   5.157   7.840
 3398SOL    HW122256   0.987   5.145   7.755
 3398SOL    HW222257   0.883   5.074   7.859
 3399SOL     OW22258   0.127   4.504   8.240
 3399SOL    HW122259   0.222   4.495   8.208
 3399SOL    HW222260   0.093   4.596   8.219
 3400SOL     OW22261   0.064   4.621   9.167
 3400SOL    HW122262  -0.021   4.572   9.148
 3400SOL    HW222263   0.091   4.608   9.262
 3401SOL     OW22264   0.961   5.530   8.873
 3401SOL    HW122265   0.933   5.443   8.914
 3401SOL    HW222266   0.905   5.604   8.910
 3402SOL     OW22267   1.190   4.877   8.403
 3402SOL    HW122268   1.174   4.971   8.434
 3402SOL    HW222269   1.193   4.816   8.483
 3403SOL     OW22270   0.464   4.148   9.167
 3403SOL    HW122271   0.500   4.095   9.090
 3403SOL    HW222272   0.525   4.225   9.185
 3404SOL     OW22273   0.528   4.565   7.739
 3404SOL    HW122274   0.478   4.630   7.683
 3404SOL    HW222275   0.470   4.486   7.758
 3405SOL     OW22276   1.609   4.596   8.437
 3405SOL    HW122277   1.628   4.635   8.346
 3405SOL    HW222278   1.563   4.665   8.493
 3406SOL     OW22279   1.301   4.039   8.733
 3406SOL    HW122280   1.372   4.011   8.797
 3406SOL    HW222281   1.248   3.959   8.705
 3407SOL     OW22282   0.002   3.738   7.934
 3407SOL    HW122283  -0.085   3.725   7.887
 3407SOL    HW222284   0.010   3.833   7.964
 3408SOL     OW22285   1.223   3.839   9.175
 3408SOL    HW122286   1.282   3.855   9.255
 3408SOL    HW222287   1.170   3.922   9.156
 3409SOL     OW22288   0.439   5.258   9.000
 3409SOL    HW122289   0.381   5.323   9.049
 3409SOL    HW222290   0.501   5.308   8.940
 3410SOL     OW22291   1.795   5.145   8.941
 3410SOL    HW122292   1.823   5.238   8.963
 3410SOL    HW222293   1.702   5.129   8.974
 3411SOL     OW22294   1.045   4.258   8.491
 3411SOL    HW122295   1.131   4.309   8.490
 3411SOL    HW222296   1.051   4.184   8.558
 3412SOL     OW22297   0.449   5.204   8.063
 3412SOL    HW122298   0.447   5.105   8.076
 3412SOL    HW222299   0.358   5.237   8.040
 3413SOL     OW22300   1.090   5.321   8.651
 3413SOL    HW122301   1.016   5.385   8.669
 3413SOL    HW222302   1.169   5.370   8.613
 3414SOL     OW22303   0.299   5.451   9.150
 3414SOL    HW122304   0.342   5.535   9.116
 3414SOL    HW222305   0.324   5.438   9.246
 3415SOL     OW22306   0.159   4.987   9.021
 3415SOL    HW122307   0.138   4.892   8.994
 3415SOL    HW222308   0.090   5.048   8.983
 3416SOL     OW22309   0.248   5.352   8.425
 3416SOL    HW122310   0.190   5.272   8.439
 3416SOL    HW222311   0.272   5.359   8.328
 3417SOL     OW22312   1.056   4.879   7.796
 3417SOL    HW122313   1.136   4.915   7.844
 3417SOL    HW222314   1.014   4.806   7.852
 3418SOL     OW22315   1.647   4.146   8.160
 3418SOL    HW122316   1.666   4.232   8.207
 3418SOL    HW222317   1.715   4.077   8.188
 3419SOL     OW22318   0.790   4.818   7.646
 3419SOL    HW122319   0.862   4.877   7.611
 3419SOL    HW222320   0.830   4.734   7.682
 3420SOL     OW22321   0.861   3.794   7.498
 3420SOL    HW122322   0.936   3.728   7.510
 3420SOL    HW222323   0.892   3.885   7.526
 3421SOL     OW22324   0.540   4.223   8.110
 3421SOL    HW122325   0.578   4.134   8.136
 3421SOL    HW222326   0.607   4.273   8.055
 3422SOL     OW22327   0.528   4.781   8.764
 3422SOL    HW122328   0.624   4.761   8.784
 3422SOL    HW222329   0.517   4.879   8.746
 3423SOL     OW22330   1.750   4.824   8.733
 3423SOL    HW122331   1.764   4.922   8.747
 3423SOL    HW222332   1.807   4.793   8.657
 3424SOL     OW22333   0.233   4.933   7.425
 3424SOL    HW122334   0.225   4.945   7.326
 3424SOL    HW222335   0.292   5.004   7.463
 3425SOL     OW22336   0.660   5.372   7.585
 3425SOL    HW122337   0.635   5.467   7.569
 3425SOL    HW222338   0.627   5.344   7.675
 3426SOL     OW22339   1.310   4.795   8.809
 3426SOL    HW122340   1.254   4.754   8.880
 3426SOL    HW222341   1.290   4.893   8.803
 3427SOL     OW22342   0.577   5.411   8.809
 3427SOL    HW122343   0.626   5.491   8.773
 3427SOL    HW222344   0.485   5.409   8.770
 3428SOL     OW22345   0.220   4.292   9.171
 3428SOL    HW122346   0.237   4.193   9.176
 3428SOL    HW222347   0.284   4.340   9.232
 3429SOL     OW22348   1.659   5.253   8.410
 3429SOL    HW122349   1.631   5.346   8.434
 3429SOL    HW222350   1.709   5.212   8.486
 3430SOL     OW22351   0.055   4.626   7.971
 3430SOL    HW122352   0.062   4.725   7.958
 3430SOL    HW222353  -0.036   4.603   8.005
 3431SOL     OW22354   0.564   4.424   8.909
 3431SOL    HW122355   0.470   4.394   8.890
 3431SOL    HW222356   0.573   4.521   8.886
 3432SOL     OW22357   1.631   4.800   8.221
 3432SOL    HW122358   1.593   4.889   8.194
 3432SOL    HW222359   1.631   4.738   8.143
 3433SOL     OW22360   0.789   4.206   8.390
 3433SOL    HW122361   0.881   4.234   8.417
 3433SOL    HW222362   0.721   4.257   8.444
 3434SOL     OW22363   0.642   5.057   8.617
 3434SOL    HW122364   0.555   5.056   8.568
 3434SOL    HW222365   0.708   4.997   8.570
 3435SOL     OW22366   0.208   4.399   8.531
 3435SOL    HW122367   0.246   4.458   8.602
 3435SOL    HW222368   0.191   4.452   8.449
 3436SOL     OW22369   0.379   5.045   8.829
 3436SOL    HW122370   0.398   5.133   8.873
 3436SOL    HW222371   0.284   5.019   8.847
 3437SOL     OW22372   1.622   5.361   9.177
 3437SOL    HW122373   1.591   5.283   9.122
 3437SOL    HW222374   1.591   5.446   9.135
 3438SOL     OW22375   1.330   4.899   7.898
 3438SOL    HW122376   1.429   4.903   7.914
 3438SOL    HW222377   1.313   4.885   7.800
 3439SOL     OW22378   0.683   4.065   7.846
 3439SOL    HW122379   0.585   4.059   7.826
 3439SOL    HW222380   0.702   4.022   7.934
 3440SOL     OW22381   1.603   3.748   8.105
 3440SOL    HW122382   1.598   3.789   8.014
 3440SOL    HW222383   1.684   3.782   8.152
 3441SOL     OW22384   1.206   4.504   8.798
 3441SOL    HW122385   1.305   4.513   8.788
 3441SOL    HW222386   1.162   4.506   8.708
 3442SOL     OW22387   0.700   4.464   8.200
 3442SOL    HW122388   0.722   4.386   8.258
 3442SOL    HW222389   0.709   4.438   8.104
 3443SOL     OW22390   1.365   5.171   8.412
 3443SOL    HW122391   1.279   5.128   8.441
 3443SOL    HW222392   1.354   5.211   8.321
 3444SOL     OW22393   1.368   4.156   8.087
 3444SOL    HW122394   1.367   4.148   7.988
 3444SOL    HW222395   1.457   4.128   8.122
 3445SOL     OW22396   1.095   5.172   9.919
 3445SOL    HW122397   1.186   5.206   9.942
 3445SOL    HW222398   1.067   5.210   9.831
 3446SOL     OW22399   1.606   4.968   9.777
 3446SOL    HW122400   1.617   5.052   9.831
 3446SOL    HW222401   1.696   4.931   9.754
 3447SOL     OW22402   0.353   3.887   9.246
 3447SOL    HW122403   0.266   3.884   9.197
 3447SOL    HW222404   0.404   3.969   9.218
 3448SOL     OW22405   0.563   5.241   9.650
 3448SOL    HW122406   0.519   5.250   9.739
 3448SOL    HW222407   0.634   5.171   9.654
 3449SOL     OW22408   0.581   3.774   9.372
 3449SOL    HW122409   0.669   3.802   9.333
 3449SOL    HW222410   0.509   3.837   9.342
 3450SOL     OW22411   0.490   4.914   9.945
 3450SOL    HW122412   0.423   4.868  10.004
 3450SOL    HW222413   0.582   4.882   9.968
 3451SOL     OW22414   0.717   4.320   9.776
 3451SOL    HW122415   0.756   4.390   9.717
 3451SOL    HW222416   0.691   4.240   9.722
 3452SOL     OW22417   0.420   5.083   9.429
 3452SOL    HW122418   0.484   5.099   9.354
 3452SOL    HW222419   0.444   5.141   9.507
 3453SOL     OW22420   0.268   4.465   9.657
 3453SOL    HW122421   0.283   4.399   9.731
 3453SOL    HW222422   0.218   4.544   9.692
 3454SOL     OW22423   0.854   5.410   9.834
 3454SOL    HW122424   0.919   5.343   9.798
 3454SOL    HW222425   0.844   5.486   9.770
 3455SOL     OW22426   1.746   5.292   9.576
 3455SOL    HW122427   1.842   5.266   9.569
 3455SOL    HW222428   1.722   5.352   9.500
 3456SOL     OW22429   1.058   4.014   9.616
 3456SOL    HW122430   1.083   4.108   9.637
 3456SOL    HW222431   1.059   3.960   9.700
 3457SOL     OW22432   0.508   4.372   9.344
 3457SOL    HW122433   0.468   4.451   9.297
 3457SOL    HW222434   0.597   4.351   9.304
 3458SOL     OW22435   1.627   5.128  10.018
 3458SOL    HW122436   1.623   5.163  10.111
 3458SOL    HW222437   1.686   5.187   9.962
 3459SOL     OW22438   0.358   4.949   9.694
 3459SOL    HW122439   0.404   4.923   9.779
 3459SOL    HW222440   0.378   4.881   9.623
 3460SOL     OW22441   1.216   4.004   9.405
 3460SOL    HW122442   1.310   3.974   9.423
 3460SOL    HW222443   1.164   4.004   9.491
 3461SOL     OW22444   0.403   3.981   9.659
 3461SOL    HW122445   0.357   4.021   9.738
 3461SOL    HW222446   0.351   4.000   9.577
 3462SOL     OW22447   1.843   5.452  10.339
 3462SOL    HW122448   1.889   5.462  10.427
 3462SOL    HW222449   1.910   5.455  10.266
 3463SOL     OW22450   0.956   4.192   9.901
 3463SOL    HW122451   1.032   4.220   9.960
 3463SOL    HW222452   0.912   4.272   9.862
 3464SOL     OW22453   1.191   4.656   9.418
 3464SOL    HW122454   1.228   4.606   9.496
 3464SOL    HW222455   1.121   4.601   9.373
 3465SOL     OW22456   1.774   4.325   9.497
 3465SOL    HW122457   1.795   4.244   9.443
 3465SOL    HW222458   1.791   4.306   9.594
 3466SOL     OW22459   1.068   5.463   9.405
 3466SOL    HW122460   1.102   5.376   9.370
 3466SOL    HW222461   1.036   5.451   9.499
 3467SOL     OW22462   0.030   4.313   9.754
 3467SOL    HW122463   0.032   4.264   9.841
 3467SOL    HW222464   0.032   4.412   9.772
 3468SOL     OW22465   0.203   5.198   9.608
 3468SOL    HW122466   0.230   5.104   9.628
 3468SOL    HW222467   0.228   5.220   9.514
 3469SOL     OW22468   0.217   5.341   9.845
 3469SOL    HW122469   0.133   5.392   9.863
 3469SOL    HW222470   0.208   5.290   9.760
 3470SOL     OW22471   0.490   4.638   9.247
 3470SOL    HW122472   0.459   4.672   9.159
 3470SOL    HW222473   0.494   4.713   9.313
 3471SOL     OW22474   0.094   4.530   9.420
 3471SOL    HW122475   0.154   4.477   9.480
 3471SOL    HW222476   0.000   4.498   9.432
 3472SOL     OW22477   1.614   4.528   9.620
 3472SOL    HW122478   1.682   4.462   9.587
 3472SOL    HW222479   1.629   4.616   9.576
 3473SOL     OW22480   0.769   4.584   9.304
 3473SOL    HW122481   0.798   4.503   9.355
 3473SOL    HW222482   0.669   4.583   9.295
 3474SOL     OW22483   1.365   4.116   9.650
 3474SOL    HW122484   1.302   4.174   9.598
 3474SOL    HW222485   1.458   4.150   9.638
 3475SOL     OW22486   1.633   4.127   9.720
 3475SOL    HW122487   1.729   4.098   9.717
 3475SOL    HW222488   1.594   4.105   9.809
 3476SOL     OW22489   0.867   4.068   9.442
 3476SOL    HW122490   0.776   4.081   9.480
 3476SOL    HW222491   0.927   4.028   9.512
 3477SOL     OW22492   0.978   5.013   9.377
 3477SOL    HW122493   1.031   4.953   9.437
 3477SOL    HW222494   1.017   5.014   9.286
 3478SOL     OW22495   1.729   5.308   9.862
 3478SOL    HW122496   1.696   5.401   9.881
 3478SOL    HW222497   1.727   5.292   9.763
 3479SOL     OW22498   1.144   4.581   9.851
 3479SOL    HW122499   1.209   4.609   9.922
 3479SOL    HW222500   1.065   4.642   9.853
 3480SOL     OW22501   1.336   4.621  10.054
 3480SOL    HW122502   1.357   4.563  10.132
 3480SOL    HW222503   1.345   4.717  10.080
 3481SOL     OW22504   0.925   4.698   9.799
 3481SOL    HW122505   0.912   4.609   9.756
 3481SOL    HW222506   0.856   4.712   9.870
 3482SOL     OW22507   0.036   4.003   9.702
 3482SOL    HW122508   0.096   3.954   9.640
 3482SOL    HW222509   0.091   4.055   9.767
 3483SOL     OW22510   1.659   5.501   9.393
 3483SOL    HW122511   1.749   5.545   9.395
 3483SOL    HW222512   1.658   5.432   9.321
 3484SOL     OW22513   0.841   4.514   9.616
 3484SOL    HW122514   0.752   4.542   9.581
 3484SOL    HW222515   0.882   4.448   9.552
 3485SOL     OW22516   0.360   5.430   9.426
 3485SOL    HW122517   0.452   5.460   9.401
 3485SOL    HW222518   0.335   5.469   9.515
 3486SOL     OW22519   0.792   3.752   9.625
 3486SOL    HW122520   0.753   3.741   9.534
 3486SOL    HW222521   0.748   3.828   9.672
 3487SOL     OW22522   0.037   4.888   9.719
 3487SOL    HW122523   0.115   4.946   9.743
 3487SOL    HW222524   0.056   4.839   9.634
 3488SOL     OW22525   1.403   3.768   9.390
 3488SOL    HW122526   1.483   3.708   9.387
 3488SOL    HW222527   1.329   3.721   9.438
 3489SOL     OW22528   0.718   3.999   9.956
 3489SOL    HW122529   0.707   3.941  10.037
 3489SOL    HW222530   0.803   4.051   9.964
 3490SOL     OW22531   1.591   3.756   9.664
 3490SOL    HW122532   1.598   3.710   9.576
 3490SOL    HW222533   1.495   3.766   9.689
 3491SOL     OW22534   1.302   4.529   9.652
 3491SOL    HW122535   1.248   4.527   9.736
 3491SOL    HW222536   1.379   4.592   9.663
 3492SOL     OW22537   1.599   4.625   9.872
 3492SOL    HW122538   1.613   4.588   9.779
 3492SOL    HW222539   1.510   4.595   9.906
 3493SOL     OW22540   1.609   3.982   9.446
 3493SOL    HW122541   1.614   4.024   9.537
 3493SOL    HW222542   1.542   3.907   9.448
 3494SOL     OW22543   0.332   4.253   9.497
 3494SOL    HW122544   0.404   4.282   9.434
 3494SOL    HW222545   0.288   4.333   9.537
 3495SOL     OW22546   0.447   5.516   9.963
 3495SOL    HW122547   0.371   5.482   9.908
 3495SOL    HW222548   0.533   5.479   9.928
 3496SOL     OW22549   0.746   4.949   9.744
 3496SOL    HW122550   0.789   4.880   9.686
 3496SOL    HW222551   0.710   4.906   9.827
 3497SOL     OW22552   0.224   3.980   9.461
 3497SOL    HW122553   0.268   3.949   9.378
 3497SOL    HW222554   0.225   4.080   9.465
 3498SOL     OW22555   0.077   4.232  10.072
 3498SOL    HW122556   0.041   4.325  10.064
 3498SOL    HW222557   0.160   4.233  10.128
 3499SOL     OW22558   0.512   4.819   9.458
 3499SOL    HW122559   0.612   4.819   9.469
 3499SOL    HW222560   0.481   4.912   9.437
 3500SOL     OW22561   1.138   4.411   9.274
 3500SOL    HW122562   1.069   4.468   9.230
 3500SOL    HW222563   1.219   4.405   9.215
 3501SOL     OW22564   0.873   4.330   9.417
 3501SOL    HW122565   0.963   4.331   9.372
 3501SOL    HW222566   0.850   4.236   9.442
 3502SOL     OW22567   1.324   3.847   9.711
 3502SOL    HW122568   1.234   3.831   9.752
 3502SOL    HW222569   1.332   3.943   9.685
 3503SOL     OW22570   0.073   3.762   9.371
 3503SOL    HW122571   0.136   3.685   9.379
 3503SOL    HW222572   0.093   3.830   9.442
 3504SOL     OW22573   1.645   4.749   9.472
 3504SOL    HW122574   1.716   4.819   9.474
 3504SOL    HW222575   1.632   4.719   9.377
 3505SOL     OW22576   1.091   3.922   9.867
 3505SOL    HW122577   1.150   3.982   9.922
 3505SOL    HW222578   1.018   3.886   9.924
 3506SOL     OW22579   0.273   3.711   9.658
 3506SOL    HW122580   0.311   3.799   9.685
 3506SOL    HW222581   0.196   3.687   9.718
 3507SOL     OW22582   0.095   4.798   9.478
 3507SOL    HW122583   0.085   4.701   9.457
 3507SOL    HW222584   0.148   4.843   9.406
 3508SOL     OW22585   1.178   4.309   9.540
 3508SOL    HW122586   1.230   4.381   9.586
 3508SOL    HW222587   1.191   4.316   9.442
 3509SOL     OW22588   0.798   5.192   9.265
 3509SOL    HW122589   0.773   5.269   9.324
 3509SOL    HW222590   0.862   5.132   9.313
 3510SOL     OW22591   0.759   4.810  10.016
 3510SOL    HW122592   0.848   4.856  10.016
 3510SOL    HW222593   0.752   4.750  10.095
 3511SOL     OW22594   0.937   5.157   9.685
 3511SOL    HW122595   0.987   5.145   9.600
 3511SOL    HW222596   0.883   5.074   9.704
 3512SOL     OW22597   0.528   4.565   9.584
 3512SOL    HW122598   0.478   4.630   9.528
 3512SOL    HW222599   0.470   4.486   9.603
 3513SOL     OW22600   0.002   3.738   9.779
 3513SOL    HW122601  -0.085   3.725   9.732
 3513SOL    HW222602   0.010   3.833   9.809
 3514SOL     OW22603   0.449   5.204   9.908
 3514SOL    HW122604   0.447   5.105   9.921
 3514SOL    HW222605   0.358   5.237   9.885
 3515SOL     OW22606   1.056   4.879   9.641
 3515SOL    HW122607   1.136   4.915   9.689
 3515SOL    HW222608   1.014   4.806   9.697
 3516SOL     OW22609   1.647   4.146  10.005
 3516SOL    HW122610   1.666   4.232  10.052
 3516SOL    HW222611   1.715   4.077  10.033
 3517SOL     OW22612   0.790   4.818   9.491
 3517SOL    HW122613   0.862   4.877   9.456
 3517SOL    HW222614   0.830   4.734   9.527
 3518SOL     OW22615   0.861   3.794   9.343
 3518SOL    HW122616   0.936   3.728   9.355
 3518SOL    HW222617   0.892   3.885   9.371
 3519SOL     OW22618   0.540   4.223   9.955
 3519SOL    HW122619   0.578   4.134   9.981
 3519SOL    HW222620   0.607   4.273   9.900
 3520SOL     OW22621   0.233   4.933   9.270
 3520SOL    HW122622   0.225   4.945   9.171
 3520SOL    HW222623   0.292   5.004   9.308
 3521SOL     OW22624   0.660   5.372   9.430
 3521SOL    HW122625   0.635   5.467   9.414
 3521SOL    HW222626   0.627   5.344   9.520
 3522SOL     OW22627   0.055   4.626   9.816
 3522SOL    HW122628   0.062   4.725   9.803
 3522SOL    HW222629  -0.036   4.603   9.850
 3523SOL     OW22630   1.330   4.899   9.743
 3523SOL    HW122631   1.429   4.903   9.759
 3523SOL    HW222632   1.313   4.885   9.645
 3524SOL     OW22633   0.683   4.065   9.691
 3524SOL    HW122634   0.585   4.059   9.671
 3524SOL    HW222635   0.702   4.022   9.779
 3525SOL     OW22636   1.603   3.748   9.950
 3525SOL    HW122637   1.598   3.789   9.859
 3525SOL    HW222638   1.684   3.782   9.997
 3526SOL     OW22639   1.368   4.156   9.932
 3526SOL    HW122640   1.367   4.148   9.833
 3526SOL    HW222641   1.457   4.128   9.967
 3527SOL     OW22642   1.095   7.017   0.692
 3527SOL    HW122643   1.186   7.051   0.715
 3527SOL    HW222644   1.067   7.055   0.604
 3528SOL     OW22645   1.606   6.813   0.550
 3528SOL    HW122646   1.617   6.897   0.604
 3528SOL    HW222647   1.696   6.776   0.527
 3529SOL     OW22648   1.686   6.095   1.414
 3529SOL    HW122649   1.588   6.087   1.436
 3529SOL    HW222650   1.739   6.084   1.498
 3530SOL     OW22651   0.353   5.732   0.019
 3530SOL    HW122652   0.266   5.729  -0.030
 3530SOL    HW222653   0.404   5.814  -0.009
 3531SOL     OW22654   1.340   7.121   0.794
 3531SOL    HW122655   1.329   7.218   0.817
 3531SOL    HW222656   1.433   7.104   0.764
 3532SOL     OW22657   1.218   5.632   1.352
 3532SOL    HW122658   1.142   5.587   1.399
 3532SOL    HW222659   1.247   5.577   1.274
 3533SOL     OW22660   0.956   6.412   1.729
 3533SOL    HW122661   0.921   6.387   1.639
 3533SOL    HW222662   0.880   6.433   1.790
 3534SOL     OW22663   0.563   7.086   0.423
 3534SOL    HW122664   0.519   7.095   0.512
 3534SOL    HW222665   0.634   7.016   0.427
 3535SOL     OW22666   0.581   5.619   0.145
 3535SOL    HW122667   0.669   5.647   0.106
 3535SOL    HW222668   0.509   5.682   0.115
 3536SOL     OW22669   1.551   6.604   1.528
 3536SOL    HW122670   1.459   6.609   1.490
 3536SOL    HW222671   1.616   6.642   1.462
 3537SOL     OW22672   1.451   6.611   1.209
 3537SOL    HW122673   1.376   6.600   1.274
 3537SOL    HW222674   1.488   6.704   1.215
 3538SOL     OW22675   0.947   6.866   1.509
 3538SOL    HW122676   0.890   6.929   1.455
 3538SOL    HW222677   0.980   6.792   1.450
 3539SOL     OW22678   0.490   6.759   0.718
 3539SOL    HW122679   0.423   6.713   0.777
 3539SOL    HW222680   0.582   6.727   0.741
 3540SOL     OW22681   0.717   6.165   0.549
 3540SOL    HW122682   0.756   6.235   0.490
 3540SOL    HW222683   0.691   6.085   0.495
 3541SOL     OW22684   1.337   6.073   1.758
 3541SOL    HW122685   1.433   6.077   1.784
 3541SOL    HW222686   1.293   5.997   1.805
 3542SOL     OW22687   0.420   6.928   0.202
 3542SOL    HW122688   0.484   6.944   0.127
 3542SOL    HW222689   0.444   6.986   0.280
 3543SOL     OW22690   0.571   5.884   1.012
 3543SOL    HW122691   0.647   5.949   1.008
 3543SOL    HW222692   0.601   5.795   0.979
 3544SOL     OW22693   0.268   6.310   0.430
 3544SOL    HW122694   0.283   6.244   0.504
 3544SOL    HW222695   0.218   6.389   0.465
 3545SOL     OW22696   0.854   7.255   0.607
 3545SOL    HW122697   0.919   7.188   0.571
 3545SOL    HW222698   0.844   7.331   0.543
 3546SOL     OW22699   1.746   7.137   0.349
 3546SOL    HW122700   1.842   7.111   0.342
 3546SOL    HW222701   1.722   7.197   0.273
 3547SOL     OW22702   1.658   5.830   1.120
 3547SOL    HW122703   1.709   5.902   1.073
 3547SOL    HW222704   1.563   5.857   1.129
 3548SOL     OW22705   1.058   5.859   0.389
 3548SOL    HW122706   1.083   5.953   0.410
 3548SOL    HW222707   1.059   5.805   0.473
 3549SOL     OW22708   0.182   6.572   1.574
 3549SOL    HW122709   0.278   6.587   1.592
 3549SOL    HW222710   0.144   6.510   1.643
 3550SOL     OW22711   0.508   6.217   0.117
 3550SOL    HW122712   0.468   6.296   0.070
 3550SOL    HW222713   0.597   6.196   0.077
 3551SOL     OW22714   0.681   7.141   0.815
 3551SOL    HW122715   0.754   7.164   0.751
 3551SOL    HW222716   0.610   7.088   0.769
 3552SOL     OW22717   1.023   6.173   1.569
 3552SOL    HW122718   1.056   6.090   1.616
 3552SOL    HW222719   1.096   6.241   1.568
 3553SOL     OW22720   1.627   6.973   0.791
 3553SOL    HW122721   1.623   7.008   0.884
 3553SOL    HW222722   1.686   7.032   0.735
 3554SOL     OW22723   0.358   6.794   0.467
 3554SOL    HW122724   0.404   6.768   0.552
 3554SOL    HW222725   0.378   6.726   0.396
 3555SOL     OW22726   1.216   5.849   0.178
 3555SOL    HW122727   1.310   5.819   0.196
 3555SOL    HW222728   1.164   5.849   0.264
 3556SOL     OW22729   0.368   6.054   1.273
 3556SOL    HW122730   0.358   5.967   1.225
 3556SOL    HW222731   0.304   6.121   1.236
 3557SOL     OW22732   1.450   6.334   1.311
 3557SOL    HW122733   1.454   6.428   1.276
 3557SOL    HW222734   1.543   6.303   1.333
 3558SOL     OW22735   0.403   5.826   0.432
 3558SOL    HW122736   0.357   5.866   0.511
 3558SOL    HW222737   0.351   5.845   0.350
 3559SOL     OW22738   1.826   6.071   1.199
 3559SOL    HW122739   1.883   6.153   1.201
 3559SOL    HW222740   1.767   6.070   1.279
 3560SOL     OW22741   0.956   6.037   0.674
 3560SOL    HW122742   1.032   6.065   0.733
 3560SOL    HW222743   0.912   6.117   0.635
 3561SOL     OW22744   1.191   6.501   0.191
 3561SOL    HW122745   1.228   6.451   0.269
 3561SOL    HW222746   1.121   6.446   0.146
 3562SOL     OW22747   1.033   5.923   1.812
 3562SOL    HW122748   1.096   5.928   1.889
 3562SOL    HW222749   0.941   5.901   1.845
 3563SOL     OW22750   1.774   6.170   0.270
 3563SOL    HW122751   1.795   6.089   0.216
 3563SOL    HW222752   1.791   6.151   0.367
 3564SOL     OW22753   1.068   7.308   0.178
 3564SOL    HW122754   1.102   7.221   0.143
 3564SOL    HW222755   1.036   7.296   0.272
 3565SOL     OW22756   0.749   5.575   1.710
 3565SOL    HW122757   0.756   5.481   1.677
 3565SOL    HW222758   0.806   5.585   1.792
 3566SOL     OW22759   1.672   6.176   0.978
 3566SOL    HW122760   1.657   6.267   1.015
 3566SOL    HW222761   1.742   6.129   1.032
 3567SOL     OW22762   1.082   6.842   1.744
 3567SOL    HW122763   1.104   6.752   1.706
 3567SOL    HW222764   1.017   6.889   1.685
 3568SOL     OW22765   0.737   6.684   1.748
 3568SOL    HW122766   0.708   6.761   1.805
 3568SOL    HW222767   0.747   6.603   1.806
 3569SOL     OW22768   1.372   5.548   0.854
 3569SOL    HW122769   1.321   5.632   0.836
 3569SOL    HW222770   1.458   5.550   0.803
 3570SOL     OW22771   1.727   5.754   1.783
 3570SOL    HW122772   1.704   5.775   1.878
 3570SOL    HW222773   1.703   5.659   1.763
 3571SOL     OW22774   0.030   6.158   0.527
 3571SOL    HW122775   0.032   6.109   0.614
 3571SOL    HW222776   0.032   6.257   0.545
 3572SOL     OW22777   0.351   5.746   0.848
 3572SOL    HW122778   0.403   5.786   0.923
 3572SOL    HW222779   0.404   5.673   0.805
 3573SOL     OW22780   0.335   5.794   1.182
 3573SOL    HW122781   0.300   5.701   1.182
 3573SOL    HW222782   0.422   5.797   1.133
 3574SOL     OW22783   1.002   6.416   0.922
 3574SOL    HW122784   1.028   6.496   0.868
 3574SOL    HW222785   0.996   6.336   0.862
 3575SOL     OW22786   0.203   7.043   0.381
 3575SOL    HW122787   0.230   6.949   0.401
 3575SOL    HW222788   0.228   7.065   0.287
 3576SOL     OW22789   1.485   6.912   1.255
 3576SOL    HW122790   1.456   6.949   1.166
 3576SOL    HW222791   1.407   6.912   1.317
 3577SOL     OW22792   0.217   7.186   0.618
 3577SOL    HW122793   0.133   7.237   0.636
 3577SOL    HW222794   0.208   7.135   0.533
 3578SOL     OW22795   1.738   6.983   1.293
 3578SOL    HW122796   1.769   6.997   1.387
 3578SOL    HW222797   1.639   6.970   1.292
 3579SOL     OW22798   0.490   6.483   0.020
 3579SOL    HW122799   0.459   6.517  -0.068
 3579SOL    HW222800   0.494   6.558   0.086
 3580SOL     OW22801   1.007   6.670   1.319
 3580SOL    HW122802   1.057   6.585   1.303
 3580SOL    HW222803   0.961   6.697   1.234
 3581SOL     OW22804   0.094   6.375   0.193
 3581SOL    HW122805   0.154   6.322   0.253
 3581SOL    HW222806   0.000   6.343   0.205
 3582SOL     OW22807   1.614   6.373   0.393
 3582SOL    HW122808   1.682   6.307   0.360
 3582SOL    HW222809   1.629   6.461   0.349
 3583SOL     OW22810   0.862   7.360   1.041
 3583SOL    HW122811   0.908   7.293   0.983
 3583SOL    HW222812   0.788   7.316   1.091
 3584SOL     OW22813   0.769   6.429   0.077
 3584SOL    HW122814   0.798   6.348   0.128
 3584SOL    HW222815   0.669   6.428   0.068
 3585SOL     OW22816   1.365   5.961   0.423
 3585SOL    HW122817   1.302   6.019   0.371
 3585SOL    HW222818   1.458   5.995   0.411
 3586SOL     OW22819   0.262   6.162   1.523
 3586SOL    HW122820   0.282   6.067   1.498
 3586SOL    HW222821   0.225   6.165   1.616
 3587SOL     OW22822   0.144   5.817   1.413
 3587SOL    HW122823   0.216   5.827   1.344
 3587SOL    HW222824   0.055   5.816   1.368
 3588SOL     OW22825   1.042   6.438   1.178
 3588SOL    HW122826   1.036   6.424   1.079
 3588SOL    HW222827   0.961   6.399   1.222
 3589SOL     OW22828   0.917   7.047   0.930
 3589SOL    HW122829   0.975   7.058   0.849
 3589SOL    HW222830   0.823   7.071   0.908
 3590SOL     OW22831   0.867   5.913   0.215
 3590SOL    HW122832   0.776   5.926   0.253
 3590SOL    HW222833   0.927   5.873   0.285
 3591SOL     OW22834   0.978   6.858   0.150
 3591SOL    HW122835   1.031   6.798   0.210
 3591SOL    HW222836   1.017   6.859   0.059
 3592SOL     OW22837   1.729   7.153   0.635
 3592SOL    HW122838   1.696   7.246   0.654
 3592SOL    HW222839   1.727   7.137   0.536
 3593SOL     OW22840   1.144   6.426   0.624
 3593SOL    HW122841   1.209   6.454   0.695
 3593SOL    HW222842   1.065   6.487   0.626
 3594SOL     OW22843   0.892   7.152   1.648
 3594SOL    HW122844   0.880   7.083   1.577
 3594SOL    HW222845   0.855   7.117   1.735
 3595SOL     OW22846   1.336   6.466   0.827
 3595SOL    HW122847   1.357   6.408   0.905
 3595SOL    HW222848   1.345   6.562   0.853
 3596SOL     OW22849   0.925   6.543   0.572
 3596SOL    HW122850   0.912   6.454   0.529
 3596SOL    HW222851   0.856   6.557   0.643
 3597SOL     OW22852   0.036   5.848   0.475
 3597SOL    HW122853   0.096   5.799   0.413
 3597SOL    HW222854   0.091   5.900   0.540
 3598SOL     OW22855   1.659   7.346   0.166
 3598SOL    HW122856   1.749   7.390   0.168
 3598SOL    HW222857   1.658   7.277   0.094
 3599SOL     OW22858   0.823   6.313   1.324
 3599SOL    HW122859   0.825   6.399   1.375
 3599SOL    HW222860   0.880   6.245   1.371
 3600SOL     OW22861   0.060   7.340   1.395
 3600SOL    HW122862   0.068   7.440   1.393
 3600SOL    HW222863   0.036   7.311   1.488
 3601SOL     OW22864   0.841   6.359   0.389
 3601SOL    HW122865   0.752   6.387   0.354
 3601SOL    HW222866   0.882   6.293   0.325
 3602SOL     OW22867   0.363   6.077   0.928
 3602SOL    HW122868   0.419   6.070   0.845
 3602SOL    HW222869   0.420   6.055   1.008
 3603SOL     OW22870   0.360   7.275   0.199
 3603SOL    HW122871   0.452   7.305   0.174
 3603SOL    HW222872   0.335   7.314   0.288
 3604SOL     OW22873   1.336   7.297   1.136
 3604SOL    HW122874   1.355   7.360   1.062
 3604SOL    HW222875   1.344   7.203   1.103
 3605SOL     OW22876   0.792   5.597   0.398
 3605SOL    HW122877   0.753   5.586   0.307
 3605SOL    HW222878   0.748   5.673   0.445
 3606SOL     OW22879   0.037   6.733   0.492
 3606SOL    HW122880   0.115   6.791   0.516
 3606SOL    HW222881   0.056   6.684   0.407
 3607SOL     OW22882   1.567   5.861   1.576
 3607SOL    HW122883   1.506   5.939   1.573
 3607SOL    HW222884   1.622   5.865   1.659
 3608SOL     OW22885   1.283   5.807   0.867
 3608SOL    HW122886   1.282   5.885   0.804
 3608SOL    HW222887   1.326   5.834   0.953
 3609SOL     OW22888   1.403   5.613   0.163
 3609SOL    HW122889   1.483   5.553   0.160
 3609SOL    HW222890   1.329   5.566   0.211
 3610SOL     OW22891   1.616   5.585   1.597
 3610SOL    HW122892   1.642   5.542   1.511
 3610SOL    HW222893   1.566   5.669   1.579
 3611SOL     OW22894   0.718   5.844   0.729
 3611SOL    HW122895   0.707   5.786   0.810
 3611SOL    HW222896   0.803   5.896   0.737
 3612SOL     OW22897   1.298   6.195   1.121
 3612SOL    HW122898   1.352   6.235   1.047
 3612SOL    HW222899   1.336   6.224   1.209
 3613SOL     OW22900   1.591   5.601   0.437
 3613SOL    HW122901   1.598   5.555   0.349
 3613SOL    HW222902   1.495   5.611   0.462
 3614SOL     OW22903   0.567   6.916   1.800
 3614SOL    HW122904   0.528   6.979   1.733
 3614SOL    HW222905   0.650   6.956   1.840
 3615SOL     OW22906   0.443   6.648   1.632
 3615SOL    HW122907   0.462   6.672   1.537
 3615SOL    HW222908   0.436   6.731   1.687
 3616SOL     OW22909   0.104   6.938   1.106
 3616SOL    HW122910   0.073   6.864   1.047
 3616SOL    HW222911   0.036   6.956   1.177
 3617SOL     OW22912   1.190   6.139   0.839
 3617SOL    HW122913   1.272   6.116   0.787
 3617SOL    HW222914   1.185   6.080   0.920
 3618SOL     OW22915   1.790   6.166   1.675
 3618SOL    HW122916   1.779   6.252   1.624
 3618SOL    HW222917   1.884   6.157   1.705
 3619SOL     OW22918   1.361   5.939   1.094
 3619SOL    HW122919   1.335   6.036   1.100
 3619SOL    HW222920   1.361   5.899   1.186
 3620SOL     OW22921   1.591   6.071   1.845
 3620SOL    HW122922   1.671   6.096   1.789
 3620SOL    HW222923   1.622   6.036   1.933
 3621SOL     OW22924   1.302   6.374   0.425
 3621SOL    HW122925   1.248   6.372   0.509
 3621SOL    HW222926   1.379   6.437   0.436
 3622SOL     OW22927   1.599   6.470   0.645
 3622SOL    HW122928   1.613   6.433   0.552
 3622SOL    HW222929   1.510   6.440   0.679
 3623SOL     OW22930   1.755   6.407   1.540
 3623SOL    HW122931   1.657   6.428   1.542
 3623SOL    HW222932   1.804   6.483   1.499
 3624SOL     OW22933   0.756   7.042   1.439
 3624SOL    HW122934   0.693   7.120   1.446
 3624SOL    HW222935   0.724   6.980   1.367
 3625SOL     OW22936   0.147   5.837   1.704
 3625SOL    HW122937   0.165   5.826   1.606
 3625SOL    HW222938   0.049   5.833   1.721
 3626SOL     OW22939   0.027   7.251   1.648
 3626SOL    HW122940   0.099   7.237   1.716
 3626SOL    HW222941  -0.062   7.254   1.693
 3627SOL     OW22942   0.195   5.907   0.672
 3627SOL    HW122943   0.138   5.962   0.733
 3627SOL    HW222944   0.265   5.859   0.725
 3628SOL     OW22945   0.332   6.098   0.270
 3628SOL    HW122946   0.404   6.127   0.207
 3628SOL    HW222947   0.288   6.178   0.310
 3629SOL     OW22948   1.718   5.760   1.373
 3629SOL    HW122949   1.674   5.808   1.449
 3629SOL    HW222950   1.696   5.806   1.287
 3630SOL     OW22951   0.447   7.361   0.736
 3630SOL    HW122952   0.371   7.327   0.681
 3630SOL    HW222953   0.533   7.324   0.701
 3631SOL     OW22954   0.372   6.870   1.181
 3631SOL    HW122955   0.384   6.886   1.278
 3631SOL    HW222956   0.285   6.910   1.151
 3632SOL     OW22957   0.746   6.794   0.517
 3632SOL    HW122958   0.789   6.725   0.459
 3632SOL    HW222959   0.710   6.751   0.600
 3633SOL     OW22960   0.378   6.345   0.719
 3633SOL    HW122961   0.370   6.443   0.737
 3633SOL    HW222962   0.462   6.311   0.760
 3634SOL     OW22963   0.224   5.825   0.234
 3634SOL    HW122964   0.268   5.794   0.151
 3634SOL    HW222965   0.225   5.925   0.238
 3635SOL     OW22966   0.077   6.077   0.845
 3635SOL    HW122967   0.041   6.170   0.837
 3635SOL    HW222968   0.160   6.078   0.901
 3636SOL     OW22969   0.512   6.664   0.231
 3636SOL    HW122970   0.612   6.664   0.242
 3636SOL    HW222971   0.481   6.757   0.210
 3637SOL     OW22972   1.138   6.256   0.047
 3637SOL    HW122973   1.069   6.313   0.003
 3637SOL    HW222974   1.219   6.250  -0.012
 3638SOL     OW22975   0.873   6.175   0.190
 3638SOL    HW122976   0.963   6.176   0.145
 3638SOL    HW222977   0.850   6.081   0.215
 3639SOL     OW22978   1.324   5.692   0.484
 3639SOL    HW122979   1.234   5.676   0.525
 3639SOL    HW222980   1.332   5.788   0.458
 3640SOL     OW22981   1.438   6.092   1.500
 3640SOL    HW122982   1.390   6.115   1.584
 3640SOL    HW222983   1.372   6.062   1.431
 3641SOL     OW22984   0.073   5.607   0.144
 3641SOL    HW122985   0.136   5.530   0.152
 3641SOL    HW222986   0.093   5.675   0.215
 3642SOL     OW22987   0.346   6.582   1.145
 3642SOL    HW122988   0.357   6.537   1.234
 3642SOL    HW222989   0.373   6.678   1.152
 3643SOL     OW22990   1.645   6.594   0.245
 3643SOL    HW122991   1.716   6.664   0.247
 3643SOL    HW222992   1.632   6.564   0.150
 3644SOL     OW22993   0.627   6.195   1.167
 3644SOL    HW122994   0.702   6.238   1.216
 3644SOL    HW222995   0.560   6.160   1.233
 3645SOL     OW22996   0.770   6.564   1.484
 3645SOL    HW122997   0.839   6.616   1.434
 3645SOL    HW222998   0.765   6.597   1.579
 3646SOL     OW22999   1.162   6.585   1.644
 3646SOL    HW123000   1.084   6.531   1.677
 3646SOL    HW223001   1.243   6.563   1.699
 3647SOL     OW23002   1.091   5.767   0.640
 3647SOL    HW123003   1.150   5.827   0.695
 3647SOL    HW223004   1.018   5.731   0.697
 3648SOL     OW23005   0.619   5.644   0.911
 3648SOL    HW123006   0.547   5.577   0.897
 3648SOL    HW223007   0.701   5.598   0.946
 3649SOL     OW23008   0.319   7.309   1.278
 3649SOL    HW123009   0.299   7.291   1.182
 3649SOL    HW223010   0.246   7.271   1.335
 3650SOL     OW23011   1.012   6.773   0.823
 3650SOL    HW123012   1.051   6.816   0.742
 3650SOL    HW223013   1.085   6.756   0.890
 3651SOL     OW23014   0.706   6.501   1.025
 3651SOL    HW123015   0.704   6.417   0.970
 3651SOL    HW223016   0.655   6.487   1.110
 3652SOL     OW23017   0.045   6.511   1.151
 3652SOL    HW123018   0.134   6.489   1.191
 3652SOL    HW223019  -0.010   6.427   1.147
 3653SOL     OW23020   0.273   5.556   0.431
 3653SOL    HW123021   0.311   5.644   0.458
 3653SOL    HW223022   0.196   5.532   0.491
 3654SOL     OW23023   0.689   6.173   1.759
 3654SOL    HW123024   0.641   6.224   1.688
 3654SOL    HW223025   0.782   6.152   1.729
 3655SOL     OW23026   0.095   6.643   0.251
 3655SOL    HW123027   0.085   6.546   0.230
 3655SOL    HW223028   0.148   6.688   0.179
 3656SOL     OW23029   1.792   5.755   0.852
 3656SOL    HW123030   1.747   5.737   0.939
 3656SOL    HW223031   1.890   5.772   0.868
 3657SOL     OW23032   0.840   6.731   1.104
 3657SOL    HW123033   0.791   6.646   1.085
 3657SOL    HW223034   0.910   6.746   1.035
 3658SOL     OW23035   1.178   6.154   0.313
 3658SOL    HW123036   1.230   6.226   0.359
 3658SOL    HW223037   1.191   6.161   0.215
 3659SOL     OW23038   0.296   6.411   1.380
 3659SOL    HW123039   0.260   6.321   1.406
 3659SOL    HW223040   0.257   6.481   1.440
 3660SOL     OW23041   0.798   7.037   0.038
 3660SOL    HW123042   0.773   7.114   0.097
 3660SOL    HW223043   0.862   6.977   0.086
 3661SOL     OW23044   0.616   7.244   1.072
 3661SOL    HW123045   0.636   7.214   0.979
 3661SOL    HW223046   0.541   7.189   1.109
 3662SOL     OW23047   0.759   6.655   0.789
 3662SOL    HW123048   0.848   6.701   0.789
 3662SOL    HW223049   0.752   6.595   0.868
 3663SOL     OW23050   0.937   7.002   0.458
 3663SOL    HW123051   0.987   6.990   0.373
 3663SOL    HW223052   0.883   6.919   0.477
 3664SOL     OW23053   0.064   6.466   1.785
 3664SOL    HW123054  -0.021   6.417   1.766
 3664SOL    HW223055   0.091   6.453   1.880
 3665SOL     OW23056   1.190   6.722   1.021
 3665SOL    HW123057   1.174   6.816   1.052
 3665SOL    HW223058   1.193   6.661   1.101
 3666SOL     OW23059   0.464   5.993   1.785
 3666SOL    HW123060   0.500   5.940   1.708
 3666SOL    HW223061   0.525   6.070   1.803
 3667SOL     OW23062   0.528   6.410   0.357
 3667SOL    HW123063   0.478   6.475   0.301
 3667SOL    HW223064   0.470   6.331   0.376
 3668SOL     OW23065   1.609   6.441   1.055
 3668SOL    HW123066   1.628   6.480   0.964
 3668SOL    HW223067   1.563   6.510   1.111
 3669SOL     OW23068   1.301   5.884   1.351
 3669SOL    HW123069   1.372   5.856   1.415
 3669SOL    HW223070   1.248   5.804   1.323
 3670SOL     OW23071   0.002   5.583   0.552
 3670SOL    HW123072  -0.085   5.570   0.505
 3670SOL    HW223073   0.010   5.678   0.582
 3671SOL     OW23074   1.223   5.684   1.793
 3671SOL    HW123075   1.282   5.700   1.873
 3671SOL    HW223076   1.170   5.767   1.774
 3672SOL     OW23077   0.439   7.103   1.618
 3672SOL    HW123078   0.381   7.168   1.667
 3672SOL    HW223079   0.501   7.153   1.558
 3673SOL     OW23080   1.045   6.103   1.109
 3673SOL    HW123081   1.131   6.154   1.108
 3673SOL    HW223082   1.051   6.029   1.176
 3674SOL     OW23083   0.449   7.049   0.681
 3674SOL    HW123084   0.447   6.950   0.694
 3674SOL    HW223085   0.358   7.082   0.658
 3675SOL     OW23086   1.090   7.166   1.269
 3675SOL    HW123087   1.016   7.230   1.287
 3675SOL    HW223088   1.169   7.215   1.231
 3676SOL     OW23089   0.299   7.296   1.768
 3676SOL    HW123090   0.342   7.380   1.734
 3676SOL    HW223091   0.324   7.283   1.864
 3677SOL     OW23092   0.159   6.832   1.639
 3677SOL    HW123093   0.138   6.737   1.612
 3677SOL    HW223094   0.090   6.893   1.601
 3678SOL     OW23095   0.248   7.197   1.043
 3678SOL    HW123096   0.190   7.117   1.057
 3678SOL    HW223097   0.272   7.204   0.946
 3679SOL     OW23098   0.994   5.718   0.898
 3679SOL    HW123099   1.090   5.719   0.926
 3679SOL    HW223100   0.939   5.675   0.970
 3680SOL     OW23101   1.056   6.724   0.414
 3680SOL    HW123102   1.136   6.760   0.462
 3680SOL    HW223103   1.014   6.651   0.470
 3681SOL     OW23104   1.647   5.991   0.778
 3681SOL    HW123105   1.666   6.077   0.825
 3681SOL    HW223106   1.715   5.922   0.806
 3682SOL     OW23107   0.790   6.663   0.264
 3682SOL    HW123108   0.862   6.722   0.229
 3682SOL    HW223109   0.830   6.579   0.300
 3683SOL     OW23110   0.861   5.639   0.116
 3683SOL    HW123111   0.936   5.573   0.128
 3683SOL    HW223112   0.892   5.730   0.144
 3684SOL     OW23113   0.540   6.068   0.728
 3684SOL    HW123114   0.578   5.979   0.754
 3684SOL    HW223115   0.607   6.118   0.673
 3685SOL     OW23116   0.528   6.626   1.382
 3685SOL    HW123117   0.624   6.606   1.402
 3685SOL    HW223118   0.517   6.724   1.364
 3686SOL     OW23119   1.750   6.669   1.351
 3686SOL    HW123120   1.764   6.767   1.365
 3686SOL    HW223121   1.807   6.638   1.275
 3687SOL     OW23122   0.233   6.778   0.043
 3687SOL    HW123123   0.225   6.790  -0.056
 3687SOL    HW223124   0.292   6.849   0.081
 3688SOL     OW23125   0.660   7.217   0.203
 3688SOL    HW123126   0.635   7.312   0.187
 3688SOL    HW223127   0.627   7.189   0.293
 3689SOL     OW23128   1.310   6.640   1.427
 3689SOL    HW123129   1.254   6.599   1.498
 3689SOL    HW223130   1.290   6.738   1.421
 3690SOL     OW23131   0.577   7.256   1.427
 3690SOL    HW123132   0.626   7.336   1.391
 3690SOL    HW223133   0.485   7.254   1.388
 3691SOL     OW23134   0.220   6.137   1.789
 3691SOL    HW123135   0.237   6.038   1.794
 3691SOL    HW223136   0.284   6.185   1.850
 3692SOL     OW23137   1.659   7.098   1.028
 3692SOL    HW123138   1.631   7.191   1.052
 3692SOL    HW223139   1.709   7.057   1.104
 3693SOL     OW23140   0.564   6.269   1.527
 3693SOL    HW123141   0.470   6.239   1.508
 3693SOL    HW223142   0.573   6.366   1.504
 3694SOL     OW23143   1.631   6.645   0.839
 3694SOL    HW123144   1.593   6.734   0.812
 3694SOL    HW223145   1.631   6.583   0.761
 3695SOL     OW23146   0.789   6.051   1.008
 3695SOL    HW123147   0.881   6.079   1.035
 3695SOL    HW223148   0.721   6.102   1.062
 3696SOL     OW23149   0.642   6.902   1.235
 3696SOL    HW123150   0.555   6.901   1.186
 3696SOL    HW223151   0.708   6.842   1.188
 3697SOL     OW23152   0.208   6.244   1.149
 3697SOL    HW123153   0.246   6.303   1.220
 3697SOL    HW223154   0.191   6.297   1.067
 3698SOL     OW23155   0.379   6.890   1.447
 3698SOL    HW123156   0.398   6.978   1.491
 3698SOL    HW223157   0.284   6.864   1.465
 3699SOL     OW23158   1.330   6.744   0.516
 3699SOL    HW123159   1.429   6.748   0.532
 3699SOL    HW223160   1.313   6.730   0.418
 3700SOL     OW23161   0.683   5.910   0.464
 3700SOL    HW123162   0.585   5.904   0.444
 3700SOL    HW223163   0.702   5.867   0.552
 3701SOL     OW23164   1.603   5.593   0.723
 3701SOL    HW123165   1.598   5.634   0.632
 3701SOL    HW223166   1.684   5.627   0.770
 3702SOL     OW23167   1.206   6.349   1.416
 3702SOL    HW123168   1.305   6.358   1.406
 3702SOL    HW223169   1.162   6.351   1.326
 3703SOL     OW23170   0.700   6.309   0.818
 3703SOL    HW123171   0.722   6.231   0.876
 3703SOL    HW223172   0.709   6.283   0.722
 3704SOL     OW23173   1.365   7.016   1.030
 3704SOL    HW123174   1.279   6.973   1.059
 3704SOL    HW223175   1.354   7.056   0.939
 3705SOL     OW23176   1.368   6.001   0.705
 3705SOL    HW123177   1.367   5.993   0.606
 3705SOL    HW223178   1.457   5.973   0.740
 3706SOL     OW23179   1.606   6.813   2.395
 3706SOL    HW123180   1.617   6.897   2.449
 3706SOL    HW223181   1.696   6.776   2.372
 3707SOL     OW23182   1.686   6.095   3.259
 3707SOL    HW123183   1.588   6.087   3.281
 3707SOL    HW223184   1.739   6.084   3.343
 3708SOL     OW23185   0.353   5.732   1.864
 3708SOL    HW123186   0.266   5.729   1.815
 3708SOL    HW223187   0.404   5.814   1.836
 3709SOL     OW23188   0.956   6.412   3.574
 3709SOL    HW123189   0.921   6.387   3.484
 3709SOL    HW223190   0.880   6.433   3.635
 3710SOL     OW23191   0.563   7.086   2.268
 3710SOL    HW123192   0.519   7.095   2.357
 3710SOL    HW223193   0.634   7.016   2.272
 3711SOL     OW23194   0.581   5.619   1.990
 3711SOL    HW123195   0.669   5.647   1.951
 3711SOL    HW223196   0.509   5.682   1.960
 3712SOL     OW23197   1.551   6.604   3.373
 3712SOL    HW123198   1.459   6.609   3.335
 3712SOL    HW223199   1.616   6.642   3.307
 3713SOL     OW23200   1.451   6.611   3.054
 3713SOL    HW123201   1.376   6.600   3.119
 3713SOL    HW223202   1.488   6.704   3.060
 3714SOL     OW23203   0.947   6.866   3.354
 3714SOL    HW123204   0.890   6.929   3.300
 3714SOL    HW223205   0.980   6.792   3.295
 3715SOL     OW23206   0.490   6.759   2.563
 3715SOL    HW123207   0.423   6.713   2.622
 3715SOL    HW223208   0.582   6.727   2.586
 3716SOL     OW23209   0.717   6.165   2.394
 3716SOL    HW123210   0.756   6.235   2.335
 3716SOL    HW223211   0.691   6.085   2.340
 3717SOL     OW23212   1.337   6.073   3.603
 3717SOL    HW123213   1.433   6.077   3.629
 3717SOL    HW223214   1.293   5.997   3.650
 3718SOL     OW23215   0.420   6.928   2.047
 3718SOL    HW123216   0.484   6.944   1.972
 3718SOL    HW223217   0.444   6.986   2.125
 3719SOL     OW23218   0.571   5.884   2.857
 3719SOL    HW123219   0.647   5.949   2.853
 3719SOL    HW223220   0.601   5.795   2.824
 3720SOL     OW23221   0.268   6.310   2.275
 3720SOL    HW123222   0.283   6.244   2.349
 3720SOL    HW223223   0.218   6.389   2.310
 3721SOL     OW23224   1.746   7.137   2.194
 3721SOL    HW123225   1.842   7.111   2.187
 3721SOL    HW223226   1.722   7.197   2.118
 3722SOL     OW23227   1.658   5.830   2.965
 3722SOL    HW123228   1.709   5.902   2.918
 3722SOL    HW223229   1.563   5.857   2.974
 3723SOL     OW23230   1.058   5.859   2.234
 3723SOL    HW123231   1.083   5.953   2.255
 3723SOL    HW223232   1.059   5.805   2.318
 3724SOL     OW23233   0.182   6.572   3.419
 3724SOL    HW123234   0.278   6.587   3.437
 3724SOL    HW223235   0.144   6.510   3.488
 3725SOL     OW23236   0.508   6.217   1.962
 3725SOL    HW123237   0.468   6.296   1.915
 3725SOL    HW223238   0.597   6.196   1.922
 3726SOL     OW23239   1.023   6.173   3.414
 3726SOL    HW123240   1.056   6.090   3.461
 3726SOL    HW223241   1.096   6.241   3.413
 3727SOL     OW23242   1.627   6.973   2.636
 3727SOL    HW123243   1.623   7.008   2.729
 3727SOL    HW223244   1.686   7.032   2.580
 3728SOL     OW23245   0.358   6.794   2.312
 3728SOL    HW123246   0.404   6.768   2.397
 3728SOL    HW223247   0.378   6.726   2.241
 3729SOL     OW23248   1.216   5.849   2.023
 3729SOL    HW123249   1.310   5.819   2.041
 3729SOL    HW223250   1.164   5.849   2.109
 3730SOL     OW23251   0.368   6.054   3.118
 3730SOL    HW123252   0.358   5.967   3.070
 3730SOL    HW223253   0.304   6.121   3.081
 3731SOL     OW23254   1.450   6.334   3.156
 3731SOL    HW123255   1.454   6.428   3.121
 3731SOL    HW223256   1.543   6.303   3.178
 3732SOL     OW23257   0.403   5.826   2.277
 3732SOL    HW123258   0.357   5.866   2.356
 3732SOL    HW223259   0.351   5.845   2.195
 3733SOL     OW23260   1.531   7.353   3.189
 3733SOL    HW123261   1.474   7.304   3.123
 3733SOL    HW223262   1.617   7.380   3.146
 3734SOL     OW23263   1.826   6.071   3.044
 3734SOL    HW123264   1.883   6.153   3.046
 3734SOL    HW223265   1.767   6.070   3.124
 3735SOL     OW23266   1.843   7.297   2.957
 3735SOL    HW123267   1.889   7.307   3.045
 3735SOL    HW223268   1.910   7.300   2.884
 3736SOL     OW23269   0.956   6.037   2.519
 3736SOL    HW123270   1.032   6.065   2.578
 3736SOL    HW223271   0.912   6.117   2.480
 3737SOL     OW23272   1.191   6.501   2.036
 3737SOL    HW123273   1.228   6.451   2.114
 3737SOL    HW223274   1.121   6.446   1.991
 3738SOL     OW23275   1.033   5.923   3.657
 3738SOL    HW123276   1.096   5.928   3.734
 3738SOL    HW223277   0.941   5.901   3.690
 3739SOL     OW23278   1.774   6.170   2.115
 3739SOL    HW123279   1.795   6.089   2.061
 3739SOL    HW223280   1.791   6.151   2.212
 3740SOL     OW23281   0.749   5.575   3.555
 3740SOL    HW123282   0.756   5.481   3.522
 3740SOL    HW223283   0.806   5.585   3.637
 3741SOL     OW23284   1.672   6.176   2.823
 3741SOL    HW123285   1.657   6.267   2.860
 3741SOL    HW223286   1.742   6.129   2.877
 3742SOL     OW23287   1.082   6.842   3.589
 3742SOL    HW123288   1.104   6.752   3.551
 3742SOL    HW223289   1.017   6.889   3.530
 3743SOL     OW23290   0.737   6.684   3.593
 3743SOL    HW123291   0.708   6.761   3.650
 3743SOL    HW223292   0.747   6.603   3.651
 3744SOL     OW23293   1.372   5.548   2.699
 3744SOL    HW123294   1.321   5.632   2.681
 3744SOL    HW223295   1.458   5.550   2.648
 3745SOL     OW23296   1.727   5.754   3.628
 3745SOL    HW123297   1.704   5.775   3.723
 3745SOL    HW223298   1.703   5.659   3.608
 3746SOL     OW23299   0.030   6.158   2.372
 3746SOL    HW123300   0.032   6.109   2.459
 3746SOL    HW223301   0.032   6.257   2.390
 3747SOL     OW23302   0.351   5.746   2.693
 3747SOL    HW123303   0.403   5.786   2.768
 3747SOL    HW223304   0.404   5.673   2.650
 3748SOL     OW23305   0.335   5.794   3.027
 3748SOL    HW123306   0.300   5.701   3.027
 3748SOL    HW223307   0.422   5.797   2.978
 3749SOL     OW23308   1.002   6.416   2.767
 3749SOL    HW123309   1.028   6.496   2.713
 3749SOL    HW223310   0.996   6.336   2.707
 3750SOL     OW23311   0.203   7.043   2.226
 3750SOL    HW123312   0.230   6.949   2.246
 3750SOL    HW223313   0.228   7.065   2.132
 3751SOL     OW23314   1.485   6.912   3.100
 3751SOL    HW123315   1.456   6.949   3.011
 3751SOL    HW223316   1.407   6.912   3.162
 3752SOL     OW23317   0.217   7.186   2.463
 3752SOL    HW123318   0.133   7.237   2.481
 3752SOL    HW223319   0.208   7.135   2.378
 3753SOL     OW23320   1.738   6.983   3.138
 3753SOL    HW123321   1.769   6.997   3.232
 3753SOL    HW223322   1.639   6.970   3.137
 3754SOL     OW23323   0.490   6.483   1.865
 3754SOL    HW123324   0.459   6.517   1.777
 3754SOL    HW223325   0.494   6.558   1.931
 3755SOL     OW23326   1.007   6.670   3.164
 3755SOL    HW123327   1.057   6.585   3.148
 3755SOL    HW223328   0.961   6.697   3.079
 3756SOL     OW23329   0.094   6.375   2.038
 3756SOL    HW123330   0.154   6.322   2.098
 3756SOL    HW223331   0.000   6.343   2.050
 3757SOL     OW23332   1.614   6.373   2.238
 3757SOL    HW123333   1.682   6.307   2.205
 3757SOL    HW223334   1.629   6.461   2.194
 3758SOL     OW23335   0.769   6.429   1.922
 3758SOL    HW123336   0.798   6.348   1.973
 3758SOL    HW223337   0.669   6.428   1.913
 3759SOL     OW23338   1.365   5.961   2.268
 3759SOL    HW123339   1.302   6.019   2.216
 3759SOL    HW223340   1.458   5.995   2.256
 3760SOL     OW23341   0.262   6.162   3.368
 3760SOL    HW123342   0.282   6.067   3.343
 3760SOL    HW223343   0.225   6.165   3.461
 3761SOL     OW23344   0.144   5.817   3.258
 3761SOL    HW123345   0.216   5.827   3.189
 3761SOL    HW223346   0.055   5.816   3.213
 3762SOL     OW23347   1.042   6.438   3.023
 3762SOL    HW123348   1.036   6.424   2.924
 3762SOL    HW223349   0.961   6.399   3.067
 3763SOL     OW23350   1.633   5.972   2.338
 3763SOL    HW123351   1.729   5.943   2.335
 3763SOL    HW223352   1.594   5.950   2.427
 3764SOL     OW23353   0.867   5.913   2.060
 3764SOL    HW123354   0.776   5.926   2.098
 3764SOL    HW223355   0.927   5.873   2.130
 3765SOL     OW23356   1.729   7.153   2.480
 3765SOL    HW123357   1.696   7.246   2.499
 3765SOL    HW223358   1.727   7.137   2.381
 3766SOL     OW23359   1.144   6.426   2.469
 3766SOL    HW123360   1.209   6.454   2.540
 3766SOL    HW223361   1.065   6.487   2.471
 3767SOL     OW23362   0.892   7.152   3.493
 3767SOL    HW123363   0.880   7.083   3.422
 3767SOL    HW223364   0.855   7.117   3.580
 3768SOL     OW23365   1.336   6.466   2.672
 3768SOL    HW123366   1.357   6.408   2.750
 3768SOL    HW223367   1.345   6.562   2.698
 3769SOL     OW23368   0.292   6.595   2.718
 3769SOL    HW123369   0.215   6.657   2.711
 3769SOL    HW223370   0.329   6.596   2.811
 3770SOL     OW23371   0.925   6.543   2.417
 3770SOL    HW123372   0.912   6.454   2.374
 3770SOL    HW223373   0.856   6.557   2.488
 3771SOL     OW23374   1.229   6.931   3.256
 3771SOL    HW123375   1.262   7.016   3.297
 3771SOL    HW223376   1.130   6.927   3.263
 3772SOL     OW23377   0.036   5.848   2.320
 3772SOL    HW123378   0.096   5.799   2.258
 3772SOL    HW223379   0.091   5.900   2.385
 3773SOL     OW23380   1.659   7.346   2.011
 3773SOL    HW123381   1.749   7.390   2.013
 3773SOL    HW223382   1.658   7.277   1.939
 3774SOL     OW23383   0.823   6.313   3.169
 3774SOL    HW123384   0.825   6.399   3.220
 3774SOL    HW223385   0.880   6.245   3.216
 3775SOL     OW23386   0.060   7.340   3.240
 3775SOL    HW123387   0.068   7.440   3.238
 3775SOL    HW223388   0.036   7.311   3.333
 3776SOL     OW23389   0.841   6.359   2.234
 3776SOL    HW123390   0.752   6.387   2.199
 3776SOL    HW223391   0.882   6.293   2.170
 3777SOL     OW23392   0.363   6.077   2.773
 3777SOL    HW123393   0.419   6.070   2.690
 3777SOL    HW223394   0.420   6.055   2.853
 3778SOL     OW23395   0.360   7.275   2.044
 3778SOL    HW123396   0.452   7.305   2.019
 3778SOL    HW223397   0.335   7.314   2.133
 3779SOL     OW23398   0.041   6.692   2.793
 3779SOL    HW123399  -0.049   6.708   2.754
 3779SOL    HW223400   0.039   6.608   2.848
 3780SOL     OW23401   0.792   5.597   2.243
 3780SOL    HW123402   0.753   5.586   2.152
 3780SOL    HW223403   0.748   5.673   2.290
 3781SOL     OW23404   0.037   6.733   2.337
 3781SOL    HW123405   0.115   6.791   2.361
 3781SOL    HW223406   0.056   6.684   2.252
 3782SOL     OW23407   1.567   5.861   3.421
 3782SOL    HW123408   1.506   5.939   3.418
 3782SOL    HW223409   1.622   5.865   3.504
 3783SOL     OW23410   1.283   5.807   2.712
 3783SOL    HW123411   1.282   5.885   2.649
 3783SOL    HW223412   1.326   5.834   2.798
 3784SOL     OW23413   1.403   5.613   2.008
 3784SOL    HW123414   1.483   5.553   2.005
 3784SOL    HW223415   1.329   5.566   2.056
 3785SOL     OW23416   0.718   5.844   2.574
 3785SOL    HW123417   0.707   5.786   2.655
 3785SOL    HW223418   0.803   5.896   2.582
 3786SOL     OW23419   1.298   6.195   2.966
 3786SOL    HW123420   1.352   6.235   2.892
 3786SOL    HW223421   1.336   6.224   3.054
 3787SOL     OW23422   1.591   5.601   2.282
 3787SOL    HW123423   1.598   5.555   2.194
 3787SOL    HW223424   1.495   5.611   2.307
 3788SOL     OW23425   0.567   6.916   3.645
 3788SOL    HW123426   0.528   6.979   3.578
 3788SOL    HW223427   0.650   6.956   3.685
 3789SOL     OW23428   0.443   6.648   3.477
 3789SOL    HW123429   0.462   6.672   3.382
 3789SOL    HW223430   0.436   6.731   3.532
 3790SOL     OW23431   0.104   6.938   2.951
 3790SOL    HW123432   0.073   6.864   2.892
 3790SOL    HW223433   0.036   6.956   3.022
 3791SOL     OW23434   1.190   6.139   2.684
 3791SOL    HW123435   1.272   6.116   2.632
 3791SOL    HW223436   1.185   6.080   2.765
 3792SOL     OW23437   1.790   6.166   3.520
 3792SOL    HW123438   1.779   6.252   3.469
 3792SOL    HW223439   1.884   6.157   3.550
 3793SOL     OW23440   1.591   6.071   3.690
 3793SOL    HW123441   1.671   6.096   3.634
 3793SOL    HW223442   1.622   6.036   3.778
 3794SOL     OW23443   1.302   6.374   2.270
 3794SOL    HW123444   1.248   6.372   2.354
 3794SOL    HW223445   1.379   6.437   2.281
 3795SOL     OW23446   1.599   6.470   2.490
 3795SOL    HW123447   1.613   6.433   2.397
 3795SOL    HW223448   1.510   6.440   2.524
 3796SOL     OW23449   1.755   6.407   3.385
 3796SOL    HW123450   1.657   6.428   3.387
 3796SOL    HW223451   1.804   6.483   3.344
 3797SOL     OW23452   1.609   5.827   2.064
 3797SOL    HW123453   1.614   5.869   2.155
 3797SOL    HW223454   1.542   5.752   2.066
 3798SOL     OW23455   0.756   7.042   3.284
 3798SOL    HW123456   0.693   7.120   3.291
 3798SOL    HW223457   0.724   6.980   3.212
 3799SOL     OW23458   0.147   5.837   3.549
 3799SOL    HW123459   0.165   5.826   3.451
 3799SOL    HW223460   0.049   5.833   3.566
 3800SOL     OW23461   0.027   7.251   3.493
 3800SOL    HW123462   0.099   7.237   3.561
 3800SOL    HW223463  -0.062   7.254   3.538
 3801SOL     OW23464   0.195   5.907   2.517
 3801SOL    HW123465   0.138   5.962   2.578
 3801SOL    HW223466   0.265   5.859   2.570
 3802SOL     OW23467   1.367   7.139   3.380
 3802SOL    HW123468   1.320   7.207   3.435
 3802SOL    HW223469   1.434   7.185   3.321
 3803SOL     OW23470   0.332   6.098   2.115
 3803SOL    HW123471   0.404   6.127   2.052
 3803SOL    HW223472   0.288   6.178   2.155
 3804SOL     OW23473   0.447   7.361   2.581
 3804SOL    HW123474   0.371   7.327   2.526
 3804SOL    HW223475   0.533   7.324   2.546
 3805SOL     OW23476   0.372   6.870   3.026
 3805SOL    HW123477   0.384   6.886   3.123
 3805SOL    HW223478   0.285   6.910   2.996
 3806SOL     OW23479   1.256   7.074   3.672
 3806SOL    HW123480   1.215   6.989   3.638
 3806SOL    HW223481   1.236   7.148   3.608
 3807SOL     OW23482   0.746   6.794   2.362
 3807SOL    HW123483   0.789   6.725   2.304
 3807SOL    HW223484   0.710   6.751   2.445
 3808SOL     OW23485   0.378   6.345   2.564
 3808SOL    HW123486   0.370   6.443   2.582
 3808SOL    HW223487   0.462   6.311   2.605
 3809SOL     OW23488   0.224   5.825   2.079
 3809SOL    HW123489   0.268   5.794   1.996
 3809SOL    HW223490   0.225   5.925   2.083
 3810SOL     OW23491   0.077   6.077   2.690
 3810SOL    HW123492   0.041   6.170   2.682
 3810SOL    HW223493   0.160   6.078   2.746
 3811SOL     OW23494   0.512   6.664   2.076
 3811SOL    HW123495   0.612   6.664   2.087
 3811SOL    HW223496   0.481   6.757   2.055
 3812SOL     OW23497   1.138   6.256   1.892
 3812SOL    HW123498   1.069   6.313   1.848
 3812SOL    HW223499   1.219   6.250   1.833
 3813SOL     OW23500   0.873   6.175   2.035
 3813SOL    HW123501   0.963   6.176   1.990
 3813SOL    HW223502   0.850   6.081   2.060
 3814SOL     OW23503   1.324   5.692   2.329
 3814SOL    HW123504   1.234   5.676   2.370
 3814SOL    HW223505   1.332   5.788   2.303
 3815SOL     OW23506   1.438   6.092   3.345
 3815SOL    HW123507   1.390   6.115   3.429
 3815SOL    HW223508   1.372   6.062   3.276
 3816SOL     OW23509   0.073   5.607   1.989
 3816SOL    HW123510   0.136   5.530   1.997
 3816SOL    HW223511   0.093   5.675   2.060
 3817SOL     OW23512   0.346   6.582   2.990
 3817SOL    HW123513   0.357   6.537   3.079
 3817SOL    HW223514   0.373   6.678   2.997
 3818SOL     OW23515   1.645   6.594   2.090
 3818SOL    HW123516   1.716   6.664   2.092
 3818SOL    HW223517   1.632   6.564   1.995
 3819SOL     OW23518   0.627   6.195   3.012
 3819SOL    HW123519   0.702   6.238   3.061
 3819SOL    HW223520   0.560   6.160   3.078
 3820SOL     OW23521   0.770   6.564   3.329
 3820SOL    HW123522   0.839   6.616   3.279
 3820SOL    HW223523   0.765   6.597   3.424
 3821SOL     OW23524   1.162   6.585   3.489
 3821SOL    HW123525   1.084   6.531   3.522
 3821SOL    HW223526   1.243   6.563   3.544
 3822SOL     OW23527   1.091   5.767   2.485
 3822SOL    HW123528   1.150   5.827   2.540
 3822SOL    HW223529   1.018   5.731   2.542
 3823SOL     OW23530   1.201   7.299   3.525
 3823SOL    HW123531   1.106   7.297   3.493
 3823SOL    HW223532   1.222   7.390   3.562
 3824SOL     OW23533   0.619   5.644   2.756
 3824SOL    HW123534   0.547   5.577   2.742
 3824SOL    HW223535   0.701   5.598   2.791
 3825SOL     OW23536   1.012   6.773   2.668
 3825SOL    HW123537   1.051   6.816   2.587
 3825SOL    HW223538   1.085   6.756   2.735
 3826SOL     OW23539   0.706   6.501   2.870
 3826SOL    HW123540   0.704   6.417   2.815
 3826SOL    HW223541   0.655   6.487   2.955
 3827SOL     OW23542   0.045   6.511   2.996
 3827SOL    HW123543   0.134   6.489   3.036
 3827SOL    HW223544  -0.010   6.427   2.992
 3828SOL     OW23545   0.273   5.556   2.276
 3828SOL    HW123546   0.311   5.644   2.303
 3828SOL    HW223547   0.196   5.532   2.336
 3829SOL     OW23548   0.689   6.173   3.604
 3829SOL    HW123549   0.641   6.224   3.533
 3829SOL    HW223550   0.782   6.152   3.574
 3830SOL     OW23551   0.095   6.643   2.096
 3830SOL    HW123552   0.085   6.546   2.075
 3830SOL    HW223553   0.148   6.688   2.024
 3831SOL     OW23554   1.792   5.755   2.697
 3831SOL    HW123555   1.747   5.737   2.784
 3831SOL    HW223556   1.890   5.772   2.713
 3832SOL     OW23557   0.840   6.731   2.949
 3832SOL    HW123558   0.791   6.646   2.930
 3832SOL    HW223559   0.910   6.746   2.880
 3833SOL     OW23560   1.178   6.154   2.158
 3833SOL    HW123561   1.230   6.226   2.204
 3833SOL    HW223562   1.191   6.161   2.060
 3834SOL     OW23563   1.539   6.969   3.485
 3834SOL    HW123564   1.524   6.871   3.499
 3834SOL    HW223565   1.456   7.011   3.449
 3835SOL     OW23566   0.296   6.411   3.225
 3835SOL    HW123567   0.260   6.321   3.251
 3835SOL    HW223568   0.257   6.481   3.285
 3836SOL     OW23569   0.798   7.037   1.883
 3836SOL    HW123570   0.773   7.114   1.942
 3836SOL    HW223571   0.862   6.977   1.931
 3837SOL     OW23572   0.759   6.655   2.634
 3837SOL    HW123573   0.848   6.701   2.634
 3837SOL    HW223574   0.752   6.595   2.713
 3838SOL     OW23575   0.127   6.349   2.703
 3838SOL    HW123576   0.222   6.340   2.671
 3838SOL    HW223577   0.093   6.441   2.682
 3839SOL     OW23578   0.064   6.466   3.630
 3839SOL    HW123579  -0.021   6.417   3.611
 3839SOL    HW223580   0.091   6.453   3.725
 3840SOL     OW23581   0.961   7.375   3.336
 3840SOL    HW123582   0.933   7.288   3.377
 3840SOL    HW223583   0.905   7.449   3.373
 3841SOL     OW23584   0.464   5.993   3.630
 3841SOL    HW123585   0.500   5.940   3.553
 3841SOL    HW223586   0.525   6.070   3.648
 3842SOL     OW23587   0.528   6.410   2.202
 3842SOL    HW123588   0.478   6.475   2.146
 3842SOL    HW223589   0.470   6.331   2.221
 3843SOL     OW23590   1.609   6.441   2.900
 3843SOL    HW123591   1.628   6.480   2.809
 3843SOL    HW223592   1.563   6.510   2.956
 3844SOL     OW23593   0.002   5.583   2.397
 3844SOL    HW123594  -0.085   5.570   2.350
 3844SOL    HW223595   0.010   5.678   2.427
 3845SOL     OW23596   1.223   5.684   3.638
 3845SOL    HW123597   1.282   5.700   3.718
 3845SOL    HW223598   1.170   5.767   3.619
 3846SOL     OW23599   0.439   7.103   3.463
 3846SOL    HW123600   0.381   7.168   3.512
 3846SOL    HW223601   0.501   7.153   3.403
 3847SOL     OW23602   1.795   6.990   3.404
 3847SOL    HW123603   1.823   7.083   3.426
 3847SOL    HW223604   1.702   6.974   3.437
 3848SOL     OW23605   1.045   6.103   2.954
 3848SOL    HW123606   1.131   6.154   2.953
 3848SOL    HW223607   1.051   6.029   3.021
 3849SOL     OW23608   0.449   7.049   2.526
 3849SOL    HW123609   0.447   6.950   2.539
 3849SOL    HW223610   0.358   7.082   2.503
 3850SOL     OW23611   0.299   7.296   3.613
 3850SOL    HW123612   0.342   7.380   3.579
 3850SOL    HW223613   0.324   7.283   3.709
 3851SOL     OW23614   0.159   6.832   3.484
 3851SOL    HW123615   0.138   6.737   3.457
 3851SOL    HW223616   0.090   6.893   3.446
 3852SOL     OW23617   0.248   7.197   2.888
 3852SOL    HW123618   0.190   7.117   2.902
 3852SOL    HW223619   0.272   7.204   2.791
 3853SOL     OW23620   0.994   5.718   2.743
 3853SOL    HW123621   1.090   5.719   2.771
 3853SOL    HW223622   0.939   5.675   2.815
 3854SOL     OW23623   1.056   6.724   2.259
 3854SOL    HW123624   1.136   6.760   2.307
 3854SOL    HW223625   1.014   6.651   2.315
 3855SOL     OW23626   1.647   5.991   2.623
 3855SOL    HW123627   1.666   6.077   2.670
 3855SOL    HW223628   1.715   5.922   2.651
 3856SOL     OW23629   0.790   6.663   2.109
 3856SOL    HW123630   0.862   6.722   2.074
 3856SOL    HW223631   0.830   6.579   2.145
 3857SOL     OW23632   0.861   5.639   1.961
 3857SOL    HW123633   0.936   5.573   1.973
 3857SOL    HW223634   0.892   5.730   1.989
 3858SOL     OW23635   0.540   6.068   2.573
 3858SOL    HW123636   0.578   5.979   2.599
 3858SOL    HW223637   0.607   6.118   2.518
 3859SOL     OW23638   0.528   6.626   3.227
 3859SOL    HW123639   0.624   6.606   3.247
 3859SOL    HW223640   0.517   6.724   3.209
 3860SOL     OW23641   1.750   6.669   3.196
 3860SOL    HW123642   1.764   6.767   3.210
 3860SOL    HW223643   1.807   6.638   3.120
 3861SOL     OW23644   0.233   6.778   1.888
 3861SOL    HW123645   0.225   6.790   1.789
 3861SOL    HW223646   0.292   6.849   1.926
 3862SOL     OW23647   0.660   7.217   2.048
 3862SOL    HW123648   0.635   7.312   2.032
 3862SOL    HW223649   0.627   7.189   2.138
 3863SOL     OW23650   1.310   6.640   3.272
 3863SOL    HW123651   1.254   6.599   3.343
 3863SOL    HW223652   1.290   6.738   3.266
 3864SOL     OW23653   0.577   7.256   3.272
 3864SOL    HW123654   0.626   7.336   3.236
 3864SOL    HW223655   0.485   7.254   3.233
 3865SOL     OW23656   0.220   6.137   3.634
 3865SOL    HW123657   0.237   6.038   3.639
 3865SOL    HW223658   0.284   6.185   3.695
 3866SOL     OW23659   1.659   7.098   2.873
 3866SOL    HW123660   1.631   7.191   2.897
 3866SOL    HW223661   1.709   7.057   2.949
 3867SOL     OW23662   0.055   6.471   2.434
 3867SOL    HW123663   0.062   6.570   2.421
 3867SOL    HW223664  -0.036   6.448   2.468
 3868SOL     OW23665   0.564   6.269   3.372
 3868SOL    HW123666   0.470   6.239   3.353
 3868SOL    HW223667   0.573   6.366   3.349
 3869SOL     OW23668   1.631   6.645   2.684
 3869SOL    HW123669   1.593   6.734   2.657
 3869SOL    HW223670   1.631   6.583   2.606
 3870SOL     OW23671   0.789   6.051   2.853
 3870SOL    HW123672   0.881   6.079   2.880
 3870SOL    HW223673   0.721   6.102   2.907
 3871SOL     OW23674   0.642   6.902   3.080
 3871SOL    HW123675   0.555   6.901   3.031
 3871SOL    HW223676   0.708   6.842   3.033
 3872SOL     OW23677   0.208   6.244   2.994
 3872SOL    HW123678   0.246   6.303   3.065
 3872SOL    HW223679   0.191   6.297   2.912
 3873SOL     OW23680   0.379   6.890   3.292
 3873SOL    HW123681   0.398   6.978   3.336
 3873SOL    HW223682   0.284   6.864   3.310
 3874SOL     OW23683   1.622   7.206   3.640
 3874SOL    HW123684   1.591   7.128   3.585
 3874SOL    HW223685   1.591   7.291   3.598
 3875SOL     OW23686   0.683   5.910   2.309
 3875SOL    HW123687   0.585   5.904   2.289
 3875SOL    HW223688   0.702   5.867   2.397
 3876SOL     OW23689   1.603   5.593   2.568
 3876SOL    HW123690   1.598   5.634   2.477
 3876SOL    HW223691   1.684   5.627   2.615
 3877SOL     OW23692   1.206   6.349   3.261
 3877SOL    HW123693   1.305   6.358   3.251
 3877SOL    HW223694   1.162   6.351   3.171
 3878SOL     OW23695   0.700   6.309   2.663
 3878SOL    HW123696   0.722   6.231   2.721
 3878SOL    HW223697   0.709   6.283   2.567
 3879SOL     OW23698   1.368   6.001   2.550
 3879SOL    HW123699   1.367   5.993   2.451
 3879SOL    HW223700   1.457   5.973   2.585
 3880SOL     OW23701   1.095   7.017   4.383
 3880SOL    HW123702   1.186   7.051   4.406
 3880SOL    HW223703   1.067   7.055   4.295
 3881SOL     OW23704   1.606   6.813   4.241
 3881SOL    HW123705   1.617   6.897   4.295
 3881SOL    HW223706   1.696   6.776   4.218
 3882SOL     OW23707   1.686   6.095   5.105
 3882SOL    HW123708   1.588   6.087   5.127
 3882SOL    HW223709   1.739   6.084   5.189
 3883SOL     OW23710   0.353   5.732   3.710
 3883SOL    HW123711   0.266   5.729   3.661
 3883SOL    HW223712   0.404   5.814   3.682
 3884SOL     OW23713   1.340   7.121   4.485
 3884SOL    HW123714   1.329   7.218   4.508
 3884SOL    HW223715   1.433   7.104   4.455
 3885SOL     OW23716   1.218   5.632   5.043
 3885SOL    HW123717   1.142   5.587   5.090
 3885SOL    HW223718   1.247   5.577   4.965
 3886SOL     OW23719   0.956   6.412   5.420
 3886SOL    HW123720   0.921   6.387   5.330
 3886SOL    HW223721   0.880   6.433   5.481
 3887SOL     OW23722   0.563   7.086   4.114
 3887SOL    HW123723   0.519   7.095   4.203
 3887SOL    HW223724   0.634   7.016   4.118
 3888SOL     OW23725   0.581   5.619   3.836
 3888SOL    HW123726   0.669   5.647   3.797
 3888SOL    HW223727   0.509   5.682   3.806
 3889SOL     OW23728   1.551   6.604   5.219
 3889SOL    HW123729   1.459   6.609   5.181
 3889SOL    HW223730   1.616   6.642   5.153
 3890SOL     OW23731   1.451   6.611   4.900
 3890SOL    HW123732   1.376   6.600   4.965
 3890SOL    HW223733   1.488   6.704   4.906
 3891SOL     OW23734   0.947   6.866   5.200
 3891SOL    HW123735   0.890   6.929   5.146
 3891SOL    HW223736   0.980   6.792   5.141
 3892SOL     OW23737   0.490   6.759   4.409
 3892SOL    HW123738   0.423   6.713   4.468
 3892SOL    HW223739   0.582   6.727   4.432
 3893SOL     OW23740   0.717   6.165   4.240
 3893SOL    HW123741   0.756   6.235   4.181
 3893SOL    HW223742   0.691   6.085   4.186
 3894SOL     OW23743   1.337   6.073   5.449
 3894SOL    HW123744   1.433   6.077   5.475
 3894SOL    HW223745   1.293   5.997   5.496
 3895SOL     OW23746   0.420   6.928   3.893
 3895SOL    HW123747   0.484   6.944   3.818
 3895SOL    HW223748   0.444   6.986   3.971
 3896SOL     OW23749   0.571   5.884   4.703
 3896SOL    HW123750   0.647   5.949   4.699
 3896SOL    HW223751   0.601   5.795   4.670
 3897SOL     OW23752   0.268   6.310   4.121
 3897SOL    HW123753   0.283   6.244   4.195
 3897SOL    HW223754   0.218   6.389   4.156
 3898SOL     OW23755   0.854   7.255   4.298
 3898SOL    HW123756   0.919   7.188   4.262
 3898SOL    HW223757   0.844   7.331   4.234
 3899SOL     OW23758   1.746   7.137   4.040
 3899SOL    HW123759   1.842   7.111   4.033
 3899SOL    HW223760   1.722   7.197   3.964
 3900SOL     OW23761   1.658   5.830   4.811
 3900SOL    HW123762   1.709   5.902   4.764
 3900SOL    HW223763   1.563   5.857   4.820
 3901SOL     OW23764   1.058   5.859   4.080
 3901SOL    HW123765   1.083   5.953   4.101
 3901SOL    HW223766   1.059   5.805   4.164
 3902SOL     OW23767   0.182   6.572   5.265
 3902SOL    HW123768   0.278   6.587   5.283
 3902SOL    HW223769   0.144   6.510   5.334
 3903SOL     OW23770   0.681   7.141   4.506
 3903SOL    HW123771   0.754   7.164   4.442
 3903SOL    HW223772   0.610   7.088   4.460
 3904SOL     OW23773   1.023   6.173   5.260
 3904SOL    HW123774   1.056   6.090   5.307
 3904SOL    HW223775   1.096   6.241   5.259
 3905SOL     OW23776   1.627   6.973   4.482
 3905SOL    HW123777   1.623   7.008   4.575
 3905SOL    HW223778   1.686   7.032   4.426
 3906SOL     OW23779   0.358   6.794   4.158
 3906SOL    HW123780   0.404   6.768   4.243
 3906SOL    HW223781   0.378   6.726   4.087
 3907SOL     OW23782   1.216   5.849   3.869
 3907SOL    HW123783   1.310   5.819   3.887
 3907SOL    HW223784   1.164   5.849   3.955
 3908SOL     OW23785   0.368   6.054   4.964
 3908SOL    HW123786   0.358   5.967   4.916
 3908SOL    HW223787   0.304   6.121   4.927
 3909SOL     OW23788   1.450   6.334   5.002
 3909SOL    HW123789   1.454   6.428   4.967
 3909SOL    HW223790   1.543   6.303   5.024
 3910SOL     OW23791   0.403   5.826   4.123
 3910SOL    HW123792   0.357   5.866   4.202
 3910SOL    HW223793   0.351   5.845   4.041
 3911SOL     OW23794   1.531   7.353   5.035
 3911SOL    HW123795   1.474   7.304   4.969
 3911SOL    HW223796   1.617   7.380   4.992
 3912SOL     OW23797   1.826   6.071   4.890
 3912SOL    HW123798   1.883   6.153   4.892
 3912SOL    HW223799   1.767   6.070   4.970
 3913SOL     OW23800   1.843   7.297   4.803
 3913SOL    HW123801   1.889   7.307   4.891
 3913SOL    HW223802   1.910   7.300   4.730
 3914SOL     OW23803   0.956   6.037   4.365
 3914SOL    HW123804   1.032   6.065   4.424
 3914SOL    HW223805   0.912   6.117   4.326
 3915SOL     OW23806   1.191   6.501   3.882
 3915SOL    HW123807   1.228   6.451   3.960
 3915SOL    HW223808   1.121   6.446   3.837
 3916SOL     OW23809   1.774   6.170   3.961
 3916SOL    HW123810   1.795   6.089   3.907
 3916SOL    HW223811   1.791   6.151   4.058
 3917SOL     OW23812   1.068   7.308   3.869
 3917SOL    HW123813   1.102   7.221   3.834
 3917SOL    HW223814   1.036   7.296   3.963
 3918SOL     OW23815   0.749   5.575   5.401
 3918SOL    HW123816   0.756   5.481   5.368
 3918SOL    HW223817   0.806   5.585   5.483
 3919SOL     OW23818   1.672   6.176   4.669
 3919SOL    HW123819   1.657   6.267   4.706
 3919SOL    HW223820   1.742   6.129   4.723
 3920SOL     OW23821   1.082   6.842   5.435
 3920SOL    HW123822   1.104   6.752   5.397
 3920SOL    HW223823   1.017   6.889   5.376
 3921SOL     OW23824   0.737   6.684   5.439
 3921SOL    HW123825   0.708   6.761   5.496
 3921SOL    HW223826   0.747   6.603   5.497
 3922SOL     OW23827   1.372   5.548   4.545
 3922SOL    HW123828   1.321   5.632   4.527
 3922SOL    HW223829   1.458   5.550   4.494
 3923SOL     OW23830   1.727   5.754   5.474
 3923SOL    HW123831   1.704   5.775   5.569
 3923SOL    HW223832   1.703   5.659   5.454
 3924SOL     OW23833   0.030   6.158   4.218
 3924SOL    HW123834   0.032   6.109   4.305
 3924SOL    HW223835   0.032   6.257   4.236
 3925SOL     OW23836   0.351   5.746   4.539
 3925SOL    HW123837   0.403   5.786   4.614
 3925SOL    HW223838   0.404   5.673   4.496
 3926SOL     OW23839   0.335   5.794   4.873
 3926SOL    HW123840   0.300   5.701   4.873
 3926SOL    HW223841   0.422   5.797   4.824
 3927SOL     OW23842   1.002   6.416   4.613
 3927SOL    HW123843   1.028   6.496   4.559
 3927SOL    HW223844   0.996   6.336   4.553
 3928SOL     OW23845   0.203   7.043   4.072
 3928SOL    HW123846   0.230   6.949   4.092
 3928SOL    HW223847   0.228   7.065   3.978
 3929SOL     OW23848   1.485   6.912   4.946
 3929SOL    HW123849   1.456   6.949   4.857
 3929SOL    HW223850   1.407   6.912   5.008
 3930SOL     OW23851   0.217   7.186   4.309
 3930SOL    HW123852   0.133   7.237   4.327
 3930SOL    HW223853   0.208   7.135   4.224
 3931SOL     OW23854   1.738   6.983   4.984
 3931SOL    HW123855   1.769   6.997   5.078
 3931SOL    HW223856   1.639   6.970   4.983
 3932SOL     OW23857   0.490   6.483   3.711
 3932SOL    HW123858   0.459   6.517   3.623
 3932SOL    HW223859   0.494   6.558   3.777
 3933SOL     OW23860   1.007   6.670   5.010
 3933SOL    HW123861   1.057   6.585   4.994
 3933SOL    HW223862   0.961   6.697   4.925
 3934SOL     OW23863   0.094   6.375   3.884
 3934SOL    HW123864   0.154   6.322   3.944
 3934SOL    HW223865   0.000   6.343   3.896
 3935SOL     OW23866   1.614   6.373   4.084
 3935SOL    HW123867   1.682   6.307   4.051
 3935SOL    HW223868   1.629   6.461   4.040
 3936SOL     OW23869   0.862   7.360   4.732
 3936SOL    HW123870   0.908   7.293   4.674
 3936SOL    HW223871   0.788   7.316   4.782
 3937SOL     OW23872   1.365   5.961   4.114
 3937SOL    HW123873   1.302   6.019   4.062
 3937SOL    HW223874   1.458   5.995   4.102
 3938SOL     OW23875   0.262   6.162   5.214
 3938SOL    HW123876   0.282   6.067   5.189
 3938SOL    HW223877   0.225   6.165   5.307
 3939SOL     OW23878   0.144   5.817   5.104
 3939SOL    HW123879   0.216   5.827   5.035
 3939SOL    HW223880   0.055   5.816   5.059
 3940SOL     OW23881   1.042   6.438   4.869
 3940SOL    HW123882   1.036   6.424   4.770
 3940SOL    HW223883   0.961   6.399   4.913
 3941SOL     OW23884   1.633   5.972   4.184
 3941SOL    HW123885   1.729   5.943   4.181
 3941SOL    HW223886   1.594   5.950   4.273
 3942SOL     OW23887   0.917   7.047   4.621
 3942SOL    HW123888   0.975   7.058   4.540
 3942SOL    HW223889   0.823   7.071   4.599
 3943SOL     OW23890   0.978   6.858   3.841
 3943SOL    HW123891   1.031   6.798   3.901
 3943SOL    HW223892   1.017   6.859   3.750
 3944SOL     OW23893   1.729   7.153   4.326
 3944SOL    HW123894   1.696   7.246   4.345
 3944SOL    HW223895   1.727   7.137   4.227
 3945SOL     OW23896   1.144   6.426   4.315
 3945SOL    HW123897   1.209   6.454   4.386
 3945SOL    HW223898   1.065   6.487   4.317
 3946SOL     OW23899   0.892   7.152   5.339
 3946SOL    HW123900   0.880   7.083   5.268
 3946SOL    HW223901   0.855   7.117   5.426
 3947SOL     OW23902   1.336   6.466   4.518
 3947SOL    HW123903   1.357   6.408   4.596
 3947SOL    HW223904   1.345   6.562   4.544
 3948SOL     OW23905   0.925   6.543   4.263
 3948SOL    HW123906   0.912   6.454   4.220
 3948SOL    HW223907   0.856   6.557   4.334
 3949SOL     OW23908   1.229   6.931   5.102
 3949SOL    HW123909   1.262   7.016   5.143
 3949SOL    HW223910   1.130   6.927   5.109
 3950SOL     OW23911   0.036   5.848   4.166
 3950SOL    HW123912   0.096   5.799   4.104
 3950SOL    HW223913   0.091   5.900   4.231
 3951SOL     OW23914   1.659   7.346   3.857
 3951SOL    HW123915   1.749   7.390   3.859
 3951SOL    HW223916   1.658   7.277   3.785
 3952SOL     OW23917   0.823   6.313   5.015
 3952SOL    HW123918   0.825   6.399   5.066
 3952SOL    HW223919   0.880   6.245   5.062
 3953SOL     OW23920   0.060   7.340   5.086
 3953SOL    HW123921   0.068   7.440   5.084
 3953SOL    HW223922   0.036   7.311   5.179
 3954SOL     OW23923   0.363   6.077   4.619
 3954SOL    HW123924   0.419   6.070   4.536
 3954SOL    HW223925   0.420   6.055   4.699
 3955SOL     OW23926   0.360   7.275   3.890
 3955SOL    HW123927   0.452   7.305   3.865
 3955SOL    HW223928   0.335   7.314   3.979
 3956SOL     OW23929   1.336   7.297   4.827
 3956SOL    HW123930   1.355   7.360   4.753
 3956SOL    HW223931   1.344   7.203   4.794
 3957SOL     OW23932   0.041   6.692   4.639
 3957SOL    HW123933  -0.049   6.708   4.600
 3957SOL    HW223934   0.039   6.608   4.694
 3958SOL     OW23935   0.792   5.597   4.089
 3958SOL    HW123936   0.753   5.586   3.998
 3958SOL    HW223937   0.748   5.673   4.136
 3959SOL     OW23938   0.037   6.733   4.183
 3959SOL    HW123939   0.115   6.791   4.207
 3959SOL    HW223940   0.056   6.684   4.098
 3960SOL     OW23941   1.567   5.861   5.267
 3960SOL    HW123942   1.506   5.939   5.264
 3960SOL    HW223943   1.622   5.865   5.350
 3961SOL     OW23944   1.283   5.807   4.558
 3961SOL    HW123945   1.282   5.885   4.495
 3961SOL    HW223946   1.326   5.834   4.644
 3962SOL     OW23947   1.403   5.613   3.854
 3962SOL    HW123948   1.483   5.553   3.851
 3962SOL    HW223949   1.329   5.566   3.902
 3963SOL     OW23950   1.616   5.585   5.288
 3963SOL    HW123951   1.642   5.542   5.202
 3963SOL    HW223952   1.566   5.669   5.270
 3964SOL     OW23953   0.718   5.844   4.420
 3964SOL    HW123954   0.707   5.786   4.501
 3964SOL    HW223955   0.803   5.896   4.428
 3965SOL     OW23956   1.298   6.195   4.812
 3965SOL    HW123957   1.352   6.235   4.738
 3965SOL    HW223958   1.336   6.224   4.900
 3966SOL     OW23959   1.591   5.601   4.128
 3966SOL    HW123960   1.598   5.555   4.040
 3966SOL    HW223961   1.495   5.611   4.153
 3967SOL     OW23962   0.567   6.916   5.491
 3967SOL    HW123963   0.528   6.979   5.424
 3967SOL    HW223964   0.650   6.956   5.531
 3968SOL     OW23965   0.443   6.648   5.323
 3968SOL    HW123966   0.462   6.672   5.228
 3968SOL    HW223967   0.436   6.731   5.378
 3969SOL     OW23968   0.104   6.938   4.797
 3969SOL    HW123969   0.073   6.864   4.738
 3969SOL    HW223970   0.036   6.956   4.868
 3970SOL     OW23971   1.190   6.139   4.530
 3970SOL    HW123972   1.272   6.116   4.478
 3970SOL    HW223973   1.185   6.080   4.611
 3971SOL     OW23974   1.790   6.166   5.366
 3971SOL    HW123975   1.779   6.252   5.315
 3971SOL    HW223976   1.884   6.157   5.396
 3972SOL     OW23977   1.361   5.939   4.785
 3972SOL    HW123978   1.335   6.036   4.791
 3972SOL    HW223979   1.361   5.899   4.877
 3973SOL     OW23980   1.591   6.071   5.536
 3973SOL    HW123981   1.671   6.096   5.480
 3973SOL    HW223982   1.622   6.036   5.624
 3974SOL     OW23983   1.302   6.374   4.116
 3974SOL    HW123984   1.248   6.372   4.200
 3974SOL    HW223985   1.379   6.437   4.127
 3975SOL     OW23986   1.599   6.470   4.336
 3975SOL    HW123987   1.613   6.433   4.243
 3975SOL    HW223988   1.510   6.440   4.370
 3976SOL     OW23989   1.755   6.407   5.231
 3976SOL    HW123990   1.657   6.428   5.233
 3976SOL    HW223991   1.804   6.483   5.190
 3977SOL     OW23992   1.609   5.827   3.910
 3977SOL    HW123993   1.614   5.869   4.001
 3977SOL    HW223994   1.542   5.752   3.912
 3978SOL     OW23995   0.756   7.042   5.130
 3978SOL    HW123996   0.693   7.120   5.137
 3978SOL    HW223997   0.724   6.980   5.058
 3979SOL     OW23998   0.147   5.837   5.395
 3979SOL    HW123999   0.165   5.826   5.297
 3979SOL    HW224000   0.049   5.833   5.412
 3980SOL     OW24001   0.027   7.251   5.339
 3980SOL    HW124002   0.099   7.237   5.407
 3980SOL    HW224003  -0.062   7.254   5.384
 3981SOL     OW24004   0.195   5.907   4.363
 3981SOL    HW124005   0.138   5.962   4.424
 3981SOL    HW224006   0.265   5.859   4.416
 3982SOL     OW24007   1.367   7.139   5.226
 3982SOL    HW124008   1.320   7.207   5.281
 3982SOL    HW224009   1.434   7.185   5.167
 3983SOL     OW24010   1.718   5.760   5.064
 3983SOL    HW124011   1.674   5.808   5.140
 3983SOL    HW224012   1.696   5.806   4.978
 3984SOL     OW24013   0.447   7.361   4.427
 3984SOL    HW124014   0.371   7.327   4.372
 3984SOL    HW224015   0.533   7.324   4.392
 3985SOL     OW24016   0.746   6.794   4.208
 3985SOL    HW124017   0.789   6.725   4.150
 3985SOL    HW224018   0.710   6.751   4.291
 3986SOL     OW24019   0.378   6.345   4.410
 3986SOL    HW124020   0.370   6.443   4.428
 3986SOL    HW224021   0.462   6.311   4.451
 3987SOL     OW24022   0.224   5.825   3.925
 3987SOL    HW124023   0.268   5.794   3.842
 3987SOL    HW224024   0.225   5.925   3.929
 3988SOL     OW24025   0.077   6.077   4.536
 3988SOL    HW124026   0.041   6.170   4.528
 3988SOL    HW224027   0.160   6.078   4.592
 3989SOL     OW24028   0.512   6.664   3.922
 3989SOL    HW124029   0.612   6.664   3.933
 3989SOL    HW224030   0.481   6.757   3.901
 3990SOL     OW24031   1.138   6.256   3.738
 3990SOL    HW124032   1.069   6.313   3.694
 3990SOL    HW224033   1.219   6.250   3.679
 3991SOL     OW24034   1.324   5.692   4.175
 3991SOL    HW124035   1.234   5.676   4.216
 3991SOL    HW224036   1.332   5.788   4.149
 3992SOL     OW24037   1.438   6.092   5.191
 3992SOL    HW124038   1.390   6.115   5.275
 3992SOL    HW224039   1.372   6.062   5.122
 3993SOL     OW24040   0.073   5.607   3.835
 3993SOL    HW124041   0.136   5.530   3.843
 3993SOL    HW224042   0.093   5.675   3.906
 3994SOL     OW24043   1.645   6.594   3.936
 3994SOL    HW124044   1.716   6.664   3.938
 3994SOL    HW224045   1.632   6.564   3.841
 3995SOL     OW24046   0.627   6.195   4.858
 3995SOL    HW124047   0.702   6.238   4.907
 3995SOL    HW224048   0.560   6.160   4.924
 3996SOL     OW24049   0.770   6.564   5.175
 3996SOL    HW124050   0.839   6.616   5.125
 3996SOL    HW224051   0.765   6.597   5.270
 3997SOL     OW24052   1.162   6.585   5.335
 3997SOL    HW124053   1.084   6.531   5.368
 3997SOL    HW224054   1.243   6.563   5.390
 3998SOL     OW24055   1.091   5.767   4.331
 3998SOL    HW124056   1.150   5.827   4.386
 3998SOL    HW224057   1.018   5.731   4.388
 3999SOL     OW24058   0.619   5.644   4.602
 3999SOL    HW124059   0.547   5.577   4.588
 3999SOL    HW224060   0.701   5.598   4.637
 4000SOL     OW24061   0.319   7.309   4.969
 4000SOL    HW124062   0.299   7.291   4.873
 4000SOL    HW224063   0.246   7.271   5.026
 4001SOL     OW24064   1.012   6.773   4.514
 4001SOL    HW124065   1.051   6.816   4.433
 4001SOL    HW224066   1.085   6.756   4.581
 4002SOL     OW24067   0.706   6.501   4.716
 4002SOL    HW124068   0.704   6.417   4.661
 4002SOL    HW224069   0.655   6.487   4.801
 4003SOL     OW24070   0.045   6.511   4.842
 4003SOL    HW124071   0.134   6.489   4.882
 4003SOL    HW224072  -0.010   6.427   4.838
 4004SOL     OW24073   0.273   5.556   4.122
 4004SOL    HW124074   0.311   5.644   4.149
 4004SOL    HW224075   0.196   5.532   4.182
 4005SOL     OW24076   0.689   6.173   5.450
 4005SOL    HW124077   0.641   6.224   5.379
 4005SOL    HW224078   0.782   6.152   5.420
 4006SOL     OW24079   0.095   6.643   3.942
 4006SOL    HW124080   0.085   6.546   3.921
 4006SOL    HW224081   0.148   6.688   3.870
 4007SOL     OW24082   1.792   5.755   4.543
 4007SOL    HW124083   1.747   5.737   4.630
 4007SOL    HW224084   1.890   5.772   4.559
 4008SOL     OW24085   0.840   6.731   4.795
 4008SOL    HW124086   0.791   6.646   4.776
 4008SOL    HW224087   0.910   6.746   4.726
 4009SOL     OW24088   1.178   6.154   4.004
 4009SOL    HW124089   1.230   6.226   4.050
 4009SOL    HW224090   1.191   6.161   3.906
 4010SOL     OW24091   0.296   6.411   5.071
 4010SOL    HW124092   0.260   6.321   5.097
 4010SOL    HW224093   0.257   6.481   5.131
 4011SOL     OW24094   0.798   7.037   3.729
 4011SOL    HW124095   0.773   7.114   3.788
 4011SOL    HW224096   0.862   6.977   3.777
 4012SOL     OW24097   0.616   7.244   4.763
 4012SOL    HW124098   0.636   7.214   4.670
 4012SOL    HW224099   0.541   7.189   4.800
 4013SOL     OW24100   0.759   6.655   4.480
 4013SOL    HW124101   0.848   6.701   4.480
 4013SOL    HW224102   0.752   6.595   4.559
 4014SOL     OW24103   0.937   7.002   4.149
 4014SOL    HW124104   0.987   6.990   4.064
 4014SOL    HW224105   0.883   6.919   4.168
 4015SOL     OW24106   0.127   6.349   4.549
 4015SOL    HW124107   0.222   6.340   4.517
 4015SOL    HW224108   0.093   6.441   4.528
 4016SOL     OW24109   0.064   6.466   5.476
 4016SOL    HW124110  -0.021   6.417   5.457
 4016SOL    HW224111   0.091   6.453   5.571
 4017SOL     OW24112   0.961   7.375   5.182
 4017SOL    HW124113   0.933   7.288   5.223
 4017SOL    HW224114   0.905   7.449   5.219
 4018SOL     OW24115   1.190   6.722   4.712
 4018SOL    HW124116   1.174   6.816   4.743
 4018SOL    HW224117   1.193   6.661   4.792
 4019SOL     OW24118   0.464   5.993   5.476
 4019SOL    HW124119   0.500   5.940   5.399
 4019SOL    HW224120   0.525   6.070   5.494
 4020SOL     OW24121   0.528   6.410   4.048
 4020SOL    HW124122   0.478   6.475   3.992
 4020SOL    HW224123   0.470   6.331   4.067
 4021SOL     OW24124   1.609   6.441   4.746
 4021SOL    HW124125   1.628   6.480   4.655
 4021SOL    HW224126   1.563   6.510   4.802
 4022SOL     OW24127   1.301   5.884   5.042
 4022SOL    HW124128   1.372   5.856   5.106
 4022SOL    HW224129   1.248   5.804   5.014
 4023SOL     OW24130   0.002   5.583   4.243
 4023SOL    HW124131  -0.085   5.570   4.196
 4023SOL    HW224132   0.010   5.678   4.273
 4024SOL     OW24133   0.439   7.103   5.309
 4024SOL    HW124134   0.381   7.168   5.358
 4024SOL    HW224135   0.501   7.153   5.249
 4025SOL     OW24136   1.795   6.990   5.250
 4025SOL    HW124137   1.823   7.083   5.272
 4025SOL    HW224138   1.702   6.974   5.283
 4026SOL     OW24139   1.045   6.103   4.800
 4026SOL    HW124140   1.131   6.154   4.799
 4026SOL    HW224141   1.051   6.029   4.867
 4027SOL     OW24142   0.449   7.049   4.372
 4027SOL    HW124143   0.447   6.950   4.385
 4027SOL    HW224144   0.358   7.082   4.349
 4028SOL     OW24145   1.090   7.166   4.960
 4028SOL    HW124146   1.016   7.230   4.978
 4028SOL    HW224147   1.169   7.215   4.922
 4029SOL     OW24148   0.299   7.296   5.459
 4029SOL    HW124149   0.342   7.380   5.425
 4029SOL    HW224150   0.324   7.283   5.555
 4030SOL     OW24151   0.159   6.832   5.330
 4030SOL    HW124152   0.138   6.737   5.303
 4030SOL    HW224153   0.090   6.893   5.292
 4031SOL     OW24154   0.248   7.197   4.734
 4031SOL    HW124155   0.190   7.117   4.748
 4031SOL    HW224156   0.272   7.204   4.637
 4032SOL     OW24157   0.994   5.718   4.589
 4032SOL    HW124158   1.090   5.719   4.617
 4032SOL    HW224159   0.939   5.675   4.661
 4033SOL     OW24160   1.056   6.724   4.105
 4033SOL    HW124161   1.136   6.760   4.153
 4033SOL    HW224162   1.014   6.651   4.161
 4034SOL     OW24163   1.647   5.991   4.469
 4034SOL    HW124164   1.666   6.077   4.516
 4034SOL    HW224165   1.715   5.922   4.497
 4035SOL     OW24166   0.790   6.663   3.955
 4035SOL    HW124167   0.862   6.722   3.920
 4035SOL    HW224168   0.830   6.579   3.991
 4036SOL     OW24169   0.861   5.639   3.807
 4036SOL    HW124170   0.936   5.573   3.819
 4036SOL    HW224171   0.892   5.730   3.835
 4037SOL     OW24172   0.540   6.068   4.419
 4037SOL    HW124173   0.578   5.979   4.445
 4037SOL    HW224174   0.607   6.118   4.364
 4038SOL     OW24175   0.528   6.626   5.073
 4038SOL    HW124176   0.624   6.606   5.093
 4038SOL    HW224177   0.517   6.724   5.055
 4039SOL     OW24178   1.750   6.669   5.042
 4039SOL    HW124179   1.764   6.767   5.056
 4039SOL    HW224180   1.807   6.638   4.966
 4040SOL     OW24181   0.233   6.778   3.734
 4040SOL    HW124182   0.225   6.790   3.635
 4040SOL    HW224183   0.292   6.849   3.772
 4041SOL     OW24184   0.660   7.217   3.894
 4041SOL    HW124185   0.635   7.312   3.878
 4041SOL    HW224186   0.627   7.189   3.984
 4042SOL     OW24187   1.310   6.640   5.118
 4042SOL    HW124188   1.254   6.599   5.189
 4042SOL    HW224189   1.290   6.738   5.112
 4043SOL     OW24190   0.577   7.256   5.118
 4043SOL    HW124191   0.626   7.336   5.082
 4043SOL    HW224192   0.485   7.254   5.079
 4044SOL     OW24193   0.220   6.137   5.480
 4044SOL    HW124194   0.237   6.038   5.485
 4044SOL    HW224195   0.284   6.185   5.541
 4045SOL     OW24196   1.659   7.098   4.719
 4045SOL    HW124197   1.631   7.191   4.743
 4045SOL    HW224198   1.709   7.057   4.795
 4046SOL     OW24199   0.055   6.471   4.280
 4046SOL    HW124200   0.062   6.570   4.267
 4046SOL    HW224201  -0.036   6.448   4.314
 4047SOL     OW24202   0.564   6.269   5.218
 4047SOL    HW124203   0.470   6.239   5.199
 4047SOL    HW224204   0.573   6.366   5.195
 4048SOL     OW24205   1.631   6.645   4.530
 4048SOL    HW124206   1.593   6.734   4.503
 4048SOL    HW224207   1.631   6.583   4.452
 4049SOL     OW24208   0.789   6.051   4.699
 4049SOL    HW124209   0.881   6.079   4.726
 4049SOL    HW224210   0.721   6.102   4.753
 4050SOL     OW24211   0.642   6.902   4.926
 4050SOL    HW124212   0.555   6.901   4.877
 4050SOL    HW224213   0.708   6.842   4.879
 4051SOL     OW24214   0.208   6.244   4.840
 4051SOL    HW124215   0.246   6.303   4.911
 4051SOL    HW224216   0.191   6.297   4.758
 4052SOL     OW24217   0.379   6.890   5.138
 4052SOL    HW124218   0.398   6.978   5.182
 4052SOL    HW224219   0.284   6.864   5.156
 4053SOL     OW24220   1.330   6.744   4.207
 4053SOL    HW124221   1.429   6.748   4.223
 4053SOL    HW224222   1.313   6.730   4.109
 4054SOL     OW24223   0.683   5.910   4.155
 4054SOL    HW124224   0.585   5.904   4.135
 4054SOL    HW224225   0.702   5.867   4.243
 4055SOL     OW24226   1.603   5.593   4.414
 4055SOL    HW124227   1.598   5.634   4.323
 4055SOL    HW224228   1.684   5.627   4.461
 4056SOL     OW24229   1.206   6.349   5.107
 4056SOL    HW124230   1.305   6.358   5.097
 4056SOL    HW224231   1.162   6.351   5.017
 4057SOL     OW24232   0.700   6.309   4.509
 4057SOL    HW124233   0.722   6.231   4.567
 4057SOL    HW224234   0.709   6.283   4.413
 4058SOL     OW24235   1.365   7.016   4.721
 4058SOL    HW124236   1.279   6.973   4.750
 4058SOL    HW224237   1.354   7.056   4.630
 4059SOL     OW24238   1.368   6.001   4.396
 4059SOL    HW124239   1.367   5.993   4.297
 4059SOL    HW224240   1.457   5.973   4.431
 4060SOL     OW24241   1.095   7.017   6.228
 4060SOL    HW124242   1.186   7.051   6.251
 4060SOL    HW224243   1.067   7.055   6.140
 4061SOL     OW24244   1.606   6.813   6.086
 4061SOL    HW124245   1.617   6.897   6.140
 4061SOL    HW224246   1.696   6.776   6.063
 4062SOL     OW24247   1.686   6.095   6.950
 4062SOL    HW124248   1.588   6.087   6.972
 4062SOL    HW224249   1.739   6.084   7.034
 4063SOL     OW24250   0.353   5.732   5.555
 4063SOL    HW124251   0.266   5.729   5.506
 4063SOL    HW224252   0.404   5.814   5.527
 4064SOL     OW24253   1.340   7.121   6.330
 4064SOL    HW124254   1.329   7.218   6.353
 4064SOL    HW224255   1.433   7.104   6.300
 4065SOL     OW24256   1.218   5.632   6.888
 4065SOL    HW124257   1.142   5.587   6.935
 4065SOL    HW224258   1.247   5.577   6.810
 4066SOL     OW24259   0.563   7.086   5.959
 4066SOL    HW124260   0.519   7.095   6.048
 4066SOL    HW224261   0.634   7.016   5.963
 4067SOL     OW24262   0.581   5.619   5.681
 4067SOL    HW124263   0.669   5.647   5.642
 4067SOL    HW224264   0.509   5.682   5.651
 4068SOL     OW24265   1.451   6.611   6.745
 4068SOL    HW124266   1.376   6.600   6.810
 4068SOL    HW224267   1.488   6.704   6.751
 4069SOL     OW24268   0.490   6.759   6.254
 4069SOL    HW124269   0.423   6.713   6.313
 4069SOL    HW224270   0.582   6.727   6.277
 4070SOL     OW24271   0.717   6.165   6.085
 4070SOL    HW124272   0.756   6.235   6.026
 4070SOL    HW224273   0.691   6.085   6.031
 4071SOL     OW24274   1.337   6.073   7.294
 4071SOL    HW124275   1.433   6.077   7.320
 4071SOL    HW224276   1.293   5.997   7.341
 4072SOL     OW24277   0.420   6.928   5.738
 4072SOL    HW124278   0.484   6.944   5.663
 4072SOL    HW224279   0.444   6.986   5.816
 4073SOL     OW24280   0.571   5.884   6.548
 4073SOL    HW124281   0.647   5.949   6.544
 4073SOL    HW224282   0.601   5.795   6.515
 4074SOL     OW24283   0.268   6.310   5.966
 4074SOL    HW124284   0.283   6.244   6.040
 4074SOL    HW224285   0.218   6.389   6.001
 4075SOL     OW24286   0.854   7.255   6.143
 4075SOL    HW124287   0.919   7.188   6.107
 4075SOL    HW224288   0.844   7.331   6.079
 4076SOL     OW24289   1.746   7.137   5.885
 4076SOL    HW124290   1.842   7.111   5.878
 4076SOL    HW224291   1.722   7.197   5.809
 4077SOL     OW24292   1.658   5.830   6.656
 4077SOL    HW124293   1.709   5.902   6.609
 4077SOL    HW224294   1.563   5.857   6.665
 4078SOL     OW24295   1.058   5.859   5.925
 4078SOL    HW124296   1.083   5.953   5.946
 4078SOL    HW224297   1.059   5.805   6.009
 4079SOL     OW24298   0.182   6.572   7.110
 4079SOL    HW124299   0.278   6.587   7.128
 4079SOL    HW224300   0.144   6.510   7.179
 4080SOL     OW24301   0.508   6.217   5.653
 4080SOL    HW124302   0.468   6.296   5.606
 4080SOL    HW224303   0.597   6.196   5.613
 4081SOL     OW24304   0.681   7.141   6.351
 4081SOL    HW124305   0.754   7.164   6.287
 4081SOL    HW224306   0.610   7.088   6.305
 4082SOL     OW24307   1.023   6.173   7.105
 4082SOL    HW124308   1.056   6.090   7.152
 4082SOL    HW224309   1.096   6.241   7.104
 4083SOL     OW24310   1.627   6.973   6.327
 4083SOL    HW124311   1.623   7.008   6.420
 4083SOL    HW224312   1.686   7.032   6.271
 4084SOL     OW24313   0.358   6.794   6.003
 4084SOL    HW124314   0.404   6.768   6.088
 4084SOL    HW224315   0.378   6.726   5.932
 4085SOL     OW24316   0.368   6.054   6.809
 4085SOL    HW124317   0.358   5.967   6.761
 4085SOL    HW224318   0.304   6.121   6.772
 4086SOL     OW24319   0.403   5.826   5.968
 4086SOL    HW124320   0.357   5.866   6.047
 4086SOL    HW224321   0.351   5.845   5.886
 4087SOL     OW24322   1.531   7.353   6.880
 4087SOL    HW124323   1.474   7.304   6.814
 4087SOL    HW224324   1.617   7.380   6.837
 4088SOL     OW24325   1.826   6.071   6.735
 4088SOL    HW124326   1.883   6.153   6.737
 4088SOL    HW224327   1.767   6.070   6.815
 4089SOL     OW24328   1.843   7.297   6.648
 4089SOL    HW124329   1.889   7.307   6.736
 4089SOL    HW224330   1.910   7.300   6.575
 4090SOL     OW24331   0.956   6.037   6.210
 4090SOL    HW124332   1.032   6.065   6.269
 4090SOL    HW224333   0.912   6.117   6.171
 4091SOL     OW24334   1.033   5.923   7.348
 4091SOL    HW124335   1.096   5.928   7.425
 4091SOL    HW224336   0.941   5.901   7.381
 4092SOL     OW24337   0.749   5.575   7.246
 4092SOL    HW124338   0.756   5.481   7.213
 4092SOL    HW224339   0.806   5.585   7.328
 4093SOL     OW24340   1.672   6.176   6.514
 4093SOL    HW124341   1.657   6.267   6.551
 4093SOL    HW224342   1.742   6.129   6.568
 4094SOL     OW24343   0.737   6.684   7.284
 4094SOL    HW124344   0.708   6.761   7.341
 4094SOL    HW224345   0.747   6.603   7.342
 4095SOL     OW24346   1.372   5.548   6.390
 4095SOL    HW124347   1.321   5.632   6.372
 4095SOL    HW224348   1.458   5.550   6.339
 4096SOL     OW24349   1.727   5.754   7.319
 4096SOL    HW124350   1.704   5.775   7.414
 4096SOL    HW224351   1.703   5.659   7.299
 4097SOL     OW24352   0.030   6.158   6.063
 4097SOL    HW124353   0.032   6.109   6.150
 4097SOL    HW224354   0.032   6.257   6.081
 4098SOL     OW24355   0.351   5.746   6.384
 4098SOL    HW124356   0.403   5.786   6.459
 4098SOL    HW224357   0.404   5.673   6.341
 4099SOL     OW24358   0.335   5.794   6.718
 4099SOL    HW124359   0.300   5.701   6.718
 4099SOL    HW224360   0.422   5.797   6.669
 4100SOL     OW24361   1.002   6.416   6.458
 4100SOL    HW124362   1.028   6.496   6.404
 4100SOL    HW224363   0.996   6.336   6.398
 4101SOL     OW24364   0.203   7.043   5.917
 4101SOL    HW124365   0.230   6.949   5.937
 4101SOL    HW224366   0.228   7.065   5.823
 4102SOL     OW24367   1.485   6.912   6.791
 4102SOL    HW124368   1.456   6.949   6.702
 4102SOL    HW224369   1.407   6.912   6.853
 4103SOL     OW24370   0.217   7.186   6.154
 4103SOL    HW124371   0.133   7.237   6.172
 4103SOL    HW224372   0.208   7.135   6.069
 4104SOL     OW24373   1.738   6.983   6.829
 4104SOL    HW124374   1.769   6.997   6.923
 4104SOL    HW224375   1.639   6.970   6.828
 4105SOL     OW24376   0.490   6.483   5.556
 4105SOL    HW124377   0.459   6.517   5.468
 4105SOL    HW224378   0.494   6.558   5.622
 4106SOL     OW24379   0.094   6.375   5.729
 4106SOL    HW124380   0.154   6.322   5.789
 4106SOL    HW224381   0.000   6.343   5.741
 4107SOL     OW24382   0.862   7.360   6.577
 4107SOL    HW124383   0.908   7.293   6.519
 4107SOL    HW224384   0.788   7.316   6.627
 4108SOL     OW24385   0.769   6.429   5.613
 4108SOL    HW124386   0.798   6.348   5.664
 4108SOL    HW224387   0.669   6.428   5.604
 4109SOL     OW24388   0.262   6.162   7.059
 4109SOL    HW124389   0.282   6.067   7.034
 4109SOL    HW224390   0.225   6.165   7.152
 4110SOL     OW24391   0.144   5.817   6.949
 4110SOL    HW124392   0.216   5.827   6.880
 4110SOL    HW224393   0.055   5.816   6.904
 4111SOL     OW24394   0.917   7.047   6.466
 4111SOL    HW124395   0.975   7.058   6.385
 4111SOL    HW224396   0.823   7.071   6.444
 4112SOL     OW24397   0.867   5.913   5.751
 4112SOL    HW124398   0.776   5.926   5.789
 4112SOL    HW224399   0.927   5.873   5.821
 4113SOL     OW24400   0.978   6.858   5.686
 4113SOL    HW124401   1.031   6.798   5.746
 4113SOL    HW224402   1.017   6.859   5.595
 4114SOL     OW24403   1.729   7.153   6.171
 4114SOL    HW124404   1.696   7.246   6.190
 4114SOL    HW224405   1.727   7.137   6.072
 4115SOL     OW24406   0.892   7.152   7.184
 4115SOL    HW124407   0.880   7.083   7.113
 4115SOL    HW224408   0.855   7.117   7.271
 4116SOL     OW24409   0.292   6.595   6.409
 4116SOL    HW124410   0.215   6.657   6.402
 4116SOL    HW224411   0.329   6.596   6.502
 4117SOL     OW24412   0.925   6.543   6.108
 4117SOL    HW124413   0.912   6.454   6.065
 4117SOL    HW224414   0.856   6.557   6.179
 4118SOL     OW24415   1.229   6.931   6.947
 4118SOL    HW124416   1.262   7.016   6.988
 4118SOL    HW224417   1.130   6.927   6.954
 4119SOL     OW24418   0.036   5.848   6.011
 4119SOL    HW124419   0.096   5.799   5.949
 4119SOL    HW224420   0.091   5.900   6.076
 4120SOL     OW24421   1.659   7.346   5.702
 4120SOL    HW124422   1.749   7.390   5.704
 4120SOL    HW224423   1.658   7.277   5.630
 4121SOL     OW24424   0.823   6.313   6.860
 4121SOL    HW124425   0.825   6.399   6.911
 4121SOL    HW224426   0.880   6.245   6.907
 4122SOL     OW24427   0.060   7.340   6.931
 4122SOL    HW124428   0.068   7.440   6.929
 4122SOL    HW224429   0.036   7.311   7.024
 4123SOL     OW24430   0.841   6.359   5.925
 4123SOL    HW124431   0.752   6.387   5.890
 4123SOL    HW224432   0.882   6.293   5.861
 4124SOL     OW24433   0.363   6.077   6.464
 4124SOL    HW124434   0.419   6.070   6.381
 4124SOL    HW224435   0.420   6.055   6.544
 4125SOL     OW24436   0.360   7.275   5.735
 4125SOL    HW124437   0.452   7.305   5.710
 4125SOL    HW224438   0.335   7.314   5.824
 4126SOL     OW24439   1.336   7.297   6.672
 4126SOL    HW124440   1.355   7.360   6.598
 4126SOL    HW224441   1.344   7.203   6.639
 4127SOL     OW24442   0.041   6.692   6.484
 4127SOL    HW124443  -0.049   6.708   6.445
 4127SOL    HW224444   0.039   6.608   6.539
 4128SOL     OW24445   0.792   5.597   5.934
 4128SOL    HW124446   0.753   5.586   5.843
 4128SOL    HW224447   0.748   5.673   5.981
 4129SOL     OW24448   0.037   6.733   6.028
 4129SOL    HW124449   0.115   6.791   6.052
 4129SOL    HW224450   0.056   6.684   5.943
 4130SOL     OW24451   1.567   5.861   7.112
 4130SOL    HW124452   1.506   5.939   7.109
 4130SOL    HW224453   1.622   5.865   7.195
 4131SOL     OW24454   1.616   5.585   7.133
 4131SOL    HW124455   1.642   5.542   7.047
 4131SOL    HW224456   1.566   5.669   7.115
 4132SOL     OW24457   0.718   5.844   6.265
 4132SOL    HW124458   0.707   5.786   6.346
 4132SOL    HW224459   0.803   5.896   6.273
 4133SOL     OW24460   1.591   5.601   5.973
 4133SOL    HW124461   1.598   5.555   5.885
 4133SOL    HW224462   1.495   5.611   5.998
 4134SOL     OW24463   0.567   6.916   7.336
 4134SOL    HW124464   0.528   6.979   7.269
 4134SOL    HW224465   0.650   6.956   7.376
 4135SOL     OW24466   0.443   6.648   7.168
 4135SOL    HW124467   0.462   6.672   7.073
 4135SOL    HW224468   0.436   6.731   7.223
 4136SOL     OW24469   0.104   6.938   6.642
 4136SOL    HW124470   0.073   6.864   6.583
 4136SOL    HW224471   0.036   6.956   6.713
 4137SOL     OW24472   1.790   6.166   7.211
 4137SOL    HW124473   1.779   6.252   7.160
 4137SOL    HW224474   1.884   6.157   7.241
 4138SOL     OW24475   1.361   5.939   6.630
 4138SOL    HW124476   1.335   6.036   6.636
 4138SOL    HW224477   1.361   5.899   6.722
 4139SOL     OW24478   1.591   6.071   7.381
 4139SOL    HW124479   1.671   6.096   7.325
 4139SOL    HW224480   1.622   6.036   7.469
 4140SOL     OW24481   1.302   6.374   5.961
 4140SOL    HW124482   1.248   6.372   6.045
 4140SOL    HW224483   1.379   6.437   5.972
 4141SOL     OW24484   1.609   5.827   5.755
 4141SOL    HW124485   1.614   5.869   5.846
 4141SOL    HW224486   1.542   5.752   5.757
 4142SOL     OW24487   0.756   7.042   6.975
 4142SOL    HW124488   0.693   7.120   6.982
 4142SOL    HW224489   0.724   6.980   6.903
 4143SOL     OW24490   0.147   5.837   7.240
 4143SOL    HW124491   0.165   5.826   7.142
 4143SOL    HW224492   0.049   5.833   7.257
 4144SOL     OW24493   0.027   7.251   7.184
 4144SOL    HW124494   0.099   7.237   7.252
 4144SOL    HW224495  -0.062   7.254   7.229
 4145SOL     OW24496   0.195   5.907   6.208
 4145SOL    HW124497   0.138   5.962   6.269
 4145SOL    HW224498   0.265   5.859   6.261
 4146SOL     OW24499   1.367   7.139   7.071
 4146SOL    HW124500   1.320   7.207   7.126
 4146SOL    HW224501   1.434   7.185   7.012
 4147SOL     OW24502   0.332   6.098   5.806
 4147SOL    HW124503   0.404   6.127   5.743
 4147SOL    HW224504   0.288   6.178   5.846
 4148SOL     OW24505   1.718   5.760   6.909
 4148SOL    HW124506   1.674   5.808   6.985
 4148SOL    HW224507   1.696   5.806   6.823
 4149SOL     OW24508   0.447   7.361   6.272
 4149SOL    HW124509   0.371   7.327   6.217
 4149SOL    HW224510   0.533   7.324   6.237
 4150SOL     OW24511   0.372   6.870   6.717
 4150SOL    HW124512   0.384   6.886   6.814
 4150SOL    HW224513   0.285   6.910   6.687
 4151SOL     OW24514   0.746   6.794   6.053
 4151SOL    HW124515   0.789   6.725   5.995
 4151SOL    HW224516   0.710   6.751   6.136
 4152SOL     OW24517   0.378   6.345   6.255
 4152SOL    HW124518   0.370   6.443   6.273
 4152SOL    HW224519   0.462   6.311   6.296
 4153SOL     OW24520   0.224   5.825   5.770
 4153SOL    HW124521   0.268   5.794   5.687
 4153SOL    HW224522   0.225   5.925   5.774
 4154SOL     OW24523   0.077   6.077   6.381
 4154SOL    HW124524   0.041   6.170   6.373
 4154SOL    HW224525   0.160   6.078   6.437
 4155SOL     OW24526   0.512   6.664   5.767
 4155SOL    HW124527   0.612   6.664   5.778
 4155SOL    HW224528   0.481   6.757   5.746
 4156SOL     OW24529   1.138   6.256   5.583
 4156SOL    HW124530   1.069   6.313   5.539
 4156SOL    HW224531   1.219   6.250   5.524
 4157SOL     OW24532   0.873   6.175   5.726
 4157SOL    HW124533   0.963   6.176   5.681
 4157SOL    HW224534   0.850   6.081   5.751
 4158SOL     OW24535   1.324   5.692   6.020
 4158SOL    HW124536   1.234   5.676   6.061
 4158SOL    HW224537   1.332   5.788   5.994
 4159SOL     OW24538   0.073   5.607   5.680
 4159SOL    HW124539   0.136   5.530   5.688
 4159SOL    HW224540   0.093   5.675   5.751
 4160SOL     OW24541   0.346   6.582   6.681
 4160SOL    HW124542   0.357   6.537   6.770
 4160SOL    HW224543   0.373   6.678   6.688
 4161SOL     OW24544   0.627   6.195   6.703
 4161SOL    HW124545   0.702   6.238   6.752
 4161SOL    HW224546   0.560   6.160   6.769
 4162SOL     OW24547   0.770   6.564   7.020
 4162SOL    HW124548   0.839   6.616   6.970
 4162SOL    HW224549   0.765   6.597   7.115
 4163SOL     OW24550   1.091   5.767   6.176
 4163SOL    HW124551   1.150   5.827   6.231
 4163SOL    HW224552   1.018   5.731   6.233
 4164SOL     OW24553   1.201   7.299   7.216
 4164SOL    HW124554   1.106   7.297   7.184
 4164SOL    HW224555   1.222   7.390   7.253
 4165SOL     OW24556   0.619   5.644   6.447
 4165SOL    HW124557   0.547   5.577   6.433
 4165SOL    HW224558   0.701   5.598   6.482
 4166SOL     OW24559   0.319   7.309   6.814
 4166SOL    HW124560   0.299   7.291   6.718
 4166SOL    HW224561   0.246   7.271   6.871
 4167SOL     OW24562   1.012   6.773   6.359
 4167SOL    HW124563   1.051   6.816   6.278
 4167SOL    HW224564   1.085   6.756   6.426
 4168SOL     OW24565   0.706   6.501   6.561
 4168SOL    HW124566   0.704   6.417   6.506
 4168SOL    HW224567   0.655   6.487   6.646
 4169SOL     OW24568   0.045   6.511   6.687
 4169SOL    HW124569   0.134   6.489   6.727
 4169SOL    HW224570  -0.010   6.427   6.683
 4170SOL     OW24571   0.273   5.556   5.967
 4170SOL    HW124572   0.311   5.644   5.994
 4170SOL    HW224573   0.196   5.532   6.027
 4171SOL     OW24574   0.689   6.173   7.295
 4171SOL    HW124575   0.641   6.224   7.224
 4171SOL    HW224576   0.782   6.152   7.265
 4172SOL     OW24577   0.095   6.643   5.787
 4172SOL    HW124578   0.085   6.546   5.766
 4172SOL    HW224579   0.148   6.688   5.715
 4173SOL     OW24580   1.792   5.755   6.388
 4173SOL    HW124581   1.747   5.737   6.475
 4173SOL    HW224582   1.890   5.772   6.404
 4174SOL     OW24583   0.840   6.731   6.640
 4174SOL    HW124584   0.791   6.646   6.621
 4174SOL    HW224585   0.910   6.746   6.571
 4175SOL     OW24586   1.178   6.154   5.849
 4175SOL    HW124587   1.230   6.226   5.895
 4175SOL    HW224588   1.191   6.161   5.751
 4176SOL     OW24589   0.296   6.411   6.916
 4176SOL    HW124590   0.260   6.321   6.942
 4176SOL    HW224591   0.257   6.481   6.976
 4177SOL     OW24592   0.798   7.037   5.574
 4177SOL    HW124593   0.773   7.114   5.633
 4177SOL    HW224594   0.862   6.977   5.622
 4178SOL     OW24595   0.616   7.244   6.608
 4178SOL    HW124596   0.636   7.214   6.515
 4178SOL    HW224597   0.541   7.189   6.645
 4179SOL     OW24598   0.759   6.655   6.325
 4179SOL    HW124599   0.848   6.701   6.325
 4179SOL    HW224600   0.752   6.595   6.404
 4180SOL     OW24601   0.937   7.002   5.994
 4180SOL    HW124602   0.987   6.990   5.909
 4180SOL    HW224603   0.883   6.919   6.013
 4181SOL     OW24604   0.127   6.349   6.394
 4181SOL    HW124605   0.222   6.340   6.362
 4181SOL    HW224606   0.093   6.441   6.373
 4182SOL     OW24607   0.064   6.466   7.321
 4182SOL    HW124608  -0.021   6.417   7.302
 4182SOL    HW224609   0.091   6.453   7.416
 4183SOL     OW24610   0.961   7.375   7.027
 4183SOL    HW124611   0.933   7.288   7.068
 4183SOL    HW224612   0.905   7.449   7.064
 4184SOL     OW24613   1.190   6.722   6.557
 4184SOL    HW124614   1.174   6.816   6.588
 4184SOL    HW224615   1.193   6.661   6.637
 4185SOL     OW24616   0.464   5.993   7.321
 4185SOL    HW124617   0.500   5.940   7.244
 4185SOL    HW224618   0.525   6.070   7.339
 4186SOL     OW24619   0.528   6.410   5.893
 4186SOL    HW124620   0.478   6.475   5.837
 4186SOL    HW224621   0.470   6.331   5.912
 4187SOL     OW24622   1.609   6.441   6.591
 4187SOL    HW124623   1.628   6.480   6.500
 4187SOL    HW224624   1.563   6.510   6.647
 4188SOL     OW24625   1.301   5.884   6.887
 4188SOL    HW124626   1.372   5.856   6.951
 4188SOL    HW224627   1.248   5.804   6.859
 4189SOL     OW24628   0.002   5.583   6.088
 4189SOL    HW124629  -0.085   5.570   6.041
 4189SOL    HW224630   0.010   5.678   6.118
 4190SOL     OW24631   1.223   5.684   7.329
 4190SOL    HW124632   1.282   5.700   7.409
 4190SOL    HW224633   1.170   5.767   7.310
 4191SOL     OW24634   0.439   7.103   7.154
 4191SOL    HW124635   0.381   7.168   7.203
 4191SOL    HW224636   0.501   7.153   7.094
 4192SOL     OW24637   1.795   6.990   7.095
 4192SOL    HW124638   1.823   7.083   7.117
 4192SOL    HW224639   1.702   6.974   7.128
 4193SOL     OW24640   1.045   6.103   6.645
 4193SOL    HW124641   1.131   6.154   6.644
 4193SOL    HW224642   1.051   6.029   6.712
 4194SOL     OW24643   0.449   7.049   6.217
 4194SOL    HW124644   0.447   6.950   6.230
 4194SOL    HW224645   0.358   7.082   6.194
 4195SOL     OW24646   1.090   7.166   6.805
 4195SOL    HW124647   1.016   7.230   6.823
 4195SOL    HW224648   1.169   7.215   6.767
 4196SOL     OW24649   0.299   7.296   7.304
 4196SOL    HW124650   0.342   7.380   7.270
 4196SOL    HW224651   0.324   7.283   7.400
 4197SOL     OW24652   0.159   6.832   7.175
 4197SOL    HW124653   0.138   6.737   7.148
 4197SOL    HW224654   0.090   6.893   7.137
 4198SOL     OW24655   0.994   5.718   6.434
 4198SOL    HW124656   1.090   5.719   6.462
 4198SOL    HW224657   0.939   5.675   6.506
 4199SOL     OW24658   1.056   6.724   5.950
 4199SOL    HW124659   1.136   6.760   5.998
 4199SOL    HW224660   1.014   6.651   6.006
 4200SOL     OW24661   1.647   5.991   6.314
 4200SOL    HW124662   1.666   6.077   6.361
 4200SOL    HW224663   1.715   5.922   6.342
 4201SOL     OW24664   0.790   6.663   5.800
 4201SOL    HW124665   0.862   6.722   5.765
 4201SOL    HW224666   0.830   6.579   5.836
 4202SOL     OW24667   0.861   5.639   5.652
 4202SOL    HW124668   0.936   5.573   5.664
 4202SOL    HW224669   0.892   5.730   5.680
 4203SOL     OW24670   0.540   6.068   6.264
 4203SOL    HW124671   0.578   5.979   6.290
 4203SOL    HW224672   0.607   6.118   6.209
 4204SOL     OW24673   0.528   6.626   6.918
 4204SOL    HW124674   0.624   6.606   6.938
 4204SOL    HW224675   0.517   6.724   6.900
 4205SOL     OW24676   1.750   6.669   6.887
 4205SOL    HW124677   1.764   6.767   6.901
 4205SOL    HW224678   1.807   6.638   6.811
 4206SOL     OW24679   0.233   6.778   5.579
 4206SOL    HW124680   0.225   6.790   5.480
 4206SOL    HW224681   0.292   6.849   5.617
 4207SOL     OW24682   0.577   7.256   6.963
 4207SOL    HW124683   0.626   7.336   6.927
 4207SOL    HW224684   0.485   7.254   6.924
 4208SOL     OW24685   0.220   6.137   7.325
 4208SOL    HW124686   0.237   6.038   7.330
 4208SOL    HW224687   0.284   6.185   7.386
 4209SOL     OW24688   1.659   7.098   6.564
 4209SOL    HW124689   1.631   7.191   6.588
 4209SOL    HW224690   1.709   7.057   6.640
 4210SOL     OW24691   0.055   6.471   6.125
 4210SOL    HW124692   0.062   6.570   6.112
 4210SOL    HW224693  -0.036   6.448   6.159
 4211SOL     OW24694   0.564   6.269   7.063
 4211SOL    HW124695   0.470   6.239   7.044
 4211SOL    HW224696   0.573   6.366   7.040
 4212SOL     OW24697   0.789   6.051   6.544
 4212SOL    HW124698   0.881   6.079   6.571
 4212SOL    HW224699   0.721   6.102   6.598
 4213SOL     OW24700   0.642   6.902   6.771
 4213SOL    HW124701   0.555   6.901   6.722
 4213SOL    HW224702   0.708   6.842   6.724
 4214SOL     OW24703   0.208   6.244   6.685
 4214SOL    HW124704   0.246   6.303   6.756
 4214SOL    HW224705   0.191   6.297   6.603
 4215SOL     OW24706   0.379   6.890   6.983
 4215SOL    HW124707   0.398   6.978   7.027
 4215SOL    HW224708   0.284   6.864   7.001
 4216SOL     OW24709   1.622   7.206   7.331
 4216SOL    HW124710   1.591   7.128   7.276
 4216SOL    HW224711   1.591   7.291   7.289
 4217SOL     OW24712   0.683   5.910   6.000
 4217SOL    HW124713   0.585   5.904   5.980
 4217SOL    HW224714   0.702   5.867   6.088
 4218SOL     OW24715   1.603   5.593   6.259
 4218SOL    HW124716   1.598   5.634   6.168
 4218SOL    HW224717   1.684   5.627   6.306
 4219SOL     OW24718   0.700   6.309   6.354
 4219SOL    HW124719   0.722   6.231   6.412
 4219SOL    HW224720   0.709   6.283   6.258
 4220SOL     OW24721   1.365   7.016   6.566
 4220SOL    HW124722   1.279   6.973   6.595
 4220SOL    HW224723   1.354   7.056   6.475
 4221SOL     OW24724   1.095   7.017   8.074
 4221SOL    HW124725   1.186   7.051   8.097
 4221SOL    HW224726   1.067   7.055   7.986
 4222SOL     OW24727   1.606   6.813   7.932
 4222SOL    HW124728   1.617   6.897   7.986
 4222SOL    HW224729   1.696   6.776   7.909
 4223SOL     OW24730   1.686   6.095   8.796
 4223SOL    HW124731   1.588   6.087   8.818
 4223SOL    HW224732   1.739   6.084   8.880
 4224SOL     OW24733   0.353   5.732   7.401
 4224SOL    HW124734   0.266   5.729   7.352
 4224SOL    HW224735   0.404   5.814   7.373
 4225SOL     OW24736   1.340   7.121   8.176
 4225SOL    HW124737   1.329   7.218   8.199
 4225SOL    HW224738   1.433   7.104   8.146
 4226SOL     OW24739   1.218   5.632   8.734
 4226SOL    HW124740   1.142   5.587   8.781
 4226SOL    HW224741   1.247   5.577   8.656
 4227SOL     OW24742   0.956   6.412   9.111
 4227SOL    HW124743   0.921   6.387   9.021
 4227SOL    HW224744   0.880   6.433   9.172
 4228SOL     OW24745   0.563   7.086   7.805
 4228SOL    HW124746   0.519   7.095   7.894
 4228SOL    HW224747   0.634   7.016   7.809
 4229SOL     OW24748   0.581   5.619   7.527
 4229SOL    HW124749   0.669   5.647   7.488
 4229SOL    HW224750   0.509   5.682   7.497
 4230SOL     OW24751   1.551   6.604   8.910
 4230SOL    HW124752   1.459   6.609   8.872
 4230SOL    HW224753   1.616   6.642   8.844
 4231SOL     OW24754   1.451   6.611   8.591
 4231SOL    HW124755   1.376   6.600   8.656
 4231SOL    HW224756   1.488   6.704   8.597
 4232SOL     OW24757   0.947   6.866   8.891
 4232SOL    HW124758   0.890   6.929   8.837
 4232SOL    HW224759   0.980   6.792   8.832
 4233SOL     OW24760   0.490   6.759   8.100
 4233SOL    HW124761   0.423   6.713   8.159
 4233SOL    HW224762   0.582   6.727   8.123
 4234SOL     OW24763   0.717   6.165   7.931
 4234SOL    HW124764   0.756   6.235   7.872
 4234SOL    HW224765   0.691   6.085   7.877
 4235SOL     OW24766   1.337   6.073   9.140
 4235SOL    HW124767   1.433   6.077   9.166
 4235SOL    HW224768   1.293   5.997   9.187
 4236SOL     OW24769   0.420   6.928   7.584
 4236SOL    HW124770   0.484   6.944   7.509
 4236SOL    HW224771   0.444   6.986   7.662
 4237SOL     OW24772   0.571   5.884   8.394
 4237SOL    HW124773   0.647   5.949   8.390
 4237SOL    HW224774   0.601   5.795   8.361
 4238SOL     OW24775   0.268   6.310   7.812
 4238SOL    HW124776   0.283   6.244   7.886
 4238SOL    HW224777   0.218   6.389   7.847
 4239SOL     OW24778   0.854   7.255   7.989
 4239SOL    HW124779   0.919   7.188   7.953
 4239SOL    HW224780   0.844   7.331   7.925
 4240SOL     OW24781   1.746   7.137   7.731
 4240SOL    HW124782   1.842   7.111   7.724
 4240SOL    HW224783   1.722   7.197   7.655
 4241SOL     OW24784   1.658   5.830   8.502
 4241SOL    HW124785   1.709   5.902   8.455
 4241SOL    HW224786   1.563   5.857   8.511
 4242SOL     OW24787   1.058   5.859   7.771
 4242SOL    HW124788   1.083   5.953   7.792
 4242SOL    HW224789   1.059   5.805   7.855
 4243SOL     OW24790   0.182   6.572   8.956
 4243SOL    HW124791   0.278   6.587   8.974
 4243SOL    HW224792   0.144   6.510   9.025
 4244SOL     OW24793   0.508   6.217   7.499
 4244SOL    HW124794   0.468   6.296   7.452
 4244SOL    HW224795   0.597   6.196   7.459
 4245SOL     OW24796   0.681   7.141   8.197
 4245SOL    HW124797   0.754   7.164   8.133
 4245SOL    HW224798   0.610   7.088   8.151
 4246SOL     OW24799   1.023   6.173   8.951
 4246SOL    HW124800   1.056   6.090   8.998
 4246SOL    HW224801   1.096   6.241   8.950
 4247SOL     OW24802   1.627   6.973   8.173
 4247SOL    HW124803   1.623   7.008   8.266
 4247SOL    HW224804   1.686   7.032   8.117
 4248SOL     OW24805   0.358   6.794   7.849
 4248SOL    HW124806   0.404   6.768   7.934
 4248SOL    HW224807   0.378   6.726   7.778
 4249SOL     OW24808   1.216   5.849   7.560
 4249SOL    HW124809   1.310   5.819   7.578
 4249SOL    HW224810   1.164   5.849   7.646
 4250SOL     OW24811   0.368   6.054   8.655
 4250SOL    HW124812   0.358   5.967   8.607
 4250SOL    HW224813   0.304   6.121   8.618
 4251SOL     OW24814   1.450   6.334   8.693
 4251SOL    HW124815   1.454   6.428   8.658
 4251SOL    HW224816   1.543   6.303   8.715
 4252SOL     OW24817   0.403   5.826   7.814
 4252SOL    HW124818   0.357   5.866   7.893
 4252SOL    HW224819   0.351   5.845   7.732
 4253SOL     OW24820   1.531   7.353   8.726
 4253SOL    HW124821   1.474   7.304   8.660
 4253SOL    HW224822   1.617   7.380   8.683
 4254SOL     OW24823   1.826   6.071   8.581
 4254SOL    HW124824   1.883   6.153   8.583
 4254SOL    HW224825   1.767   6.070   8.661
 4255SOL     OW24826   1.843   7.297   8.494
 4255SOL    HW124827   1.889   7.307   8.582
 4255SOL    HW224828   1.910   7.300   8.421
 4256SOL     OW24829   0.956   6.037   8.056
 4256SOL    HW124830   1.032   6.065   8.115
 4256SOL    HW224831   0.912   6.117   8.017
 4257SOL     OW24832   1.191   6.501   7.573
 4257SOL    HW124833   1.228   6.451   7.651
 4257SOL    HW224834   1.121   6.446   7.528
 4258SOL     OW24835   1.033   5.923   9.194
 4258SOL    HW124836   1.096   5.928   9.271
 4258SOL    HW224837   0.941   5.901   9.227
 4259SOL     OW24838   1.774   6.170   7.652
 4259SOL    HW124839   1.795   6.089   7.598
 4259SOL    HW224840   1.791   6.151   7.749
 4260SOL     OW24841   1.068   7.308   7.560
 4260SOL    HW124842   1.102   7.221   7.525
 4260SOL    HW224843   1.036   7.296   7.654
 4261SOL     OW24844   0.749   5.575   9.092
 4261SOL    HW124845   0.756   5.481   9.059
 4261SOL    HW224846   0.806   5.585   9.174
 4262SOL     OW24847   1.672   6.176   8.360
 4262SOL    HW124848   1.657   6.267   8.397
 4262SOL    HW224849   1.742   6.129   8.414
 4263SOL     OW24850   1.082   6.842   9.126
 4263SOL    HW124851   1.104   6.752   9.088
 4263SOL    HW224852   1.017   6.889   9.067
 4264SOL     OW24853   0.737   6.684   9.130
 4264SOL    HW124854   0.708   6.761   9.187
 4264SOL    HW224855   0.747   6.603   9.188
 4265SOL     OW24856   1.372   5.548   8.236
 4265SOL    HW124857   1.321   5.632   8.218
 4265SOL    HW224858   1.458   5.550   8.185
 4266SOL     OW24859   1.727   5.754   9.165
 4266SOL    HW124860   1.704   5.775   9.260
 4266SOL    HW224861   1.703   5.659   9.145
 4267SOL     OW24862   0.030   6.158   7.909
 4267SOL    HW124863   0.032   6.109   7.996
 4267SOL    HW224864   0.032   6.257   7.927
 4268SOL     OW24865   0.351   5.746   8.230
 4268SOL    HW124866   0.403   5.786   8.305
 4268SOL    HW224867   0.404   5.673   8.187
 4269SOL     OW24868   0.335   5.794   8.564
 4269SOL    HW124869   0.300   5.701   8.564
 4269SOL    HW224870   0.422   5.797   8.515
 4270SOL     OW24871   1.002   6.416   8.304
 4270SOL    HW124872   1.028   6.496   8.250
 4270SOL    HW224873   0.996   6.336   8.244
 4271SOL     OW24874   0.203   7.043   7.763
 4271SOL    HW124875   0.230   6.949   7.783
 4271SOL    HW224876   0.228   7.065   7.669
 4272SOL     OW24877   1.485   6.912   8.637
 4272SOL    HW124878   1.456   6.949   8.548
 4272SOL    HW224879   1.407   6.912   8.699
 4273SOL     OW24880   0.217   7.186   8.000
 4273SOL    HW124881   0.133   7.237   8.018
 4273SOL    HW224882   0.208   7.135   7.915
 4274SOL     OW24883   1.738   6.983   8.675
 4274SOL    HW124884   1.769   6.997   8.769
 4274SOL    HW224885   1.639   6.970   8.674
 4275SOL     OW24886   0.490   6.483   7.402
 4275SOL    HW124887   0.459   6.517   7.314
 4275SOL    HW224888   0.494   6.558   7.468
 4276SOL     OW24889   1.007   6.670   8.701
 4276SOL    HW124890   1.057   6.585   8.685
 4276SOL    HW224891   0.961   6.697   8.616
 4277SOL     OW24892   0.094   6.375   7.575
 4277SOL    HW124893   0.154   6.322   7.635
 4277SOL    HW224894   0.000   6.343   7.587
 4278SOL     OW24895   1.614   6.373   7.775
 4278SOL    HW124896   1.682   6.307   7.742
 4278SOL    HW224897   1.629   6.461   7.731
 4279SOL     OW24898   0.862   7.360   8.423
 4279SOL    HW124899   0.908   7.293   8.365
 4279SOL    HW224900   0.788   7.316   8.473
 4280SOL     OW24901   0.769   6.429   7.459
 4280SOL    HW124902   0.798   6.348   7.510
 4280SOL    HW224903   0.669   6.428   7.450
 4281SOL     OW24904   1.365   5.961   7.805
 4281SOL    HW124905   1.302   6.019   7.753
 4281SOL    HW224906   1.458   5.995   7.793
 4282SOL     OW24907   0.262   6.162   8.905
 4282SOL    HW124908   0.282   6.067   8.880
 4282SOL    HW224909   0.225   6.165   8.998
 4283SOL     OW24910   0.144   5.817   8.795
 4283SOL    HW124911   0.216   5.827   8.726
 4283SOL    HW224912   0.055   5.816   8.750
 4284SOL     OW24913   1.042   6.438   8.560
 4284SOL    HW124914   1.036   6.424   8.461
 4284SOL    HW224915   0.961   6.399   8.604
 4285SOL     OW24916   1.633   5.972   7.875
 4285SOL    HW124917   1.729   5.943   7.872
 4285SOL    HW224918   1.594   5.950   7.964
 4286SOL     OW24919   0.917   7.047   8.312
 4286SOL    HW124920   0.975   7.058   8.231
 4286SOL    HW224921   0.823   7.071   8.290
 4287SOL     OW24922   0.867   5.913   7.597
 4287SOL    HW124923   0.776   5.926   7.635
 4287SOL    HW224924   0.927   5.873   7.667
 4288SOL     OW24925   0.978   6.858   7.532
 4288SOL    HW124926   1.031   6.798   7.592
 4288SOL    HW224927   1.017   6.859   7.441
 4289SOL     OW24928   1.729   7.153   8.017
 4289SOL    HW124929   1.696   7.246   8.036
 4289SOL    HW224930   1.727   7.137   7.918
 4290SOL     OW24931   1.144   6.426   8.006
 4290SOL    HW124932   1.209   6.454   8.077
 4290SOL    HW224933   1.065   6.487   8.008
 4291SOL     OW24934   0.892   7.152   9.030
 4291SOL    HW124935   0.880   7.083   8.959
 4291SOL    HW224936   0.855   7.117   9.117
 4292SOL     OW24937   1.336   6.466   8.209
 4292SOL    HW124938   1.357   6.408   8.287
 4292SOL    HW224939   1.345   6.562   8.235
 4293SOL     OW24940   0.292   6.595   8.255
 4293SOL    HW124941   0.215   6.657   8.248
 4293SOL    HW224942   0.329   6.596   8.348
 4294SOL     OW24943   0.925   6.543   7.954
 4294SOL    HW124944   0.912   6.454   7.911
 4294SOL    HW224945   0.856   6.557   8.025
 4295SOL     OW24946   1.229   6.931   8.793
 4295SOL    HW124947   1.262   7.016   8.834
 4295SOL    HW224948   1.130   6.927   8.800
 4296SOL     OW24949   0.036   5.848   7.857
 4296SOL    HW124950   0.096   5.799   7.795
 4296SOL    HW224951   0.091   5.900   7.922
 4297SOL     OW24952   1.659   7.346   7.548
 4297SOL    HW124953   1.749   7.390   7.550
 4297SOL    HW224954   1.658   7.277   7.476
 4298SOL     OW24955   0.823   6.313   8.706
 4298SOL    HW124956   0.825   6.399   8.757
 4298SOL    HW224957   0.880   6.245   8.753
 4299SOL     OW24958   0.060   7.340   8.777
 4299SOL    HW124959   0.068   7.440   8.775
 4299SOL    HW224960   0.036   7.311   8.870
 4300SOL     OW24961   0.841   6.359   7.771
 4300SOL    HW124962   0.752   6.387   7.736
 4300SOL    HW224963   0.882   6.293   7.707
 4301SOL     OW24964   0.363   6.077   8.310
 4301SOL    HW124965   0.419   6.070   8.227
 4301SOL    HW224966   0.420   6.055   8.390
 4302SOL     OW24967   0.360   7.275   7.581
 4302SOL    HW124968   0.452   7.305   7.556
 4302SOL    HW224969   0.335   7.314   7.670
 4303SOL     OW24970   1.336   7.297   8.518
 4303SOL    HW124971   1.355   7.360   8.444
 4303SOL    HW224972   1.344   7.203   8.485
 4304SOL     OW24973   0.041   6.692   8.330
 4304SOL    HW124974  -0.049   6.708   8.291
 4304SOL    HW224975   0.039   6.608   8.385
 4305SOL     OW24976   0.792   5.597   7.780
 4305SOL    HW124977   0.753   5.586   7.689
 4305SOL    HW224978   0.748   5.673   7.827
 4306SOL     OW24979   0.037   6.733   7.874
 4306SOL    HW124980   0.115   6.791   7.898
 4306SOL    HW224981   0.056   6.684   7.789
 4307SOL     OW24982   1.567   5.861   8.958
 4307SOL    HW124983   1.506   5.939   8.955
 4307SOL    HW224984   1.622   5.865   9.041
 4308SOL     OW24985   1.283   5.807   8.249
 4308SOL    HW124986   1.282   5.885   8.186
 4308SOL    HW224987   1.326   5.834   8.335
 4309SOL     OW24988   1.403   5.613   7.545
 4309SOL    HW124989   1.483   5.553   7.542
 4309SOL    HW224990   1.329   5.566   7.593
 4310SOL     OW24991   1.616   5.585   8.979
 4310SOL    HW124992   1.642   5.542   8.893
 4310SOL    HW224993   1.566   5.669   8.961
 4311SOL     OW24994   0.718   5.844   8.111
 4311SOL    HW124995   0.707   5.786   8.192
 4311SOL    HW224996   0.803   5.896   8.119
 4312SOL     OW24997   1.298   6.195   8.503
 4312SOL    HW124998   1.352   6.235   8.429
 4312SOL    HW224999   1.336   6.224   8.591
 4313SOL     OW25000   1.591   5.601   7.819
 4313SOL    HW125001   1.598   5.555   7.731
 4313SOL    HW225002   1.495   5.611   7.844
 4314SOL     OW25003   0.567   6.916   9.182
 4314SOL    HW125004   0.528   6.979   9.115
 4314SOL    HW225005   0.650   6.956   9.222
 4315SOL     OW25006   0.443   6.648   9.014
 4315SOL    HW125007   0.462   6.672   8.919
 4315SOL    HW225008   0.436   6.731   9.069
 4316SOL     OW25009   0.104   6.938   8.488
 4316SOL    HW125010   0.073   6.864   8.429
 4316SOL    HW225011   0.036   6.956   8.559
 4317SOL     OW25012   1.190   6.139   8.221
 4317SOL    HW125013   1.272   6.116   8.169
 4317SOL    HW225014   1.185   6.080   8.302
 4318SOL     OW25015   1.790   6.166   9.057
 4318SOL    HW125016   1.779   6.252   9.006
 4318SOL    HW225017   1.884   6.157   9.087
 4319SOL     OW25018   1.361   5.939   8.476
 4319SOL    HW125019   1.335   6.036   8.482
 4319SOL    HW225020   1.361   5.899   8.568
 4320SOL     OW25021   1.591   6.071   9.227
 4320SOL    HW125022   1.671   6.096   9.171
 4320SOL    HW225023   1.622   6.036   9.315
 4321SOL     OW25024   1.302   6.374   7.807
 4321SOL    HW125025   1.248   6.372   7.891
 4321SOL    HW225026   1.379   6.437   7.818
 4322SOL     OW25027   1.599   6.470   8.027
 4322SOL    HW125028   1.613   6.433   7.934
 4322SOL    HW225029   1.510   6.440   8.061
 4323SOL     OW25030   1.609   5.827   7.601
 4323SOL    HW125031   1.614   5.869   7.692
 4323SOL    HW225032   1.542   5.752   7.603
 4324SOL     OW25033   0.756   7.042   8.821
 4324SOL    HW125034   0.693   7.120   8.828
 4324SOL    HW225035   0.724   6.980   8.749
 4325SOL     OW25036   0.147   5.837   9.086
 4325SOL    HW125037   0.165   5.826   8.988
 4325SOL    HW225038   0.049   5.833   9.103
 4326SOL     OW25039   0.027   7.251   9.030
 4326SOL    HW125040   0.099   7.237   9.098
 4326SOL    HW225041  -0.062   7.254   9.075
 4327SOL     OW25042   0.195   5.907   8.054
 4327SOL    HW125043   0.138   5.962   8.115
 4327SOL    HW225044   0.265   5.859   8.107
 4328SOL     OW25045   1.367   7.139   8.917
 4328SOL    HW125046   1.320   7.207   8.972
 4328SOL    HW225047   1.434   7.185   8.858
 4329SOL     OW25048   0.332   6.098   7.652
 4329SOL    HW125049   0.404   6.127   7.589
 4329SOL    HW225050   0.288   6.178   7.692
 4330SOL     OW25051   1.718   5.760   8.755
 4330SOL    HW125052   1.674   5.808   8.831
 4330SOL    HW225053   1.696   5.806   8.669
 4331SOL     OW25054   0.447   7.361   8.118
 4331SOL    HW125055   0.371   7.327   8.063
 4331SOL    HW225056   0.533   7.324   8.083
 4332SOL     OW25057   0.372   6.870   8.563
 4332SOL    HW125058   0.384   6.886   8.660
 4332SOL    HW225059   0.285   6.910   8.533
 4333SOL     OW25060   1.256   7.074   9.209
 4333SOL    HW125061   1.215   6.989   9.175
 4333SOL    HW225062   1.236   7.148   9.145
 4334SOL     OW25063   0.746   6.794   7.899
 4334SOL    HW125064   0.789   6.725   7.841
 4334SOL    HW225065   0.710   6.751   7.982
 4335SOL     OW25066   0.378   6.345   8.101
 4335SOL    HW125067   0.370   6.443   8.119
 4335SOL    HW225068   0.462   6.311   8.142
 4336SOL     OW25069   0.224   5.825   7.616
 4336SOL    HW125070   0.268   5.794   7.533
 4336SOL    HW225071   0.225   5.925   7.620
 4337SOL     OW25072   0.077   6.077   8.227
 4337SOL    HW125073   0.041   6.170   8.219
 4337SOL    HW225074   0.160   6.078   8.283
 4338SOL     OW25075   0.512   6.664   7.613
 4338SOL    HW125076   0.612   6.664   7.624
 4338SOL    HW225077   0.481   6.757   7.592
 4339SOL     OW25078   0.873   6.175   7.572
 4339SOL    HW125079   0.963   6.176   7.527
 4339SOL    HW225080   0.850   6.081   7.597
 4340SOL     OW25081   1.324   5.692   7.866
 4340SOL    HW125082   1.234   5.676   7.907
 4340SOL    HW225083   1.332   5.788   7.840
 4341SOL     OW25084   1.438   6.092   8.882
 4341SOL    HW125085   1.390   6.115   8.966
 4341SOL    HW225086   1.372   6.062   8.813
 4342SOL     OW25087   0.073   5.607   7.526
 4342SOL    HW125088   0.136   5.530   7.534
 4342SOL    HW225089   0.093   5.675   7.597
 4343SOL     OW25090   0.346   6.582   8.527
 4343SOL    HW125091   0.357   6.537   8.616
 4343SOL    HW225092   0.373   6.678   8.534
 4344SOL     OW25093   1.645   6.594   7.627
 4344SOL    HW125094   1.716   6.664   7.629
 4344SOL    HW225095   1.632   6.564   7.532
 4345SOL     OW25096   0.627   6.195   8.549
 4345SOL    HW125097   0.702   6.238   8.598
 4345SOL    HW225098   0.560   6.160   8.615
 4346SOL     OW25099   0.770   6.564   8.866
 4346SOL    HW125100   0.839   6.616   8.816
 4346SOL    HW225101   0.765   6.597   8.961
 4347SOL     OW25102   1.162   6.585   9.026
 4347SOL    HW125103   1.084   6.531   9.059
 4347SOL    HW225104   1.243   6.563   9.081
 4348SOL     OW25105   1.091   5.767   8.022
 4348SOL    HW125106   1.150   5.827   8.077
 4348SOL    HW225107   1.018   5.731   8.079
 4349SOL     OW25108   1.201   7.299   9.062
 4349SOL    HW125109   1.106   7.297   9.030
 4349SOL    HW225110   1.222   7.390   9.099
 4350SOL     OW25111   0.619   5.644   8.293
 4350SOL    HW125112   0.547   5.577   8.279
 4350SOL    HW225113   0.701   5.598   8.328
 4351SOL     OW25114   0.319   7.309   8.660
 4351SOL    HW125115   0.299   7.291   8.564
 4351SOL    HW225116   0.246   7.271   8.717
 4352SOL     OW25117   1.012   6.773   8.205
 4352SOL    HW125118   1.051   6.816   8.124
 4352SOL    HW225119   1.085   6.756   8.272
 4353SOL     OW25120   0.706   6.501   8.407
 4353SOL    HW125121   0.704   6.417   8.352
 4353SOL    HW225122   0.655   6.487   8.492
 4354SOL     OW25123   0.045   6.511   8.533
 4354SOL    HW125124   0.134   6.489   8.573
 4354SOL    HW225125  -0.010   6.427   8.529
 4355SOL     OW25126   0.273   5.556   7.813
 4355SOL    HW125127   0.311   5.644   7.840
 4355SOL    HW225128   0.196   5.532   7.873
 4356SOL     OW25129   0.689   6.173   9.141
 4356SOL    HW125130   0.641   6.224   9.070
 4356SOL    HW225131   0.782   6.152   9.111
 4357SOL     OW25132   0.095   6.643   7.633
 4357SOL    HW125133   0.085   6.546   7.612
 4357SOL    HW225134   0.148   6.688   7.561
 4358SOL     OW25135   1.792   5.755   8.234
 4358SOL    HW125136   1.747   5.737   8.321
 4358SOL    HW225137   1.890   5.772   8.250
 4359SOL     OW25138   0.840   6.731   8.486
 4359SOL    HW125139   0.791   6.646   8.467
 4359SOL    HW225140   0.910   6.746   8.417
 4360SOL     OW25141   1.178   6.154   7.695
 4360SOL    HW125142   1.230   6.226   7.741
 4360SOL    HW225143   1.191   6.161   7.597
 4361SOL     OW25144   1.539   6.969   9.022
 4361SOL    HW125145   1.524   6.871   9.036
 4361SOL    HW225146   1.456   7.011   8.986
 4362SOL     OW25147   0.296   6.411   8.762
 4362SOL    HW125148   0.260   6.321   8.788
 4362SOL    HW225149   0.257   6.481   8.822
 4363SOL     OW25150   0.798   7.037   7.420
 4363SOL    HW125151   0.773   7.114   7.479
 4363SOL    HW225152   0.862   6.977   7.468
 4364SOL     OW25153   0.616   7.244   8.454
 4364SOL    HW125154   0.636   7.214   8.361
 4364SOL    HW225155   0.541   7.189   8.491
 4365SOL     OW25156   0.759   6.655   8.171
 4365SOL    HW125157   0.848   6.701   8.171
 4365SOL    HW225158   0.752   6.595   8.250
 4366SOL     OW25159   0.937   7.002   7.840
 4366SOL    HW125160   0.987   6.990   7.755
 4366SOL    HW225161   0.883   6.919   7.859
 4367SOL     OW25162   0.127   6.349   8.240
 4367SOL    HW125163   0.222   6.340   8.208
 4367SOL    HW225164   0.093   6.441   8.219
 4368SOL     OW25165   0.064   6.466   9.167
 4368SOL    HW125166  -0.021   6.417   9.148
 4368SOL    HW225167   0.091   6.453   9.262
 4369SOL     OW25168   0.961   7.375   8.873
 4369SOL    HW125169   0.933   7.288   8.914
 4369SOL    HW225170   0.905   7.449   8.910
 4370SOL     OW25171   1.190   6.722   8.403
 4370SOL    HW125172   1.174   6.816   8.434
 4370SOL    HW225173   1.193   6.661   8.483
 4371SOL     OW25174   0.464   5.993   9.167
 4371SOL    HW125175   0.500   5.940   9.090
 4371SOL    HW225176   0.525   6.070   9.185
 4372SOL     OW25177   0.528   6.410   7.739
 4372SOL    HW125178   0.478   6.475   7.683
 4372SOL    HW225179   0.470   6.331   7.758
 4373SOL     OW25180   1.609   6.441   8.437
 4373SOL    HW125181   1.628   6.480   8.346
 4373SOL    HW225182   1.563   6.510   8.493
 4374SOL     OW25183   1.301   5.884   8.733
 4374SOL    HW125184   1.372   5.856   8.797
 4374SOL    HW225185   1.248   5.804   8.705
 4375SOL     OW25186   0.002   5.583   7.934
 4375SOL    HW125187  -0.085   5.570   7.887
 4375SOL    HW225188   0.010   5.678   7.964
 4376SOL     OW25189   1.223   5.684   9.175
 4376SOL    HW125190   1.282   5.700   9.255
 4376SOL    HW225191   1.170   5.767   9.156
 4377SOL     OW25192   0.439   7.103   9.000
 4377SOL    HW125193   0.381   7.168   9.049
 4377SOL    HW225194   0.501   7.153   8.940
 4378SOL     OW25195   1.795   6.990   8.941
 4378SOL    HW125196   1.823   7.083   8.963
 4378SOL    HW225197   1.702   6.974   8.974
 4379SOL     OW25198   1.045   6.103   8.491
 4379SOL    HW125199   1.131   6.154   8.490
 4379SOL    HW225200   1.051   6.029   8.558
 4380SOL     OW25201   0.449   7.049   8.063
 4380SOL    HW125202   0.447   6.950   8.076
 4380SOL    HW225203   0.358   7.082   8.040
 4381SOL     OW25204   1.090   7.166   8.651
 4381SOL    HW125205   1.016   7.230   8.669
 4381SOL    HW225206   1.169   7.215   8.613
 4382SOL     OW25207   0.299   7.296   9.150
 4382SOL    HW125208   0.342   7.380   9.116
 4382SOL    HW225209   0.324   7.283   9.246
 4383SOL     OW25210   0.159   6.832   9.021
 4383SOL    HW125211   0.138   6.737   8.994
 4383SOL    HW225212   0.090   6.893   8.983
 4384SOL     OW25213   0.248   7.197   8.425
 4384SOL    HW125214   0.190   7.117   8.439
 4384SOL    HW225215   0.272   7.204   8.328
 4385SOL     OW25216   0.994   5.718   8.280
 4385SOL    HW125217   1.090   5.719   8.308
 4385SOL    HW225218   0.939   5.675   8.352
 4386SOL     OW25219   1.056   6.724   7.796
 4386SOL    HW125220   1.136   6.760   7.844
 4386SOL    HW225221   1.014   6.651   7.852
 4387SOL     OW25222   1.647   5.991   8.160
 4387SOL    HW125223   1.666   6.077   8.207
 4387SOL    HW225224   1.715   5.922   8.188
 4388SOL     OW25225   0.790   6.663   7.646
 4388SOL    HW125226   0.862   6.722   7.611
 4388SOL    HW225227   0.830   6.579   7.682
 4389SOL     OW25228   0.861   5.639   7.498
 4389SOL    HW125229   0.936   5.573   7.510
 4389SOL    HW225230   0.892   5.730   7.526
 4390SOL     OW25231   0.540   6.068   8.110
 4390SOL    HW125232   0.578   5.979   8.136
 4390SOL    HW225233   0.607   6.118   8.055
 4391SOL     OW25234   0.528   6.626   8.764
 4391SOL    HW125235   0.624   6.606   8.784
 4391SOL    HW225236   0.517   6.724   8.746
 4392SOL     OW25237   1.750   6.669   8.733
 4392SOL    HW125238   1.764   6.767   8.747
 4392SOL    HW225239   1.807   6.638   8.657
 4393SOL     OW25240   0.233   6.778   7.425
 4393SOL    HW125241   0.225   6.790   7.326
 4393SOL    HW225242   0.292   6.849   7.463
 4394SOL     OW25243   0.660   7.217   7.585
 4394SOL    HW125244   0.635   7.312   7.569
 4394SOL    HW225245   0.627   7.189   7.675
 4395SOL     OW25246   1.310   6.640   8.809
 4395SOL    HW125247   1.254   6.599   8.880
 4395SOL    HW225248   1.290   6.738   8.803
 4396SOL     OW25249   0.577   7.256   8.809
 4396SOL    HW125250   0.626   7.336   8.773
 4396SOL    HW225251   0.485   7.254   8.770
 4397SOL     OW25252   0.220   6.137   9.171
 4397SOL    HW125253   0.237   6.038   9.176
 4397SOL    HW225254   0.284   6.185   9.232
 4398SOL     OW25255   1.659   7.098   8.410
 4398SOL    HW125256   1.631   7.191   8.434
 4398SOL    HW225257   1.709   7.057   8.486
 4399SOL     OW25258   0.055   6.471   7.971
 4399SOL    HW125259   0.062   6.570   7.958
 4399SOL    HW225260  -0.036   6.448   8.005
 4400SOL     OW25261   0.564   6.269   8.909
 4400SOL    HW125262   0.470   6.239   8.890
 4400SOL    HW225263   0.573   6.366   8.886
 4401SOL     OW25264   1.631   6.645   8.221
 4401SOL    HW125265   1.593   6.734   8.194
 4401SOL    HW225266   1.631   6.583   8.143
 4402SOL     OW25267   0.789   6.051   8.390
 4402SOL    HW125268   0.881   6.079   8.417
 4402SOL    HW225269   0.721   6.102   8.444
 4403SOL     OW25270   0.642   6.902   8.617
 4403SOL    HW125271   0.555   6.901   8.568
 4403SOL    HW225272   0.708   6.842   8.570
 4404SOL     OW25273   0.208   6.244   8.531
 4404SOL    HW125274   0.246   6.303   8.602
 4404SOL    HW225275   0.191   6.297   8.449
 4405SOL     OW25276   0.379   6.890   8.829
 4405SOL    HW125277   0.398   6.978   8.873
 4405SOL    HW225278   0.284   6.864   8.847
 4406SOL     OW25279   1.622   7.206   9.177
 4406SOL    HW125280   1.591   7.128   9.122
 4406SOL    HW225281   1.591   7.291   9.135
 4407SOL     OW25282   1.330   6.744   7.898
 4407SOL    HW125283   1.429   6.748   7.914
 4407SOL    HW225284   1.313   6.730   7.800
 4408SOL     OW25285   0.683   5.910   7.846
 4408SOL    HW125286   0.585   5.904   7.826
 4408SOL    HW225287   0.702   5.867   7.934
 4409SOL     OW25288   1.603   5.593   8.105
 4409SOL    HW125289   1.598   5.634   8.014
 4409SOL    HW225290   1.684   5.627   8.152
 4410SOL     OW25291   1.206   6.349   8.798
 4410SOL    HW125292   1.305   6.358   8.788
 4410SOL    HW225293   1.162   6.351   8.708
 4411SOL     OW25294   0.700   6.309   8.200
 4411SOL    HW125295   0.722   6.231   8.258
 4411SOL    HW225296   0.709   6.283   8.104
 4412SOL     OW25297   1.365   7.016   8.412
 4412SOL    HW125298   1.279   6.973   8.441
 4412SOL    HW225299   1.354   7.056   8.321
 4413SOL     OW25300   1.368   6.001   8.087
 4413SOL    HW125301   1.367   5.993   7.988
 4413SOL    HW225302   1.457   5.973   8.122
 4414SOL     OW25303   1.095   7.017   9.919
 4414SOL    HW125304   1.186   7.051   9.942
 4414SOL    HW225305   1.067   7.055   9.831
 4415SOL     OW25306   1.606   6.813   9.777
 4415SOL    HW125307   1.617   6.897   9.831
 4415SOL    HW225308   1.696   6.776   9.754
 4416SOL     OW25309   0.353   5.732   9.246
 4416SOL    HW125310   0.266   5.729   9.197
 4416SOL    HW225311   0.404   5.814   9.218
 4417SOL     OW25312   0.563   7.086   9.650
 4417SOL    HW125313   0.519   7.095   9.739
 4417SOL    HW225314   0.634   7.016   9.654
 4418SOL     OW25315   0.581   5.619   9.372
 4418SOL    HW125316   0.669   5.647   9.333
 4418SOL    HW225317   0.509   5.682   9.342
 4419SOL     OW25318   0.490   6.759   9.945
 4419SOL    HW125319   0.423   6.713  10.004
 4419SOL    HW225320   0.582   6.727   9.968
 4420SOL     OW25321   0.717   6.165   9.776
 4420SOL    HW125322   0.756   6.235   9.717
 4420SOL    HW225323   0.691   6.085   9.722
 4421SOL     OW25324   0.420   6.928   9.429
 4421SOL    HW125325   0.484   6.944   9.354
 4421SOL    HW225326   0.444   6.986   9.507
 4422SOL     OW25327   0.268   6.310   9.657
 4422SOL    HW125328   0.283   6.244   9.731
 4422SOL    HW225329   0.218   6.389   9.692
 4423SOL     OW25330   0.854   7.255   9.834
 4423SOL    HW125331   0.919   7.188   9.798
 4423SOL    HW225332   0.844   7.331   9.770
 4424SOL     OW25333   1.746   7.137   9.576
 4424SOL    HW125334   1.842   7.111   9.569
 4424SOL    HW225335   1.722   7.197   9.500
 4425SOL     OW25336   1.058   5.859   9.616
 4425SOL    HW125337   1.083   5.953   9.637
 4425SOL    HW225338   1.059   5.805   9.700
 4426SOL     OW25339   0.508   6.217   9.344
 4426SOL    HW125340   0.468   6.296   9.297
 4426SOL    HW225341   0.597   6.196   9.304
 4427SOL     OW25342   1.627   6.973  10.018
 4427SOL    HW125343   1.623   7.008  10.111
 4427SOL    HW225344   1.686   7.032   9.962
 4428SOL     OW25345   0.358   6.794   9.694
 4428SOL    HW125346   0.404   6.768   9.779
 4428SOL    HW225347   0.378   6.726   9.623
 4429SOL     OW25348   1.216   5.849   9.405
 4429SOL    HW125349   1.310   5.819   9.423
 4429SOL    HW225350   1.164   5.849   9.491
 4430SOL     OW25351   0.403   5.826   9.659
 4430SOL    HW125352   0.357   5.866   9.738
 4430SOL    HW225353   0.351   5.845   9.577
 4431SOL     OW25354   1.843   7.297  10.339
 4431SOL    HW125355   1.889   7.307  10.427
 4431SOL    HW225356   1.910   7.300  10.266
 4432SOL     OW25357   0.956   6.037   9.901
 4432SOL    HW125358   1.032   6.065   9.960
 4432SOL    HW225359   0.912   6.117   9.862
 4433SOL     OW25360   1.191   6.501   9.418
 4433SOL    HW125361   1.228   6.451   9.496
 4433SOL    HW225362   1.121   6.446   9.373
 4434SOL     OW25363   1.774   6.170   9.497
 4434SOL    HW125364   1.795   6.089   9.443
 4434SOL    HW225365   1.791   6.151   9.594
 4435SOL     OW25366   1.068   7.308   9.405
 4435SOL    HW125367   1.102   7.221   9.370
 4435SOL    HW225368   1.036   7.296   9.499
 4436SOL     OW25369   0.030   6.158   9.754
 4436SOL    HW125370   0.032   6.109   9.841
 4436SOL    HW225371   0.032   6.257   9.772
 4437SOL     OW25372   0.203   7.043   9.608
 4437SOL    HW125373   0.230   6.949   9.628
 4437SOL    HW225374   0.228   7.065   9.514
 4438SOL     OW25375   0.217   7.186   9.845
 4438SOL    HW125376   0.133   7.237   9.863
 4438SOL    HW225377   0.208   7.135   9.760
 4439SOL     OW25378   0.490   6.483   9.247
 4439SOL    HW125379   0.459   6.517   9.159
 4439SOL    HW225380   0.494   6.558   9.313
 4440SOL     OW25381   0.094   6.375   9.420
 4440SOL    HW125382   0.154   6.322   9.480
 4440SOL    HW225383   0.000   6.343   9.432
 4441SOL     OW25384   1.614   6.373   9.620
 4441SOL    HW125385   1.682   6.307   9.587
 4441SOL    HW225386   1.629   6.461   9.576
 4442SOL     OW25387   0.769   6.429   9.304
 4442SOL    HW125388   0.798   6.348   9.355
 4442SOL    HW225389   0.669   6.428   9.295
 4443SOL     OW25390   1.365   5.961   9.650
 4443SOL    HW125391   1.302   6.019   9.598
 4443SOL    HW225392   1.458   5.995   9.638
 4444SOL     OW25393   1.633   5.972   9.720
 4444SOL    HW125394   1.729   5.943   9.717
 4444SOL    HW225395   1.594   5.950   9.809
 4445SOL     OW25396   0.867   5.913   9.442
 4445SOL    HW125397   0.776   5.926   9.480
 4445SOL    HW225398   0.927   5.873   9.512
 4446SOL     OW25399   0.978   6.858   9.377
 4446SOL    HW125400   1.031   6.798   9.437
 4446SOL    HW225401   1.017   6.859   9.286
 4447SOL     OW25402   1.729   7.153   9.862
 4447SOL    HW125403   1.696   7.246   9.881
 4447SOL    HW225404   1.727   7.137   9.763
 4448SOL     OW25405   1.144   6.426   9.851
 4448SOL    HW125406   1.209   6.454   9.922
 4448SOL    HW225407   1.065   6.487   9.853
 4449SOL     OW25408   1.336   6.466  10.054
 4449SOL    HW125409   1.357   6.408  10.132
 4449SOL    HW225410   1.345   6.562  10.080
 4450SOL     OW25411   0.925   6.543   9.799
 4450SOL    HW125412   0.912   6.454   9.756
 4450SOL    HW225413   0.856   6.557   9.870
 4451SOL     OW25414   0.036   5.848   9.702
 4451SOL    HW125415   0.096   5.799   9.640
 4451SOL    HW225416   0.091   5.900   9.767
 4452SOL     OW25417   1.659   7.346   9.393
 4452SOL    HW125418   1.749   7.390   9.395
 4452SOL    HW225419   1.658   7.277   9.321
 4453SOL     OW25420   0.841   6.359   9.616
 4453SOL    HW125421   0.752   6.387   9.581
 4453SOL    HW225422   0.882   6.293   9.552
 4454SOL     OW25423   0.360   7.275   9.426
 4454SOL    HW125424   0.452   7.305   9.401
 4454SOL    HW225425   0.335   7.314   9.515
 4455SOL     OW25426   0.792   5.597   9.625
 4455SOL    HW125427   0.753   5.586   9.534
 4455SOL    HW225428   0.748   5.673   9.672
 4456SOL     OW25429   0.037   6.733   9.719
 4456SOL    HW125430   0.115   6.791   9.743
 4456SOL    HW225431   0.056   6.684   9.634
 4457SOL     OW25432   1.403   5.613   9.390
 4457SOL    HW125433   1.483   5.553   9.387
 4457SOL    HW225434   1.329   5.566   9.438
 4458SOL     OW25435   0.718   5.844   9.956
 4458SOL    HW125436   0.707   5.786  10.037
 4458SOL    HW225437   0.803   5.896   9.964
 4459SOL     OW25438   1.591   5.601   9.664
 4459SOL    HW125439   1.598   5.555   9.576
 4459SOL    HW225440   1.495   5.611   9.689
 4460SOL     OW25441   1.302   6.374   9.652
 4460SOL    HW125442   1.248   6.372   9.736
 4460SOL    HW225443   1.379   6.437   9.663
 4461SOL     OW25444   1.599   6.470   9.872
 4461SOL    HW125445   1.613   6.433   9.779
 4461SOL    HW225446   1.510   6.440   9.906
 4462SOL     OW25447   1.609   5.827   9.446
 4462SOL    HW125448   1.614   5.869   9.537
 4462SOL    HW225449   1.542   5.752   9.448
 4463SOL     OW25450   0.332   6.098   9.497
 4463SOL    HW125451   0.404   6.127   9.434
 4463SOL    HW225452   0.288   6.178   9.537
 4464SOL     OW25453   0.447   7.361   9.963
 4464SOL    HW125454   0.371   7.327   9.908
 4464SOL    HW225455   0.533   7.324   9.928
 4465SOL     OW25456   0.746   6.794   9.744
 4465SOL    HW125457   0.789   6.725   9.686
 4465SOL    HW225458   0.710   6.751   9.827
 4466SOL     OW25459   0.224   5.825   9.461
 4466SOL    HW125460   0.268   5.794   9.378
 4466SOL    HW225461   0.225   5.925   9.465
 4467SOL     OW25462   0.077   6.077  10.072
 4467SOL    HW125463   0.041   6.170  10.064
 4467SOL    HW225464   0.160   6.078  10.128
 4468SOL     OW25465   0.512   6.664   9.458
 4468SOL    HW125466   0.612   6.664   9.469
 4468SOL    HW225467   0.481   6.757   9.437
 4469SOL     OW25468   1.138   6.256   9.274
 4469SOL    HW125469   1.069   6.313   9.230
 4469SOL    HW225470   1.219   6.250   9.215
 4470SOL     OW25471   0.873   6.175   9.417
 4470SOL    HW125472   0.963   6.176   9.372
 4470SOL    HW225473   0.850   6.081   9.442
 4471SOL     OW25474   1.324   5.692   9.711
 4471SOL    HW125475   1.234   5.676   9.752
 4471SOL    HW225476   1.332   5.788   9.685
 4472SOL     OW25477   0.073   5.607   9.371
 4472SOL    HW125478   0.136   5.530   9.379
 4472SOL    HW225479   0.093   5.675   9.442
 4473SOL     OW25480   1.645   6.594   9.472
 4473SOL    HW125481   1.716   6.664   9.474
 4473SOL    HW225482   1.632   6.564   9.377
 4474SOL     OW25483   1.091   5.767   9.867
 4474SOL    HW125484   1.150   5.827   9.922
 4474SOL    HW225485   1.018   5.731   9.924
 4475SOL     OW25486   0.273   5.556   9.658
 4475SOL    HW125487   0.311   5.644   9.685
 4475SOL    HW225488   0.196   5.532   9.718
 4476SOL     OW25489   0.095   6.643   9.478
 4476SOL    HW125490   0.085   6.546   9.457
 4476SOL    HW225491   0.148   6.688   9.406
 4477SOL     OW25492   1.792   5.755  10.079
 4477SOL    HW125493   1.747   5.737  10.166
 4477SOL    HW225494   1.890   5.772  10.095
 4478SOL     OW25495   1.178   6.154   9.540
 4478SOL    HW125496   1.230   6.226   9.586
 4478SOL    HW225497   1.191   6.161   9.442
 4479SOL     OW25498   0.798   7.037   9.265
 4479SOL    HW125499   0.773   7.114   9.324
 4479SOL    HW225500   0.862   6.977   9.313
 4480SOL     OW25501   0.759   6.655  10.016
 4480SOL    HW125502   0.848   6.701  10.016
 4480SOL    HW225503   0.752   6.595  10.095
 4481SOL     OW25504   0.937   7.002   9.685
 4481SOL    HW125505   0.987   6.990   9.600
 4481SOL    HW225506   0.883   6.919   9.704
 4482SOL     OW25507   0.528   6.410   9.584
 4482SOL    HW125508   0.478   6.475   9.528
 4482SOL    HW225509   0.470   6.331   9.603
 4483SOL     OW25510   0.002   5.583   9.779
 4483SOL    HW125511  -0.085   5.570   9.732
 4483SOL    HW225512   0.010   5.678   9.809
 4484SOL     OW25513   0.449   7.049   9.908
 4484SOL    HW125514   0.447   6.950   9.921
 4484SOL    HW225515   0.358   7.082   9.885
 4485SOL     OW25516   1.056   6.724   9.641
 4485SOL    HW125517   1.136   6.760   9.689
 4485SOL    HW225518   1.014   6.651   9.697
 4486SOL     OW25519   0.790   6.663   9.491
 4486SOL    HW125520   0.862   6.722   9.456
 4486SOL    HW225521   0.830   6.579   9.527
 4487SOL     OW25522   0.861   5.639   9.343
 4487SOL    HW125523   0.936   5.573   9.355
 4487SOL    HW225524   0.892   5.730   9.371
 4488SOL     OW25525   0.540   6.068   9.955
 4488SOL    HW125526   0.578   5.979   9.981
 4488SOL    HW225527   0.607   6.118   9.900
 4489SOL     OW25528   0.233   6.778   9.270
 4489SOL    HW125529   0.225   6.790   9.171
 4489SOL    HW225530   0.292   6.849   9.308
 4490SOL     OW25531   0.660   7.217   9.430
 4490SOL    HW125532   0.635   7.312   9.414
 4490SOL    HW225533   0.627   7.189   9.520
 4491SOL     OW25534   0.055   6.471   9.816
 4491SOL    HW125535   0.062   6.570   9.803
 4491SOL    HW225536  -0.036   6.448   9.850
 4492SOL     OW25537   1.330   6.744   9.743
 4492SOL    HW125538   1.429   6.748   9.759
 4492SOL    HW225539   1.313   6.730   9.645
 4493SOL     OW25540   0.683   5.910   9.691
 4493SOL    HW125541   0.585   5.904   9.671
 4493SOL    HW225542   0.702   5.867   9.779
 4494SOL     OW25543   1.603   5.593   9.950
 4494SOL    HW125544   1.598   5.634   9.859
 4494SOL    HW225545   1.684   5.627   9.997
 4495SOL     OW25546   1.095   8.863   0.692
 4495SOL    HW125547   1.186   8.897   0.715
 4495SOL    HW225548   1.067   8.901   0.604
 4496SOL     OW25549   1.606   8.659   0.550
 4496SOL    HW125550   1.617   8.743   0.604
 4496SOL    HW225551   1.696   8.622   0.527
 4497SOL     OW25552   1.686   7.941   1.414
 4497SOL    HW125553   1.588   7.933   1.436
 4497SOL    HW225554   1.739   7.930   1.498
 4498SOL     OW25555   0.353   7.578   0.019
 4498SOL    HW125556   0.266   7.575  -0.030
 4498SOL    HW225557   0.404   7.660  -0.009
 4499SOL     OW25558   1.340   8.967   0.794
 4499SOL    HW125559   1.329   9.064   0.817
 4499SOL    HW225560   1.433   8.950   0.764
 4500SOL     OW25561   0.956   8.258   1.729
 4500SOL    HW125562   0.921   8.233   1.639
 4500SOL    HW225563   0.880   8.279   1.790
 4501SOL     OW25564   0.563   8.932   0.423
 4501SOL    HW125565   0.519   8.941   0.512
 4501SOL    HW225566   0.634   8.862   0.427
 4502SOL     OW25567   0.581   7.465   0.145
 4502SOL    HW125568   0.669   7.493   0.106
 4502SOL    HW225569   0.509   7.528   0.115
 4503SOL     OW25570   1.551   8.450   1.528
 4503SOL    HW125571   1.459   8.455   1.490
 4503SOL    HW225572   1.616   8.488   1.462
 4504SOL     OW25573   1.451   8.457   1.209
 4504SOL    HW125574   1.376   8.446   1.274
 4504SOL    HW225575   1.488   8.550   1.215
 4505SOL     OW25576   0.947   8.712   1.509
 4505SOL    HW125577   0.890   8.775   1.455
 4505SOL    HW225578   0.980   8.638   1.450
 4506SOL     OW25579   0.490   8.605   0.718
 4506SOL    HW125580   0.423   8.559   0.777
 4506SOL    HW225581   0.582   8.573   0.741
 4507SOL     OW25582   0.717   8.011   0.549
 4507SOL    HW125583   0.756   8.081   0.490
 4507SOL    HW225584   0.691   7.931   0.495
 4508SOL     OW25585   1.337   7.919   1.758
 4508SOL    HW125586   1.433   7.923   1.784
 4508SOL    HW225587   1.293   7.843   1.805
 4509SOL     OW25588   0.420   8.774   0.202
 4509SOL    HW125589   0.484   8.790   0.127
 4509SOL    HW225590   0.444   8.832   0.280
 4510SOL     OW25591   0.571   7.730   1.012
 4510SOL    HW125592   0.647   7.795   1.008
 4510SOL    HW225593   0.601   7.641   0.979
 4511SOL     OW25594   0.268   8.156   0.430
 4511SOL    HW125595   0.283   8.090   0.504
 4511SOL    HW225596   0.218   8.235   0.465
 4512SOL     OW25597   0.854   9.101   0.607
 4512SOL    HW125598   0.919   9.034   0.571
 4512SOL    HW225599   0.844   9.177   0.543
 4513SOL     OW25600   1.746   8.983   0.349
 4513SOL    HW125601   1.842   8.957   0.342
 4513SOL    HW225602   1.722   9.043   0.273
 4514SOL     OW25603   1.658   7.676   1.120
 4514SOL    HW125604   1.709   7.748   1.073
 4514SOL    HW225605   1.563   7.703   1.129
 4515SOL     OW25606   1.058   7.705   0.389
 4515SOL    HW125607   1.083   7.799   0.410
 4515SOL    HW225608   1.059   7.651   0.473
 4516SOL     OW25609   0.182   8.418   1.574
 4516SOL    HW125610   0.278   8.433   1.592
 4516SOL    HW225611   0.144   8.356   1.643
 4517SOL     OW25612   0.508   8.063   0.117
 4517SOL    HW125613   0.468   8.142   0.070
 4517SOL    HW225614   0.597   8.042   0.077
 4518SOL     OW25615   1.023   8.019   1.569
 4518SOL    HW125616   1.056   7.936   1.616
 4518SOL    HW225617   1.096   8.087   1.568
 4519SOL     OW25618   1.627   8.819   0.791
 4519SOL    HW125619   1.623   8.854   0.884
 4519SOL    HW225620   1.686   8.878   0.735
 4520SOL     OW25621   0.358   8.640   0.467
 4520SOL    HW125622   0.404   8.614   0.552
 4520SOL    HW225623   0.378   8.572   0.396
 4521SOL     OW25624   1.216   7.695   0.178
 4521SOL    HW125625   1.310   7.665   0.196
 4521SOL    HW225626   1.164   7.695   0.264
 4522SOL     OW25627   0.368   7.900   1.273
 4522SOL    HW125628   0.358   7.813   1.225
 4522SOL    HW225629   0.304   7.967   1.236
 4523SOL     OW25630   1.450   8.180   1.311
 4523SOL    HW125631   1.454   8.274   1.276
 4523SOL    HW225632   1.543   8.149   1.333
 4524SOL     OW25633   0.403   7.672   0.432
 4524SOL    HW125634   0.357   7.712   0.511
 4524SOL    HW225635   0.351   7.691   0.350
 4525SOL     OW25636   1.531   9.199   1.344
 4525SOL    HW125637   1.474   9.150   1.278
 4525SOL    HW225638   1.617   9.226   1.301
 4526SOL     OW25639   1.826   7.917   1.199
 4526SOL    HW125640   1.883   7.999   1.201
 4526SOL    HW225641   1.767   7.916   1.279
 4527SOL     OW25642   1.843   9.143   1.112
 4527SOL    HW125643   1.889   9.153   1.200
 4527SOL    HW225644   1.910   9.146   1.039
 4528SOL     OW25645   0.956   7.883   0.674
 4528SOL    HW125646   1.032   7.911   0.733
 4528SOL    HW225647   0.912   7.963   0.635
 4529SOL     OW25648   1.191   8.347   0.191
 4529SOL    HW125649   1.228   8.297   0.269
 4529SOL    HW225650   1.121   8.292   0.146
 4530SOL     OW25651   1.033   7.769   1.812
 4530SOL    HW125652   1.096   7.774   1.889
 4530SOL    HW225653   0.941   7.747   1.845
 4531SOL     OW25654   1.774   8.016   0.270
 4531SOL    HW125655   1.795   7.935   0.216
 4531SOL    HW225656   1.791   7.997   0.367
 4532SOL     OW25657   1.068   9.154   0.178
 4532SOL    HW125658   1.102   9.067   0.143
 4532SOL    HW225659   1.036   9.142   0.272
 4533SOL     OW25660   0.749   7.421   1.710
 4533SOL    HW125661   0.756   7.327   1.677
 4533SOL    HW225662   0.806   7.431   1.792
 4534SOL     OW25663   1.672   8.022   0.978
 4534SOL    HW125664   1.657   8.113   1.015
 4534SOL    HW225665   1.742   7.975   1.032
 4535SOL     OW25666   1.082   8.688   1.744
 4535SOL    HW125667   1.104   8.598   1.706
 4535SOL    HW225668   1.017   8.735   1.685
 4536SOL     OW25669   0.737   8.530   1.748
 4536SOL    HW125670   0.708   8.607   1.805
 4536SOL    HW225671   0.747   8.449   1.806
 4537SOL     OW25672   1.372   7.394   0.854
 4537SOL    HW125673   1.321   7.478   0.836
 4537SOL    HW225674   1.458   7.396   0.803
 4538SOL     OW25675   0.030   8.004   0.527
 4538SOL    HW125676   0.032   7.955   0.614
 4538SOL    HW225677   0.032   8.103   0.545
 4539SOL     OW25678   0.351   7.592   0.848
 4539SOL    HW125679   0.403   7.632   0.923
 4539SOL    HW225680   0.404   7.519   0.805
 4540SOL     OW25681   0.335   7.640   1.182
 4540SOL    HW125682   0.300   7.547   1.182
 4540SOL    HW225683   0.422   7.643   1.133
 4541SOL     OW25684   1.002   8.262   0.922
 4541SOL    HW125685   1.028   8.342   0.868
 4541SOL    HW225686   0.996   8.182   0.862
 4542SOL     OW25687   0.203   8.889   0.381
 4542SOL    HW125688   0.230   8.795   0.401
 4542SOL    HW225689   0.228   8.911   0.287
 4543SOL     OW25690   1.485   8.758   1.255
 4543SOL    HW125691   1.456   8.795   1.166
 4543SOL    HW225692   1.407   8.758   1.317
 4544SOL     OW25693   0.217   9.032   0.618
 4544SOL    HW125694   0.133   9.083   0.636
 4544SOL    HW225695   0.208   8.981   0.533
 4545SOL     OW25696   1.738   8.829   1.293
 4545SOL    HW125697   1.769   8.843   1.387
 4545SOL    HW225698   1.639   8.816   1.292
 4546SOL     OW25699   0.490   8.329   0.020
 4546SOL    HW125700   0.459   8.363  -0.068
 4546SOL    HW225701   0.494   8.404   0.086
 4547SOL     OW25702   1.007   8.516   1.319
 4547SOL    HW125703   1.057   8.431   1.303
 4547SOL    HW225704   0.961   8.543   1.234
 4548SOL     OW25705   0.094   8.221   0.193
 4548SOL    HW125706   0.154   8.168   0.253
 4548SOL    HW225707   0.000   8.189   0.205
 4549SOL     OW25708   1.614   8.219   0.393
 4549SOL    HW125709   1.682   8.153   0.360
 4549SOL    HW225710   1.629   8.307   0.349
 4550SOL     OW25711   0.862   9.206   1.041
 4550SOL    HW125712   0.908   9.139   0.983
 4550SOL    HW225713   0.788   9.162   1.091
 4551SOL     OW25714   0.769   8.275   0.077
 4551SOL    HW125715   0.798   8.194   0.128
 4551SOL    HW225716   0.669   8.274   0.068
 4552SOL     OW25717   1.365   7.807   0.423
 4552SOL    HW125718   1.302   7.865   0.371
 4552SOL    HW225719   1.458   7.841   0.411
 4553SOL     OW25720   0.262   8.008   1.523
 4553SOL    HW125721   0.282   7.913   1.498
 4553SOL    HW225722   0.225   8.011   1.616
 4554SOL     OW25723   0.144   7.663   1.413
 4554SOL    HW125724   0.216   7.673   1.344
 4554SOL    HW225725   0.055   7.662   1.368
 4555SOL     OW25726   1.042   8.284   1.178
 4555SOL    HW125727   1.036   8.270   1.079
 4555SOL    HW225728   0.961   8.245   1.222
 4556SOL     OW25729   1.633   7.818   0.493
 4556SOL    HW125730   1.729   7.789   0.490
 4556SOL    HW225731   1.594   7.796   0.582
 4557SOL     OW25732   0.917   8.893   0.930
 4557SOL    HW125733   0.975   8.904   0.849
 4557SOL    HW225734   0.823   8.917   0.908
 4558SOL     OW25735   0.867   7.759   0.215
 4558SOL    HW125736   0.776   7.772   0.253
 4558SOL    HW225737   0.927   7.719   0.285
 4559SOL     OW25738   0.978   8.704   0.150
 4559SOL    HW125739   1.031   8.644   0.210
 4559SOL    HW225740   1.017   8.705   0.059
 4560SOL     OW25741   1.729   8.999   0.635
 4560SOL    HW125742   1.696   9.092   0.654
 4560SOL    HW225743   1.727   8.983   0.536
 4561SOL     OW25744   1.144   8.272   0.624
 4561SOL    HW125745   1.209   8.300   0.695
 4561SOL    HW225746   1.065   8.333   0.626
 4562SOL     OW25747   0.892   8.998   1.648
 4562SOL    HW125748   0.880   8.929   1.577
 4562SOL    HW225749   0.855   8.963   1.735
 4563SOL     OW25750   1.336   8.312   0.827
 4563SOL    HW125751   1.357   8.254   0.905
 4563SOL    HW225752   1.345   8.408   0.853
 4564SOL     OW25753   0.292   8.441   0.873
 4564SOL    HW125754   0.215   8.503   0.866
 4564SOL    HW225755   0.329   8.442   0.966
 4565SOL     OW25756   0.925   8.389   0.572
 4565SOL    HW125757   0.912   8.300   0.529
 4565SOL    HW225758   0.856   8.403   0.643
 4566SOL     OW25759   1.229   8.777   1.411
 4566SOL    HW125760   1.262   8.862   1.452
 4566SOL    HW225761   1.130   8.773   1.418
 4567SOL     OW25762   0.036   7.694   0.475
 4567SOL    HW125763   0.096   7.645   0.413
 4567SOL    HW225764   0.091   7.746   0.540
 4568SOL     OW25765   1.659   9.192   0.166
 4568SOL    HW125766   1.749   9.236   0.168
 4568SOL    HW225767   1.658   9.123   0.094
 4569SOL     OW25768   0.823   8.159   1.324
 4569SOL    HW125769   0.825   8.245   1.375
 4569SOL    HW225770   0.880   8.091   1.371
 4570SOL     OW25771   0.060   9.186   1.395
 4570SOL    HW125772   0.068   9.286   1.393
 4570SOL    HW225773   0.036   9.157   1.488
 4571SOL     OW25774   0.841   8.205   0.389
 4571SOL    HW125775   0.752   8.233   0.354
 4571SOL    HW225776   0.882   8.139   0.325
 4572SOL     OW25777   0.363   7.923   0.928
 4572SOL    HW125778   0.419   7.916   0.845
 4572SOL    HW225779   0.420   7.901   1.008
 4573SOL     OW25780   0.360   9.121   0.199
 4573SOL    HW125781   0.452   9.151   0.174
 4573SOL    HW225782   0.335   9.160   0.288
 4574SOL     OW25783   1.336   9.143   1.136
 4574SOL    HW125784   1.355   9.206   1.062
 4574SOL    HW225785   1.344   9.049   1.103
 4575SOL     OW25786   0.041   8.538   0.948
 4575SOL    HW125787  -0.049   8.554   0.909
 4575SOL    HW225788   0.039   8.454   1.003
 4576SOL     OW25789   0.792   7.443   0.398
 4576SOL    HW125790   0.753   7.432   0.307
 4576SOL    HW225791   0.748   7.519   0.445
 4577SOL     OW25792   0.037   8.579   0.492
 4577SOL    HW125793   0.115   8.637   0.516
 4577SOL    HW225794   0.056   8.530   0.407
 4578SOL     OW25795   1.283   7.653   0.867
 4578SOL    HW125796   1.282   7.731   0.804
 4578SOL    HW225797   1.326   7.680   0.953
 4579SOL     OW25798   1.403   7.459   0.163
 4579SOL    HW125799   1.483   7.399   0.160
 4579SOL    HW225800   1.329   7.412   0.211
 4580SOL     OW25801   0.718   7.690   0.729
 4580SOL    HW125802   0.707   7.632   0.810
 4580SOL    HW225803   0.803   7.742   0.737
 4581SOL     OW25804   1.298   8.041   1.121
 4581SOL    HW125805   1.352   8.081   1.047
 4581SOL    HW225806   1.336   8.070   1.209
 4582SOL     OW25807   1.591   7.447   0.437
 4582SOL    HW125808   1.598   7.401   0.349
 4582SOL    HW225809   1.495   7.457   0.462
 4583SOL     OW25810   0.567   8.762   1.800
 4583SOL    HW125811   0.528   8.825   1.733
 4583SOL    HW225812   0.650   8.802   1.840
 4584SOL     OW25813   0.443   8.494   1.632
 4584SOL    HW125814   0.462   8.518   1.537
 4584SOL    HW225815   0.436   8.577   1.687
 4585SOL     OW25816   0.104   8.784   1.106
 4585SOL    HW125817   0.073   8.710   1.047
 4585SOL    HW225818   0.036   8.802   1.177
 4586SOL     OW25819   1.190   7.985   0.839
 4586SOL    HW125820   1.272   7.962   0.787
 4586SOL    HW225821   1.185   7.926   0.920
 4587SOL     OW25822   1.790   8.012   1.675
 4587SOL    HW125823   1.779   8.098   1.624
 4587SOL    HW225824   1.884   8.003   1.705
 4588SOL     OW25825   1.361   7.785   1.094
 4588SOL    HW125826   1.335   7.882   1.100
 4588SOL    HW225827   1.361   7.745   1.186
 4589SOL     OW25828   1.302   8.220   0.425
 4589SOL    HW125829   1.248   8.218   0.509
 4589SOL    HW225830   1.379   8.283   0.436
 4590SOL     OW25831   1.599   8.316   0.645
 4590SOL    HW125832   1.613   8.279   0.552
 4590SOL    HW225833   1.510   8.286   0.679
 4591SOL     OW25834   1.755   8.253   1.540
 4591SOL    HW125835   1.657   8.274   1.542
 4591SOL    HW225836   1.804   8.329   1.499
 4592SOL     OW25837   1.609   7.673   0.219
 4592SOL    HW125838   1.614   7.715   0.310
 4592SOL    HW225839   1.542   7.598   0.221
 4593SOL     OW25840   0.756   8.888   1.439
 4593SOL    HW125841   0.693   8.966   1.446
 4593SOL    HW225842   0.724   8.826   1.367
 4594SOL     OW25843   0.147   7.683   1.704
 4594SOL    HW125844   0.165   7.672   1.606
 4594SOL    HW225845   0.049   7.679   1.721
 4595SOL     OW25846   0.027   9.097   1.648
 4595SOL    HW125847   0.099   9.083   1.716
 4595SOL    HW225848  -0.062   9.100   1.693
 4596SOL     OW25849   0.195   7.753   0.672
 4596SOL    HW125850   0.138   7.808   0.733
 4596SOL    HW225851   0.265   7.705   0.725
 4597SOL     OW25852   1.367   8.985   1.535
 4597SOL    HW125853   1.320   9.053   1.590
 4597SOL    HW225854   1.434   9.031   1.476
 4598SOL     OW25855   0.332   7.944   0.270
 4598SOL    HW125856   0.404   7.973   0.207
 4598SOL    HW225857   0.288   8.024   0.310
 4599SOL     OW25858   0.372   8.716   1.181
 4599SOL    HW125859   0.384   8.732   1.278
 4599SOL    HW225860   0.285   8.756   1.151
 4600SOL     OW25861   1.256   8.920   1.827
 4600SOL    HW125862   1.215   8.835   1.793
 4600SOL    HW225863   1.236   8.994   1.763
 4601SOL     OW25864   0.746   8.640   0.517
 4601SOL    HW125865   0.789   8.571   0.459
 4601SOL    HW225866   0.710   8.597   0.600
 4602SOL     OW25867   0.378   8.191   0.719
 4602SOL    HW125868   0.370   8.289   0.737
 4602SOL    HW225869   0.462   8.157   0.760
 4603SOL     OW25870   0.224   7.671   0.234
 4603SOL    HW125871   0.268   7.640   0.151
 4603SOL    HW225872   0.225   7.771   0.238
 4604SOL     OW25873   0.077   7.923   0.845
 4604SOL    HW125874   0.041   8.016   0.837
 4604SOL    HW225875   0.160   7.924   0.901
 4605SOL     OW25876   0.512   8.510   0.231
 4605SOL    HW125877   0.612   8.510   0.242
 4605SOL    HW225878   0.481   8.603   0.210
 4606SOL     OW25879   1.138   8.102   0.047
 4606SOL    HW125880   1.069   8.159   0.003
 4606SOL    HW225881   1.219   8.096  -0.012
 4607SOL     OW25882   0.873   8.021   0.190
 4607SOL    HW125883   0.963   8.022   0.145
 4607SOL    HW225884   0.850   7.927   0.215
 4608SOL     OW25885   1.324   7.538   0.484
 4608SOL    HW125886   1.234   7.522   0.525
 4608SOL    HW225887   1.332   7.634   0.458
 4609SOL     OW25888   1.438   7.938   1.500
 4609SOL    HW125889   1.390   7.961   1.584
 4609SOL    HW225890   1.372   7.908   1.431
 4610SOL     OW25891   0.073   7.453   0.144
 4610SOL    HW125892   0.136   7.376   0.152
 4610SOL    HW225893   0.093   7.521   0.215
 4611SOL     OW25894   0.346   8.428   1.145
 4611SOL    HW125895   0.357   8.383   1.234
 4611SOL    HW225896   0.373   8.524   1.152
 4612SOL     OW25897   1.645   8.440   0.245
 4612SOL    HW125898   1.716   8.510   0.247
 4612SOL    HW225899   1.632   8.410   0.150
 4613SOL     OW25900   0.627   8.041   1.167
 4613SOL    HW125901   0.702   8.084   1.216
 4613SOL    HW225902   0.560   8.006   1.233
 4614SOL     OW25903   0.770   8.410   1.484
 4614SOL    HW125904   0.839   8.462   1.434
 4614SOL    HW225905   0.765   8.443   1.579
 4615SOL     OW25906   1.162   8.431   1.644
 4615SOL    HW125907   1.084   8.377   1.677
 4615SOL    HW225908   1.243   8.409   1.699
 4616SOL     OW25909   1.091   7.613   0.640
 4616SOL    HW125910   1.150   7.673   0.695
 4616SOL    HW225911   1.018   7.577   0.697
 4617SOL     OW25912   1.201   9.145   1.680
 4617SOL    HW125913   1.106   9.143   1.648
 4617SOL    HW225914   1.222   9.236   1.717
 4618SOL     OW25915   0.619   7.490   0.911
 4618SOL    HW125916   0.547   7.423   0.897
 4618SOL    HW225917   0.701   7.444   0.946
 4619SOL     OW25918   1.012   8.619   0.823
 4619SOL    HW125919   1.051   8.662   0.742
 4619SOL    HW225920   1.085   8.602   0.890
 4620SOL     OW25921   0.706   8.347   1.025
 4620SOL    HW125922   0.704   8.263   0.970
 4620SOL    HW225923   0.655   8.333   1.110
 4621SOL     OW25924   0.045   8.357   1.151
 4621SOL    HW125925   0.134   8.335   1.191
 4621SOL    HW225926  -0.010   8.273   1.147
 4622SOL     OW25927   0.273   7.402   0.431
 4622SOL    HW125928   0.311   7.490   0.458
 4622SOL    HW225929   0.196   7.378   0.491
 4623SOL     OW25930   0.689   8.019   1.759
 4623SOL    HW125931   0.641   8.070   1.688
 4623SOL    HW225932   0.782   7.998   1.729
 4624SOL     OW25933   0.095   8.489   0.251
 4624SOL    HW125934   0.085   8.392   0.230
 4624SOL    HW225935   0.148   8.534   0.179
 4625SOL     OW25936   1.792   7.601   0.852
 4625SOL    HW125937   1.747   7.583   0.939
 4625SOL    HW225938   1.890   7.618   0.868
 4626SOL     OW25939   0.840   8.577   1.104
 4626SOL    HW125940   0.791   8.492   1.085
 4626SOL    HW225941   0.910   8.592   1.035
 4627SOL     OW25942   1.178   8.000   0.313
 4627SOL    HW125943   1.230   8.072   0.359
 4627SOL    HW225944   1.191   8.007   0.215
 4628SOL     OW25945   1.539   8.815   1.640
 4628SOL    HW125946   1.524   8.717   1.654
 4628SOL    HW225947   1.456   8.857   1.604
 4629SOL     OW25948   0.296   8.257   1.380
 4629SOL    HW125949   0.260   8.167   1.406
 4629SOL    HW225950   0.257   8.327   1.440
 4630SOL     OW25951   0.798   8.883   0.038
 4630SOL    HW125952   0.773   8.960   0.097
 4630SOL    HW225953   0.862   8.823   0.086
 4631SOL     OW25954   0.759   8.501   0.789
 4631SOL    HW125955   0.848   8.547   0.789
 4631SOL    HW225956   0.752   8.441   0.868
 4632SOL     OW25957   0.937   8.848   0.458
 4632SOL    HW125958   0.987   8.836   0.373
 4632SOL    HW225959   0.883   8.765   0.477
 4633SOL     OW25960   0.127   8.195   0.858
 4633SOL    HW125961   0.222   8.186   0.826
 4633SOL    HW225962   0.093   8.287   0.837
 4634SOL     OW25963   0.064   8.312   1.785
 4634SOL    HW125964  -0.021   8.263   1.766
 4634SOL    HW225965   0.091   8.299   1.880
 4635SOL     OW25966   0.961   9.221   1.491
 4635SOL    HW125967   0.933   9.134   1.532
 4635SOL    HW225968   0.905   9.295   1.528
 4636SOL     OW25969   1.190   8.568   1.021
 4636SOL    HW125970   1.174   8.662   1.052
 4636SOL    HW225971   1.193   8.507   1.101
 4637SOL     OW25972   0.464   7.839   1.785
 4637SOL    HW125973   0.500   7.786   1.708
 4637SOL    HW225974   0.525   7.916   1.803
 4638SOL     OW25975   0.528   8.256   0.357
 4638SOL    HW125976   0.478   8.321   0.301
 4638SOL    HW225977   0.470   8.177   0.376
 4639SOL     OW25978   1.609   8.287   1.055
 4639SOL    HW125979   1.628   8.326   0.964
 4639SOL    HW225980   1.563   8.356   1.111
 4640SOL     OW25981   0.002   7.429   0.552
 4640SOL    HW125982  -0.085   7.416   0.505
 4640SOL    HW225983   0.010   7.524   0.582
 4641SOL     OW25984   1.223   7.530   1.793
 4641SOL    HW125985   1.282   7.546   1.873
 4641SOL    HW225986   1.170   7.613   1.774
 4642SOL     OW25987   0.439   8.949   1.618
 4642SOL    HW125988   0.381   9.014   1.667
 4642SOL    HW225989   0.501   8.999   1.558
 4643SOL     OW25990   1.795   8.836   1.559
 4643SOL    HW125991   1.823   8.929   1.581
 4643SOL    HW225992   1.702   8.820   1.592
 4644SOL     OW25993   1.045   7.949   1.109
 4644SOL    HW125994   1.131   8.000   1.108
 4644SOL    HW225995   1.051   7.875   1.176
 4645SOL     OW25996   0.449   8.895   0.681
 4645SOL    HW125997   0.447   8.796   0.694
 4645SOL    HW225998   0.358   8.928   0.658
 4646SOL     OW25999   1.090   9.012   1.269
 4646SOL    HW126000   1.016   9.076   1.287
 4646SOL    HW226001   1.169   9.061   1.231
 4647SOL     OW26002   0.299   9.142   1.768
 4647SOL    HW126003   0.342   9.226   1.734
 4647SOL    HW226004   0.324   9.129   1.864
 4648SOL     OW26005   0.159   8.678   1.639
 4648SOL    HW126006   0.138   8.583   1.612
 4648SOL    HW226007   0.090   8.739   1.601
 4649SOL     OW26008   0.994   7.564   0.898
 4649SOL    HW126009   1.090   7.565   0.926
 4649SOL    HW226010   0.939   7.521   0.970
 4650SOL     OW26011   1.056   8.570   0.414
 4650SOL    HW126012   1.136   8.606   0.462
 4650SOL    HW226013   1.014   8.497   0.470
 4651SOL     OW26014   1.647   7.837   0.778
 4651SOL    HW126015   1.666   7.923   0.825
 4651SOL    HW226016   1.715   7.768   0.806
 4652SOL     OW26017   0.790   8.509   0.264
 4652SOL    HW126018   0.862   8.568   0.229
 4652SOL    HW226019   0.830   8.425   0.300
 4653SOL     OW26020   0.861   7.485   0.116
 4653SOL    HW126021   0.936   7.419   0.128
 4653SOL    HW226022   0.892   7.576   0.144
 4654SOL     OW26023   0.540   7.914   0.728
 4654SOL    HW126024   0.578   7.825   0.754
 4654SOL    HW226025   0.607   7.964   0.673
 4655SOL     OW26026   0.528   8.472   1.382
 4655SOL    HW126027   0.624   8.452   1.402
 4655SOL    HW226028   0.517   8.570   1.364
 4656SOL     OW26029   1.750   8.515   1.351
 4656SOL    HW126030   1.764   8.613   1.365
 4656SOL    HW226031   1.807   8.484   1.275
 4657SOL     OW26032   0.233   8.624   0.043
 4657SOL    HW126033   0.225   8.636  -0.056
 4657SOL    HW226034   0.292   8.695   0.081
 4658SOL     OW26035   0.660   9.063   0.203
 4658SOL    HW126036   0.635   9.158   0.187
 4658SOL    HW226037   0.627   9.035   0.293
 4659SOL     OW26038   1.310   8.486   1.427
 4659SOL    HW126039   1.254   8.445   1.498
 4659SOL    HW226040   1.290   8.584   1.421
 4660SOL     OW26041   0.577   9.102   1.427
 4660SOL    HW126042   0.626   9.182   1.391
 4660SOL    HW226043   0.485   9.100   1.388
 4661SOL     OW26044   0.220   7.983   1.789
 4661SOL    HW126045   0.237   7.884   1.794
 4661SOL    HW226046   0.284   8.031   1.850
 4662SOL     OW26047   1.659   8.944   1.028
 4662SOL    HW126048   1.631   9.037   1.052
 4662SOL    HW226049   1.709   8.903   1.104
 4663SOL     OW26050   0.055   8.317   0.589
 4663SOL    HW126051   0.062   8.416   0.576
 4663SOL    HW226052  -0.036   8.294   0.623
 4664SOL     OW26053   0.564   8.115   1.527
 4664SOL    HW126054   0.470   8.085   1.508
 4664SOL    HW226055   0.573   8.212   1.504
 4665SOL     OW26056   1.631   8.491   0.839
 4665SOL    HW126057   1.593   8.580   0.812
 4665SOL    HW226058   1.631   8.429   0.761
 4666SOL     OW26059   0.789   7.897   1.008
 4666SOL    HW126060   0.881   7.925   1.035
 4666SOL    HW226061   0.721   7.948   1.062
 4667SOL     OW26062   0.642   8.748   1.235
 4667SOL    HW126063   0.555   8.747   1.186
 4667SOL    HW226064   0.708   8.688   1.188
 4668SOL     OW26065   0.208   8.090   1.149
 4668SOL    HW126066   0.246   8.149   1.220
 4668SOL    HW226067   0.191   8.143   1.067
 4669SOL     OW26068   0.379   8.736   1.447
 4669SOL    HW126069   0.398   8.824   1.491
 4669SOL    HW226070   0.284   8.710   1.465
 4670SOL     OW26071   1.622   9.052   1.795
 4670SOL    HW126072   1.591   8.974   1.740
 4670SOL    HW226073   1.591   9.137   1.753
 4671SOL     OW26074   1.330   8.590   0.516
 4671SOL    HW126075   1.429   8.594   0.532
 4671SOL    HW226076   1.313   8.576   0.418
 4672SOL     OW26077   0.683   7.756   0.464
 4672SOL    HW126078   0.585   7.750   0.444
 4672SOL    HW226079   0.702   7.713   0.552
 4673SOL     OW26080   1.603   7.439   0.723
 4673SOL    HW126081   1.598   7.480   0.632
 4673SOL    HW226082   1.684   7.473   0.770
 4674SOL     OW26083   1.206   8.195   1.416
 4674SOL    HW126084   1.305   8.204   1.406
 4674SOL    HW226085   1.162   8.197   1.326
 4675SOL     OW26086   0.700   8.155   0.818
 4675SOL    HW126087   0.722   8.077   0.876
 4675SOL    HW226088   0.709   8.129   0.722
 4676SOL     OW26089   1.365   8.862   1.030
 4676SOL    HW126090   1.279   8.819   1.059
 4676SOL    HW226091   1.354   8.902   0.939
 4677SOL     OW26092   1.368   7.847   0.705
 4677SOL    HW126093   1.367   7.839   0.606
 4677SOL    HW226094   1.457   7.819   0.740
 4678SOL     OW26095   1.095   8.863   2.537
 4678SOL    HW126096   1.186   8.897   2.560
 4678SOL    HW226097   1.067   8.901   2.449
 4679SOL     OW26098   1.606   8.659   2.395
 4679SOL    HW126099   1.617   8.743   2.449
 4679SOL    HW226100   1.696   8.622   2.372
 4680SOL     OW26101   1.686   7.941   3.259
 4680SOL    HW126102   1.588   7.933   3.281
 4680SOL    HW226103   1.739   7.930   3.343
 4681SOL     OW26104   0.353   7.578   1.864
 4681SOL    HW126105   0.266   7.575   1.815
 4681SOL    HW226106   0.404   7.660   1.836
 4682SOL     OW26107   1.340   8.967   2.639
 4682SOL    HW126108   1.329   9.064   2.662
 4682SOL    HW226109   1.433   8.950   2.609
 4683SOL     OW26110   0.956   8.258   3.574
 4683SOL    HW126111   0.921   8.233   3.484
 4683SOL    HW226112   0.880   8.279   3.635
 4684SOL     OW26113   0.581   7.465   1.990
 4684SOL    HW126114   0.669   7.493   1.951
 4684SOL    HW226115   0.509   7.528   1.960
 4685SOL     OW26116   1.551   8.450   3.373
 4685SOL    HW126117   1.459   8.455   3.335
 4685SOL    HW226118   1.616   8.488   3.307
 4686SOL     OW26119   1.451   8.457   3.054
 4686SOL    HW126120   1.376   8.446   3.119
 4686SOL    HW226121   1.488   8.550   3.060
 4687SOL     OW26122   0.947   8.712   3.354
 4687SOL    HW126123   0.890   8.775   3.300
 4687SOL    HW226124   0.980   8.638   3.295
 4688SOL     OW26125   0.717   8.011   2.394
 4688SOL    HW126126   0.756   8.081   2.335
 4688SOL    HW226127   0.691   7.931   2.340
 4689SOL     OW26128   1.337   7.919   3.603
 4689SOL    HW126129   1.433   7.923   3.629
 4689SOL    HW226130   1.293   7.843   3.650
 4690SOL     OW26131   0.420   8.774   2.047
 4690SOL    HW126132   0.484   8.790   1.972
 4690SOL    HW226133   0.444   8.832   2.125
 4691SOL     OW26134   0.854   9.101   2.452
 4691SOL    HW126135   0.919   9.034   2.416
 4691SOL    HW226136   0.844   9.177   2.388
 4692SOL     OW26137   1.746   8.983   2.194
 4692SOL    HW126138   1.842   8.957   2.187
 4692SOL    HW226139   1.722   9.043   2.118
 4693SOL     OW26140   1.658   7.676   2.965
 4693SOL    HW126141   1.709   7.748   2.918
 4693SOL    HW226142   1.563   7.703   2.974
 4694SOL     OW26143   1.058   7.705   2.234
 4694SOL    HW126144   1.083   7.799   2.255
 4694SOL    HW226145   1.059   7.651   2.318
 4695SOL     OW26146   0.182   8.418   3.419
 4695SOL    HW126147   0.278   8.433   3.437
 4695SOL    HW226148   0.144   8.356   3.488
 4696SOL     OW26149   0.508   8.063   1.962
 4696SOL    HW126150   0.468   8.142   1.915
 4696SOL    HW226151   0.597   8.042   1.922
 4697SOL     OW26152   1.023   8.019   3.414
 4697SOL    HW126153   1.056   7.936   3.461
 4697SOL    HW226154   1.096   8.087   3.413
 4698SOL     OW26155   1.627   8.819   2.636
 4698SOL    HW126156   1.623   8.854   2.729
 4698SOL    HW226157   1.686   8.878   2.580
 4699SOL     OW26158   1.216   7.695   2.023
 4699SOL    HW126159   1.310   7.665   2.041
 4699SOL    HW226160   1.164   7.695   2.109
 4700SOL     OW26161   0.368   7.900   3.118
 4700SOL    HW126162   0.358   7.813   3.070
 4700SOL    HW226163   0.304   7.967   3.081
 4701SOL     OW26164   1.450   8.180   3.156
 4701SOL    HW126165   1.454   8.274   3.121
 4701SOL    HW226166   1.543   8.149   3.178
 4702SOL     OW26167   0.403   7.672   2.277
 4702SOL    HW126168   0.357   7.712   2.356
 4702SOL    HW226169   0.351   7.691   2.195
 4703SOL     OW26170   1.826   7.917   3.044
 4703SOL    HW126171   1.883   7.999   3.046
 4703SOL    HW226172   1.767   7.916   3.124
 4704SOL     OW26173   1.843   9.143   2.957
 4704SOL    HW126174   1.889   9.153   3.045
 4704SOL    HW226175   1.910   9.146   2.884
 4705SOL     OW26176   0.956   7.883   2.519
 4705SOL    HW126177   1.032   7.911   2.578
 4705SOL    HW226178   0.912   7.963   2.480
 4706SOL     OW26179   1.191   8.347   2.036
 4706SOL    HW126180   1.228   8.297   2.114
 4706SOL    HW226181   1.121   8.292   1.991
 4707SOL     OW26182   1.033   7.769   3.657
 4707SOL    HW126183   1.096   7.774   3.734
 4707SOL    HW226184   0.941   7.747   3.690
 4708SOL     OW26185   1.774   8.016   2.115
 4708SOL    HW126186   1.795   7.935   2.061
 4708SOL    HW226187   1.791   7.997   2.212
 4709SOL     OW26188   1.068   9.154   2.023
 4709SOL    HW126189   1.102   9.067   1.988
 4709SOL    HW226190   1.036   9.142   2.117
 4710SOL     OW26191   0.749   7.421   3.555
 4710SOL    HW126192   0.756   7.327   3.522
 4710SOL    HW226193   0.806   7.431   3.637
 4711SOL     OW26194   1.672   8.022   2.823
 4711SOL    HW126195   1.657   8.113   2.860
 4711SOL    HW226196   1.742   7.975   2.877
 4712SOL     OW26197   1.082   8.688   3.589
 4712SOL    HW126198   1.104   8.598   3.551
 4712SOL    HW226199   1.017   8.735   3.530
 4713SOL     OW26200   0.737   8.530   3.593
 4713SOL    HW126201   0.708   8.607   3.650
 4713SOL    HW226202   0.747   8.449   3.651
 4714SOL     OW26203   1.727   7.600   3.628
 4714SOL    HW126204   1.704   7.621   3.723
 4714SOL    HW226205   1.703   7.505   3.608
 4715SOL     OW26206   1.002   8.262   2.767
 4715SOL    HW126207   1.028   8.342   2.713
 4715SOL    HW226208   0.996   8.182   2.707
 4716SOL     OW26209   0.203   8.889   2.226
 4716SOL    HW126210   0.230   8.795   2.246
 4716SOL    HW226211   0.228   8.911   2.132
 4717SOL     OW26212   1.485   8.758   3.100
 4717SOL    HW126213   1.456   8.795   3.011
 4717SOL    HW226214   1.407   8.758   3.162
 4718SOL     OW26215   0.217   9.032   2.463
 4718SOL    HW126216   0.133   9.083   2.481
 4718SOL    HW226217   0.208   8.981   2.378
 4719SOL     OW26218   1.738   8.829   3.138
 4719SOL    HW126219   1.769   8.843   3.232
 4719SOL    HW226220   1.639   8.816   3.137
 4720SOL     OW26221   0.490   8.329   1.865
 4720SOL    HW126222   0.459   8.363   1.777
 4720SOL    HW226223   0.494   8.404   1.931
 4721SOL     OW26224   1.007   8.516   3.164
 4721SOL    HW126225   1.057   8.431   3.148
 4721SOL    HW226226   0.961   8.543   3.079
 4722SOL     OW26227   1.614   8.219   2.238
 4722SOL    HW126228   1.682   8.153   2.205
 4722SOL    HW226229   1.629   8.307   2.194
 4723SOL     OW26230   0.769   8.275   1.922
 4723SOL    HW126231   0.798   8.194   1.973
 4723SOL    HW226232   0.669   8.274   1.913
 4724SOL     OW26233   1.365   7.807   2.268
 4724SOL    HW126234   1.302   7.865   2.216
 4724SOL    HW226235   1.458   7.841   2.256
 4725SOL     OW26236   0.262   8.008   3.368
 4725SOL    HW126237   0.282   7.913   3.343
 4725SOL    HW226238   0.225   8.011   3.461
 4726SOL     OW26239   0.144   7.663   3.258
 4726SOL    HW126240   0.216   7.673   3.189
 4726SOL    HW226241   0.055   7.662   3.213
 4727SOL     OW26242   1.042   8.284   3.023
 4727SOL    HW126243   1.036   8.270   2.924
 4727SOL    HW226244   0.961   8.245   3.067
 4728SOL     OW26245   1.633   7.818   2.338
 4728SOL    HW126246   1.729   7.789   2.335
 4728SOL    HW226247   1.594   7.796   2.427
 4729SOL     OW26248   0.867   7.759   2.060
 4729SOL    HW126249   0.776   7.772   2.098
 4729SOL    HW226250   0.927   7.719   2.130
 4730SOL     OW26251   0.978   8.704   1.995
 4730SOL    HW126252   1.031   8.644   2.055
 4730SOL    HW226253   1.017   8.705   1.904
 4731SOL     OW26254   1.729   8.999   2.480
 4731SOL    HW126255   1.696   9.092   2.499
 4731SOL    HW226256   1.727   8.983   2.381
 4732SOL     OW26257   1.144   8.272   2.469
 4732SOL    HW126258   1.209   8.300   2.540
 4732SOL    HW226259   1.065   8.333   2.471
 4733SOL     OW26260   0.892   8.998   3.493
 4733SOL    HW126261   0.880   8.929   3.422
 4733SOL    HW226262   0.855   8.963   3.580
 4734SOL     OW26263   1.336   8.312   2.672
 4734SOL    HW126264   1.357   8.254   2.750
 4734SOL    HW226265   1.345   8.408   2.698
 4735SOL     OW26266   1.229   8.777   3.256
 4735SOL    HW126267   1.262   8.862   3.297
 4735SOL    HW226268   1.130   8.773   3.263
 4736SOL     OW26269   1.659   9.192   2.011
 4736SOL    HW126270   1.749   9.236   2.013
 4736SOL    HW226271   1.658   9.123   1.939
 4737SOL     OW26272   0.823   8.159   3.169
 4737SOL    HW126273   0.825   8.245   3.220
 4737SOL    HW226274   0.880   8.091   3.216
 4738SOL     OW26275   0.060   9.186   3.240
 4738SOL    HW126276   0.068   9.286   3.238
 4738SOL    HW226277   0.036   9.157   3.333
 4739SOL     OW26278   0.841   8.205   2.234
 4739SOL    HW126279   0.752   8.233   2.199
 4739SOL    HW226280   0.882   8.139   2.170
 4740SOL     OW26281   0.360   9.121   2.044
 4740SOL    HW126282   0.452   9.151   2.019
 4740SOL    HW226283   0.335   9.160   2.133
 4741SOL     OW26284   0.041   8.538   2.793
 4741SOL    HW126285  -0.049   8.554   2.754
 4741SOL    HW226286   0.039   8.454   2.848
 4742SOL     OW26287   0.792   7.443   2.243
 4742SOL    HW126288   0.753   7.432   2.152
 4742SOL    HW226289   0.748   7.519   2.290
 4743SOL     OW26290   0.037   8.579   2.337
 4743SOL    HW126291   0.115   8.637   2.361
 4743SOL    HW226292   0.056   8.530   2.252
 4744SOL     OW26293   1.567   7.707   3.421
 4744SOL    HW126294   1.506   7.785   3.418
 4744SOL    HW226295   1.622   7.711   3.504
 4745SOL     OW26296   1.283   7.653   2.712
 4745SOL    HW126297   1.282   7.731   2.649
 4745SOL    HW226298   1.326   7.680   2.798
 4746SOL     OW26299   1.403   7.459   2.008
 4746SOL    HW126300   1.483   7.399   2.005
 4746SOL    HW226301   1.329   7.412   2.056
 4747SOL     OW26302   1.616   7.431   3.442
 4747SOL    HW126303   1.642   7.388   3.356
 4747SOL    HW226304   1.566   7.515   3.424
 4748SOL     OW26305   1.298   8.041   2.966
 4748SOL    HW126306   1.352   8.081   2.892
 4748SOL    HW226307   1.336   8.070   3.054
 4749SOL     OW26308   1.591   7.447   2.282
 4749SOL    HW126309   1.598   7.401   2.194
 4749SOL    HW226310   1.495   7.457   2.307
 4750SOL     OW26311   0.567   8.762   3.645
 4750SOL    HW126312   0.528   8.825   3.578
 4750SOL    HW226313   0.650   8.802   3.685
 4751SOL     OW26314   0.443   8.494   3.477
 4751SOL    HW126315   0.462   8.518   3.382
 4751SOL    HW226316   0.436   8.577   3.532
 4752SOL     OW26317   0.104   8.784   2.951
 4752SOL    HW126318   0.073   8.710   2.892
 4752SOL    HW226319   0.036   8.802   3.022
 4753SOL     OW26320   1.190   7.985   2.684
 4753SOL    HW126321   1.272   7.962   2.632
 4753SOL    HW226322   1.185   7.926   2.765
 4754SOL     OW26323   1.790   8.012   3.520
 4754SOL    HW126324   1.779   8.098   3.469
 4754SOL    HW226325   1.884   8.003   3.550
 4755SOL     OW26326   1.361   7.785   2.939
 4755SOL    HW126327   1.335   7.882   2.945
 4755SOL    HW226328   1.361   7.745   3.031
 4756SOL     OW26329   1.591   7.917   3.690
 4756SOL    HW126330   1.671   7.942   3.634
 4756SOL    HW226331   1.622   7.882   3.778
 4757SOL     OW26332   1.302   8.220   2.270
 4757SOL    HW126333   1.248   8.218   2.354
 4757SOL    HW226334   1.379   8.283   2.281
 4758SOL     OW26335   1.599   8.316   2.490
 4758SOL    HW126336   1.613   8.279   2.397
 4758SOL    HW226337   1.510   8.286   2.524
 4759SOL     OW26338   1.755   8.253   3.385
 4759SOL    HW126339   1.657   8.274   3.387
 4759SOL    HW226340   1.804   8.329   3.344
 4760SOL     OW26341   1.609   7.673   2.064
 4760SOL    HW126342   1.614   7.715   2.155
 4760SOL    HW226343   1.542   7.598   2.066
 4761SOL     OW26344   0.756   8.888   3.284
 4761SOL    HW126345   0.693   8.966   3.291
 4761SOL    HW226346   0.724   8.826   3.212
 4762SOL     OW26347   0.147   7.683   3.549
 4762SOL    HW126348   0.165   7.672   3.451
 4762SOL    HW226349   0.049   7.679   3.566
 4763SOL     OW26350   0.027   9.097   3.493
 4763SOL    HW126351   0.099   9.083   3.561
 4763SOL    HW226352  -0.062   9.100   3.538
 4764SOL     OW26353   1.367   8.985   3.380
 4764SOL    HW126354   1.320   9.053   3.435
 4764SOL    HW226355   1.434   9.031   3.321
 4765SOL     OW26356   1.718   7.606   3.218
 4765SOL    HW126357   1.674   7.654   3.294
 4765SOL    HW226358   1.696   7.652   3.132
 4766SOL     OW26359   0.447   9.207   2.581
 4766SOL    HW126360   0.371   9.173   2.526
 4766SOL    HW226361   0.533   9.170   2.546
 4767SOL     OW26362   0.372   8.716   3.026
 4767SOL    HW126363   0.384   8.732   3.123
 4767SOL    HW226364   0.285   8.756   2.996
 4768SOL     OW26365   1.256   8.920   3.672
 4768SOL    HW126366   1.215   8.835   3.638
 4768SOL    HW226367   1.236   8.994   3.608
 4769SOL     OW26368   0.224   7.671   2.079
 4769SOL    HW126369   0.268   7.640   1.996
 4769SOL    HW226370   0.225   7.771   2.083
 4770SOL     OW26371   0.512   8.510   2.076
 4770SOL    HW126372   0.612   8.510   2.087
 4770SOL    HW226373   0.481   8.603   2.055
 4771SOL     OW26374   1.138   8.102   1.892
 4771SOL    HW126375   1.069   8.159   1.848
 4771SOL    HW226376   1.219   8.096   1.833
 4772SOL     OW26377   0.873   8.021   2.035
 4772SOL    HW126378   0.963   8.022   1.990
 4772SOL    HW226379   0.850   7.927   2.060
 4773SOL     OW26380   1.324   7.538   2.329
 4773SOL    HW126381   1.234   7.522   2.370
 4773SOL    HW226382   1.332   7.634   2.303
 4774SOL     OW26383   1.438   7.938   3.345
 4774SOL    HW126384   1.390   7.961   3.429
 4774SOL    HW226385   1.372   7.908   3.276
 4775SOL     OW26386   0.073   7.453   1.989
 4775SOL    HW126387   0.136   7.376   1.997
 4775SOL    HW226388   0.093   7.521   2.060
 4776SOL     OW26389   0.346   8.428   2.990
 4776SOL    HW126390   0.357   8.383   3.079
 4776SOL    HW226391   0.373   8.524   2.997
 4777SOL     OW26392   1.645   8.440   2.090
 4777SOL    HW126393   1.716   8.510   2.092
 4777SOL    HW226394   1.632   8.410   1.995
 4778SOL     OW26395   0.627   8.041   3.012
 4778SOL    HW126396   0.702   8.084   3.061
 4778SOL    HW226397   0.560   8.006   3.078
 4779SOL     OW26398   0.770   8.410   3.329
 4779SOL    HW126399   0.839   8.462   3.279
 4779SOL    HW226400   0.765   8.443   3.424
 4780SOL     OW26401   1.162   8.431   3.489
 4780SOL    HW126402   1.084   8.377   3.522
 4780SOL    HW226403   1.243   8.409   3.544
 4781SOL     OW26404   1.091   7.613   2.485
 4781SOL    HW126405   1.150   7.673   2.540
 4781SOL    HW226406   1.018   7.577   2.542
 4782SOL     OW26407   1.201   9.145   3.525
 4782SOL    HW126408   1.106   9.143   3.493
 4782SOL    HW226409   1.222   9.236   3.562
 4783SOL     OW26410   0.319   9.155   3.123
 4783SOL    HW126411   0.299   9.137   3.027
 4783SOL    HW226412   0.246   9.117   3.180
 4784SOL     OW26413   1.012   8.619   2.668
 4784SOL    HW126414   1.051   8.662   2.587
 4784SOL    HW226415   1.085   8.602   2.735
 4785SOL     OW26416   0.706   8.347   2.870
 4785SOL    HW126417   0.704   8.263   2.815
 4785SOL    HW226418   0.655   8.333   2.955
 4786SOL     OW26419   0.045   8.357   2.996
 4786SOL    HW126420   0.134   8.335   3.036
 4786SOL    HW226421  -0.010   8.273   2.992
 4787SOL     OW26422   0.273   7.402   2.276
 4787SOL    HW126423   0.311   7.490   2.303
 4787SOL    HW226424   0.196   7.378   2.336
 4788SOL     OW26425   0.689   8.019   3.604
 4788SOL    HW126426   0.641   8.070   3.533
 4788SOL    HW226427   0.782   7.998   3.574
 4789SOL     OW26428   1.792   7.601   2.697
 4789SOL    HW126429   1.747   7.583   2.784
 4789SOL    HW226430   1.890   7.618   2.713
 4790SOL     OW26431   1.178   8.000   2.158
 4790SOL    HW126432   1.230   8.072   2.204
 4790SOL    HW226433   1.191   8.007   2.060
 4791SOL     OW26434   1.539   8.815   3.485
 4791SOL    HW126435   1.524   8.717   3.499
 4791SOL    HW226436   1.456   8.857   3.449
 4792SOL     OW26437   0.296   8.257   3.225
 4792SOL    HW126438   0.260   8.167   3.251
 4792SOL    HW226439   0.257   8.327   3.285
 4793SOL     OW26440   0.798   8.883   1.883
 4793SOL    HW126441   0.773   8.960   1.942
 4793SOL    HW226442   0.862   8.823   1.931
 4794SOL     OW26443   0.616   9.090   2.917
 4794SOL    HW126444   0.636   9.060   2.824
 4794SOL    HW226445   0.541   9.035   2.954
 4795SOL     OW26446   0.759   8.501   2.634
 4795SOL    HW126447   0.848   8.547   2.634
 4795SOL    HW226448   0.752   8.441   2.713
 4796SOL     OW26449   0.937   8.848   2.303
 4796SOL    HW126450   0.987   8.836   2.218
 4796SOL    HW226451   0.883   8.765   2.322
 4797SOL     OW26452   0.064   8.312   3.630
 4797SOL    HW126453  -0.021   8.263   3.611
 4797SOL    HW226454   0.091   8.299   3.725
 4798SOL     OW26455   1.190   8.568   2.866
 4798SOL    HW126456   1.174   8.662   2.897
 4798SOL    HW226457   1.193   8.507   2.946
 4799SOL     OW26458   0.464   7.839   3.630
 4799SOL    HW126459   0.500   7.786   3.553
 4799SOL    HW226460   0.525   7.916   3.648
 4800SOL     OW26461   0.528   8.256   2.202
 4800SOL    HW126462   0.478   8.321   2.146
 4800SOL    HW226463   0.470   8.177   2.221
 4801SOL     OW26464   1.609   8.287   2.900
 4801SOL    HW126465   1.628   8.326   2.809
 4801SOL    HW226466   1.563   8.356   2.956
 4802SOL     OW26467   1.301   7.730   3.196
 4802SOL    HW126468   1.372   7.702   3.260
 4802SOL    HW226469   1.248   7.650   3.168
 4803SOL     OW26470   0.002   7.429   2.397
 4803SOL    HW126471  -0.085   7.416   2.350
 4803SOL    HW226472   0.010   7.524   2.427
 4804SOL     OW26473   1.223   7.530   3.638
 4804SOL    HW126474   1.282   7.546   3.718
 4804SOL    HW226475   1.170   7.613   3.619
 4805SOL     OW26476   1.795   8.836   3.404
 4805SOL    HW126477   1.823   8.929   3.426
 4805SOL    HW226478   1.702   8.820   3.437
 4806SOL     OW26479   1.045   7.949   2.954
 4806SOL    HW126480   1.131   8.000   2.953
 4806SOL    HW226481   1.051   7.875   3.021
 4807SOL     OW26482   0.159   8.678   3.484
 4807SOL    HW126483   0.138   8.583   3.457
 4807SOL    HW226484   0.090   8.739   3.446
 4808SOL     OW26485   0.248   9.043   2.888
 4808SOL    HW126486   0.190   8.963   2.902
 4808SOL    HW226487   0.272   9.050   2.791
 4809SOL     OW26488   1.647   7.837   2.623
 4809SOL    HW126489   1.666   7.923   2.670
 4809SOL    HW226490   1.715   7.768   2.651
 4810SOL     OW26491   0.790   8.509   2.109
 4810SOL    HW126492   0.862   8.568   2.074
 4810SOL    HW226493   0.830   8.425   2.145
 4811SOL     OW26494   0.861   7.485   1.961
 4811SOL    HW126495   0.936   7.419   1.973
 4811SOL    HW226496   0.892   7.576   1.989
 4812SOL     OW26497   0.528   8.472   3.227
 4812SOL    HW126498   0.624   8.452   3.247
 4812SOL    HW226499   0.517   8.570   3.209
 4813SOL     OW26500   1.750   8.515   3.196
 4813SOL    HW126501   1.764   8.613   3.210
 4813SOL    HW226502   1.807   8.484   3.120
 4814SOL     OW26503   0.233   8.624   1.888
 4814SOL    HW126504   0.225   8.636   1.789
 4814SOL    HW226505   0.292   8.695   1.926
 4815SOL     OW26506   0.660   9.063   2.048
 4815SOL    HW126507   0.635   9.158   2.032
 4815SOL    HW226508   0.627   9.035   2.138
 4816SOL     OW26509   1.310   8.486   3.272
 4816SOL    HW126510   1.254   8.445   3.343
 4816SOL    HW226511   1.290   8.584   3.266
 4817SOL     OW26512   0.577   9.102   3.272
 4817SOL    HW126513   0.626   9.182   3.236
 4817SOL    HW226514   0.485   9.100   3.233
 4818SOL     OW26515   0.220   7.983   3.634
 4818SOL    HW126516   0.237   7.884   3.639
 4818SOL    HW226517   0.284   8.031   3.695
 4819SOL     OW26518   1.659   8.944   2.873
 4819SOL    HW126519   1.631   9.037   2.897
 4819SOL    HW226520   1.709   8.903   2.949
 4820SOL     OW26521   0.564   8.115   3.372
 4820SOL    HW126522   0.470   8.085   3.353
 4820SOL    HW226523   0.573   8.212   3.349
 4821SOL     OW26524   1.631   8.491   2.684
 4821SOL    HW126525   1.593   8.580   2.657
 4821SOL    HW226526   1.631   8.429   2.606
 4822SOL     OW26527   0.789   7.897   2.853
 4822SOL    HW126528   0.881   7.925   2.880
 4822SOL    HW226529   0.721   7.948   2.907
 4823SOL     OW26530   0.642   8.748   3.080
 4823SOL    HW126531   0.555   8.747   3.031
 4823SOL    HW226532   0.708   8.688   3.033
 4824SOL     OW26533   0.208   8.090   2.994
 4824SOL    HW126534   0.246   8.149   3.065
 4824SOL    HW226535   0.191   8.143   2.912
 4825SOL     OW26536   0.379   8.736   3.292
 4825SOL    HW126537   0.398   8.824   3.336
 4825SOL    HW226538   0.284   8.710   3.310
 4826SOL     OW26539   1.622   9.052   3.640
 4826SOL    HW126540   1.591   8.974   3.585
 4826SOL    HW226541   1.591   9.137   3.598
 4827SOL     OW26542   1.330   8.590   2.361
 4827SOL    HW126543   1.429   8.594   2.377
 4827SOL    HW226544   1.313   8.576   2.263
 4828SOL     OW26545   0.683   7.756   2.309
 4828SOL    HW126546   0.585   7.750   2.289
 4828SOL    HW226547   0.702   7.713   2.397
 4829SOL     OW26548   1.603   7.439   2.568
 4829SOL    HW126549   1.598   7.480   2.477
 4829SOL    HW226550   1.684   7.473   2.615
 4830SOL     OW26551   1.206   8.195   3.261
 4830SOL    HW126552   1.305   8.204   3.251
 4830SOL    HW226553   1.162   8.197   3.171
 4831SOL     OW26554   0.700   8.155   2.663
 4831SOL    HW126555   0.722   8.077   2.721
 4831SOL    HW226556   0.709   8.129   2.567
 4832SOL     OW26557   1.368   7.847   2.550
 4832SOL    HW126558   1.367   7.839   2.451
 4832SOL    HW226559   1.457   7.819   2.585
 4833SOL     OW26560   1.095   8.863   4.383
 4833SOL    HW126561   1.186   8.897   4.406
 4833SOL    HW226562   1.067   8.901   4.295
 4834SOL     OW26563   1.606   8.659   4.241
 4834SOL    HW126564   1.617   8.743   4.295
 4834SOL    HW226565   1.696   8.622   4.218
 4835SOL     OW26566   1.686   7.941   5.105
 4835SOL    HW126567   1.588   7.933   5.127
 4835SOL    HW226568   1.739   7.930   5.189
 4836SOL     OW26569   0.353   7.578   3.710
 4836SOL    HW126570   0.266   7.575   3.661
 4836SOL    HW226571   0.404   7.660   3.682
 4837SOL     OW26572   1.340   8.967   4.485
 4837SOL    HW126573   1.329   9.064   4.508
 4837SOL    HW226574   1.433   8.950   4.455
 4838SOL     OW26575   0.956   8.258   5.420
 4838SOL    HW126576   0.921   8.233   5.330
 4838SOL    HW226577   0.880   8.279   5.481
 4839SOL     OW26578   0.581   7.465   3.836
 4839SOL    HW126579   0.669   7.493   3.797
 4839SOL    HW226580   0.509   7.528   3.806
 4840SOL     OW26581   1.551   8.450   5.219
 4840SOL    HW126582   1.459   8.455   5.181
 4840SOL    HW226583   1.616   8.488   5.153
 4841SOL     OW26584   1.451   8.457   4.900
 4841SOL    HW126585   1.376   8.446   4.965
 4841SOL    HW226586   1.488   8.550   4.906
 4842SOL     OW26587   0.947   8.712   5.200
 4842SOL    HW126588   0.890   8.775   5.146
 4842SOL    HW226589   0.980   8.638   5.141
 4843SOL     OW26590   0.490   8.605   4.409
 4843SOL    HW126591   0.423   8.559   4.468
 4843SOL    HW226592   0.582   8.573   4.432
 4844SOL     OW26593   0.717   8.011   4.240
 4844SOL    HW126594   0.756   8.081   4.181
 4844SOL    HW226595   0.691   7.931   4.186
 4845SOL     OW26596   1.337   7.919   5.449
 4845SOL    HW126597   1.433   7.923   5.475
 4845SOL    HW226598   1.293   7.843   5.496
 4846SOL     OW26599   0.571   7.730   4.703
 4846SOL    HW126600   0.647   7.795   4.699
 4846SOL    HW226601   0.601   7.641   4.670
 4847SOL     OW26602   0.268   8.156   4.121
 4847SOL    HW126603   0.283   8.090   4.195
 4847SOL    HW226604   0.218   8.235   4.156
 4848SOL     OW26605   0.854   9.101   4.298
 4848SOL    HW126606   0.919   9.034   4.262
 4848SOL    HW226607   0.844   9.177   4.234
 4849SOL     OW26608   1.746   8.983   4.040
 4849SOL    HW126609   1.842   8.957   4.033
 4849SOL    HW226610   1.722   9.043   3.964
 4850SOL     OW26611   1.058   7.705   4.080
 4850SOL    HW126612   1.083   7.799   4.101
 4850SOL    HW226613   1.059   7.651   4.164
 4851SOL     OW26614   0.508   8.063   3.808
 4851SOL    HW126615   0.468   8.142   3.761
 4851SOL    HW226616   0.597   8.042   3.768
 4852SOL     OW26617   0.681   8.987   4.506
 4852SOL    HW126618   0.754   9.010   4.442
 4852SOL    HW226619   0.610   8.934   4.460
 4853SOL     OW26620   1.023   8.019   5.260
 4853SOL    HW126621   1.056   7.936   5.307
 4853SOL    HW226622   1.096   8.087   5.259
 4854SOL     OW26623   1.627   8.819   4.482
 4854SOL    HW126624   1.623   8.854   4.575
 4854SOL    HW226625   1.686   8.878   4.426
 4855SOL     OW26626   0.358   8.640   4.158
 4855SOL    HW126627   0.404   8.614   4.243
 4855SOL    HW226628   0.378   8.572   4.087
 4856SOL     OW26629   1.216   7.695   3.869
 4856SOL    HW126630   1.310   7.665   3.887
 4856SOL    HW226631   1.164   7.695   3.955
 4857SOL     OW26632   0.368   7.900   4.964
 4857SOL    HW126633   0.358   7.813   4.916
 4857SOL    HW226634   0.304   7.967   4.927
 4858SOL     OW26635   1.450   8.180   5.002
 4858SOL    HW126636   1.454   8.274   4.967
 4858SOL    HW226637   1.543   8.149   5.024
 4859SOL     OW26638   0.403   7.672   4.123
 4859SOL    HW126639   0.357   7.712   4.202
 4859SOL    HW226640   0.351   7.691   4.041
 4860SOL     OW26641   1.531   9.199   5.035
 4860SOL    HW126642   1.474   9.150   4.969
 4860SOL    HW226643   1.617   9.226   4.992
 4861SOL     OW26644   1.826   7.917   4.890
 4861SOL    HW126645   1.883   7.999   4.892
 4861SOL    HW226646   1.767   7.916   4.970
 4862SOL     OW26647   1.843   9.143   4.803
 4862SOL    HW126648   1.889   9.153   4.891
 4862SOL    HW226649   1.910   9.146   4.730
 4863SOL     OW26650   0.956   7.883   4.365
 4863SOL    HW126651   1.032   7.911   4.424
 4863SOL    HW226652   0.912   7.963   4.326
 4864SOL     OW26653   1.191   8.347   3.882
 4864SOL    HW126654   1.228   8.297   3.960
 4864SOL    HW226655   1.121   8.292   3.837
 4865SOL     OW26656   1.033   7.769   5.503
 4865SOL    HW126657   1.096   7.774   5.580
 4865SOL    HW226658   0.941   7.747   5.536
 4866SOL     OW26659   1.774   8.016   3.961
 4866SOL    HW126660   1.795   7.935   3.907
 4866SOL    HW226661   1.791   7.997   4.058
 4867SOL     OW26662   1.068   9.154   3.869
 4867SOL    HW126663   1.102   9.067   3.834
 4867SOL    HW226664   1.036   9.142   3.963
 4868SOL     OW26665   1.672   8.022   4.669
 4868SOL    HW126666   1.657   8.113   4.706
 4868SOL    HW226667   1.742   7.975   4.723
 4869SOL     OW26668   1.082   8.688   5.435
 4869SOL    HW126669   1.104   8.598   5.397
 4869SOL    HW226670   1.017   8.735   5.376
 4870SOL     OW26671   0.737   8.530   5.439
 4870SOL    HW126672   0.708   8.607   5.496
 4870SOL    HW226673   0.747   8.449   5.497
 4871SOL     OW26674   1.372   7.394   4.545
 4871SOL    HW126675   1.321   7.478   4.527
 4871SOL    HW226676   1.458   7.396   4.494
 4872SOL     OW26677   1.727   7.600   5.474
 4872SOL    HW126678   1.704   7.621   5.569
 4872SOL    HW226679   1.703   7.505   5.454
 4873SOL     OW26680   0.030   8.004   4.218
 4873SOL    HW126681   0.032   7.955   4.305
 4873SOL    HW226682   0.032   8.103   4.236
 4874SOL     OW26683   0.351   7.592   4.539
 4874SOL    HW126684   0.403   7.632   4.614
 4874SOL    HW226685   0.404   7.519   4.496
 4875SOL     OW26686   0.335   7.640   4.873
 4875SOL    HW126687   0.300   7.547   4.873
 4875SOL    HW226688   0.422   7.643   4.824
 4876SOL     OW26689   1.002   8.262   4.613
 4876SOL    HW126690   1.028   8.342   4.559
 4876SOL    HW226691   0.996   8.182   4.553
 4877SOL     OW26692   0.203   8.889   4.072
 4877SOL    HW126693   0.230   8.795   4.092
 4877SOL    HW226694   0.228   8.911   3.978
 4878SOL     OW26695   1.485   8.758   4.946
 4878SOL    HW126696   1.456   8.795   4.857
 4878SOL    HW226697   1.407   8.758   5.008
 4879SOL     OW26698   0.217   9.032   4.309
 4879SOL    HW126699   0.133   9.083   4.327
 4879SOL    HW226700   0.208   8.981   4.224
 4880SOL     OW26701   1.738   8.829   4.984
 4880SOL    HW126702   1.769   8.843   5.078
 4880SOL    HW226703   1.639   8.816   4.983
 4881SOL     OW26704   0.490   8.329   3.711
 4881SOL    HW126705   0.459   8.363   3.623
 4881SOL    HW226706   0.494   8.404   3.777
 4882SOL     OW26707   1.007   8.516   5.010
 4882SOL    HW126708   1.057   8.431   4.994
 4882SOL    HW226709   0.961   8.543   4.925
 4883SOL     OW26710   0.094   8.221   3.884
 4883SOL    HW126711   0.154   8.168   3.944
 4883SOL    HW226712   0.000   8.189   3.896
 4884SOL     OW26713   1.614   8.219   4.084
 4884SOL    HW126714   1.682   8.153   4.051
 4884SOL    HW226715   1.629   8.307   4.040
 4885SOL     OW26716   0.862   9.206   4.732
 4885SOL    HW126717   0.908   9.139   4.674
 4885SOL    HW226718   0.788   9.162   4.782
 4886SOL     OW26719   0.769   8.275   3.768
 4886SOL    HW126720   0.798   8.194   3.819
 4886SOL    HW226721   0.669   8.274   3.759
 4887SOL     OW26722   1.365   7.807   4.114
 4887SOL    HW126723   1.302   7.865   4.062
 4887SOL    HW226724   1.458   7.841   4.102
 4888SOL     OW26725   0.144   7.663   5.104
 4888SOL    HW126726   0.216   7.673   5.035
 4888SOL    HW226727   0.055   7.662   5.059
 4889SOL     OW26728   1.042   8.284   4.869
 4889SOL    HW126729   1.036   8.270   4.770
 4889SOL    HW226730   0.961   8.245   4.913
 4890SOL     OW26731   1.633   7.818   4.184
 4890SOL    HW126732   1.729   7.789   4.181
 4890SOL    HW226733   1.594   7.796   4.273
 4891SOL     OW26734   0.917   8.893   4.621
 4891SOL    HW126735   0.975   8.904   4.540
 4891SOL    HW226736   0.823   8.917   4.599
 4892SOL     OW26737   0.867   7.759   3.906
 4892SOL    HW126738   0.776   7.772   3.944
 4892SOL    HW226739   0.927   7.719   3.976
 4893SOL     OW26740   0.978   8.704   3.841
 4893SOL    HW126741   1.031   8.644   3.901
 4893SOL    HW226742   1.017   8.705   3.750
 4894SOL     OW26743   1.729   8.999   4.326
 4894SOL    HW126744   1.696   9.092   4.345
 4894SOL    HW226745   1.727   8.983   4.227
 4895SOL     OW26746   1.144   8.272   4.315
 4895SOL    HW126747   1.209   8.300   4.386
 4895SOL    HW226748   1.065   8.333   4.317
 4896SOL     OW26749   0.892   8.998   5.339
 4896SOL    HW126750   0.880   8.929   5.268
 4896SOL    HW226751   0.855   8.963   5.426
 4897SOL     OW26752   1.336   8.312   4.518
 4897SOL    HW126753   1.357   8.254   4.596
 4897SOL    HW226754   1.345   8.408   4.544
 4898SOL     OW26755   0.292   8.441   4.564
 4898SOL    HW126756   0.215   8.503   4.557
 4898SOL    HW226757   0.329   8.442   4.657
 4899SOL     OW26758   0.925   8.389   4.263
 4899SOL    HW126759   0.912   8.300   4.220
 4899SOL    HW226760   0.856   8.403   4.334
 4900SOL     OW26761   1.229   8.777   5.102
 4900SOL    HW126762   1.262   8.862   5.143
 4900SOL    HW226763   1.130   8.773   5.109
 4901SOL     OW26764   0.036   7.694   4.166
 4901SOL    HW126765   0.096   7.645   4.104
 4901SOL    HW226766   0.091   7.746   4.231
 4902SOL     OW26767   1.659   9.192   3.857
 4902SOL    HW126768   1.749   9.236   3.859
 4902SOL    HW226769   1.658   9.123   3.785
 4903SOL     OW26770   0.841   8.205   4.080
 4903SOL    HW126771   0.752   8.233   4.045
 4903SOL    HW226772   0.882   8.139   4.016
 4904SOL     OW26773   0.363   7.923   4.619
 4904SOL    HW126774   0.419   7.916   4.536
 4904SOL    HW226775   0.420   7.901   4.699
 4905SOL     OW26776   1.336   9.143   4.827
 4905SOL    HW126777   1.355   9.206   4.753
 4905SOL    HW226778   1.344   9.049   4.794
 4906SOL     OW26779   0.041   8.538   4.639
 4906SOL    HW126780  -0.049   8.554   4.600
 4906SOL    HW226781   0.039   8.454   4.694
 4907SOL     OW26782   0.792   7.443   4.089
 4907SOL    HW126783   0.753   7.432   3.998
 4907SOL    HW226784   0.748   7.519   4.136
 4908SOL     OW26785   0.037   8.579   4.183
 4908SOL    HW126786   0.115   8.637   4.207
 4908SOL    HW226787   0.056   8.530   4.098
 4909SOL     OW26788   1.567   7.707   5.267
 4909SOL    HW126789   1.506   7.785   5.264
 4909SOL    HW226790   1.622   7.711   5.350
 4910SOL     OW26791   1.283   7.653   4.558
 4910SOL    HW126792   1.282   7.731   4.495
 4910SOL    HW226793   1.326   7.680   4.644
 4911SOL     OW26794   1.403   7.459   3.854
 4911SOL    HW126795   1.483   7.399   3.851
 4911SOL    HW226796   1.329   7.412   3.902
 4912SOL     OW26797   1.616   7.431   5.288
 4912SOL    HW126798   1.642   7.388   5.202
 4912SOL    HW226799   1.566   7.515   5.270
 4913SOL     OW26800   0.718   7.690   4.420
 4913SOL    HW126801   0.707   7.632   4.501
 4913SOL    HW226802   0.803   7.742   4.428
 4914SOL     OW26803   1.298   8.041   4.812
 4914SOL    HW126804   1.352   8.081   4.738
 4914SOL    HW226805   1.336   8.070   4.900
 4915SOL     OW26806   1.591   7.447   4.128
 4915SOL    HW126807   1.598   7.401   4.040
 4915SOL    HW226808   1.495   7.457   4.153
 4916SOL     OW26809   0.567   8.762   5.491
 4916SOL    HW126810   0.528   8.825   5.424
 4916SOL    HW226811   0.650   8.802   5.531
 4917SOL     OW26812   1.190   7.985   4.530
 4917SOL    HW126813   1.272   7.962   4.478
 4917SOL    HW226814   1.185   7.926   4.611
 4918SOL     OW26815   1.790   8.012   5.366
 4918SOL    HW126816   1.779   8.098   5.315
 4918SOL    HW226817   1.884   8.003   5.396
 4919SOL     OW26818   1.591   7.917   5.536
 4919SOL    HW126819   1.671   7.942   5.480
 4919SOL    HW226820   1.622   7.882   5.624
 4920SOL     OW26821   1.302   8.220   4.116
 4920SOL    HW126822   1.248   8.218   4.200
 4920SOL    HW226823   1.379   8.283   4.127
 4921SOL     OW26824   1.599   8.316   4.336
 4921SOL    HW126825   1.613   8.279   4.243
 4921SOL    HW226826   1.510   8.286   4.370
 4922SOL     OW26827   1.755   8.253   5.231
 4922SOL    HW126828   1.657   8.274   5.233
 4922SOL    HW226829   1.804   8.329   5.190
 4923SOL     OW26830   1.609   7.673   3.910
 4923SOL    HW126831   1.614   7.715   4.001
 4923SOL    HW226832   1.542   7.598   3.912
 4924SOL     OW26833   0.756   8.888   5.130
 4924SOL    HW126834   0.693   8.966   5.137
 4924SOL    HW226835   0.724   8.826   5.058
 4925SOL     OW26836   0.147   7.683   5.395
 4925SOL    HW126837   0.165   7.672   5.297
 4925SOL    HW226838   0.049   7.679   5.412
 4926SOL     OW26839   0.027   9.097   5.339
 4926SOL    HW126840   0.099   9.083   5.407
 4926SOL    HW226841  -0.062   9.100   5.384
 4927SOL     OW26842   0.195   7.753   4.363
 4927SOL    HW126843   0.138   7.808   4.424
 4927SOL    HW226844   0.265   7.705   4.416
 4928SOL     OW26845   1.367   8.985   5.226
 4928SOL    HW126846   1.320   9.053   5.281
 4928SOL    HW226847   1.434   9.031   5.167
 4929SOL     OW26848   0.332   7.944   3.961
 4929SOL    HW126849   0.404   7.973   3.898
 4929SOL    HW226850   0.288   8.024   4.001
 4930SOL     OW26851   1.718   7.606   5.064
 4930SOL    HW126852   1.674   7.654   5.140
 4930SOL    HW226853   1.696   7.652   4.978
 4931SOL     OW26854   0.447   9.207   4.427
 4931SOL    HW126855   0.371   9.173   4.372
 4931SOL    HW226856   0.533   9.170   4.392
 4932SOL     OW26857   0.372   8.716   4.872
 4932SOL    HW126858   0.384   8.732   4.969
 4932SOL    HW226859   0.285   8.756   4.842
 4933SOL     OW26860   1.256   8.920   5.518
 4933SOL    HW126861   1.215   8.835   5.484
 4933SOL    HW226862   1.236   8.994   5.454
 4934SOL     OW26863   0.746   8.640   4.208
 4934SOL    HW126864   0.789   8.571   4.150
 4934SOL    HW226865   0.710   8.597   4.291
 4935SOL     OW26866   0.378   8.191   4.410
 4935SOL    HW126867   0.370   8.289   4.428
 4935SOL    HW226868   0.462   8.157   4.451
 4936SOL     OW26869   0.224   7.671   3.925
 4936SOL    HW126870   0.268   7.640   3.842
 4936SOL    HW226871   0.225   7.771   3.929
 4937SOL     OW26872   0.077   7.923   4.536
 4937SOL    HW126873   0.041   8.016   4.528
 4937SOL    HW226874   0.160   7.924   4.592
 4938SOL     OW26875   0.512   8.510   3.922
 4938SOL    HW126876   0.612   8.510   3.933
 4938SOL    HW226877   0.481   8.603   3.901
 4939SOL     OW26878   1.138   8.102   3.738
 4939SOL    HW126879   1.069   8.159   3.694
 4939SOL    HW226880   1.219   8.096   3.679
 4940SOL     OW26881   0.873   8.021   3.881
 4940SOL    HW126882   0.963   8.022   3.836
 4940SOL    HW226883   0.850   7.927   3.906
 4941SOL     OW26884   1.324   7.538   4.175
 4941SOL    HW126885   1.234   7.522   4.216
 4941SOL    HW226886   1.332   7.634   4.149
 4942SOL     OW26887   1.438   7.938   5.191
 4942SOL    HW126888   1.390   7.961   5.275
 4942SOL    HW226889   1.372   7.908   5.122
 4943SOL     OW26890   0.073   7.453   3.835
 4943SOL    HW126891   0.136   7.376   3.843
 4943SOL    HW226892   0.093   7.521   3.906
 4944SOL     OW26893   0.346   8.428   4.836
 4944SOL    HW126894   0.357   8.383   4.925
 4944SOL    HW226895   0.373   8.524   4.843
 4945SOL     OW26896   1.645   8.440   3.936
 4945SOL    HW126897   1.716   8.510   3.938
 4945SOL    HW226898   1.632   8.410   3.841
 4946SOL     OW26899   0.627   8.041   4.858
 4946SOL    HW126900   0.702   8.084   4.907
 4946SOL    HW226901   0.560   8.006   4.924
 4947SOL     OW26902   0.770   8.410   5.175
 4947SOL    HW126903   0.839   8.462   5.125
 4947SOL    HW226904   0.765   8.443   5.270
 4948SOL     OW26905   1.162   8.431   5.335
 4948SOL    HW126906   1.084   8.377   5.368
 4948SOL    HW226907   1.243   8.409   5.390
 4949SOL     OW26908   1.091   7.613   4.331
 4949SOL    HW126909   1.150   7.673   4.386
 4949SOL    HW226910   1.018   7.577   4.388
 4950SOL     OW26911   1.201   9.145   5.371
 4950SOL    HW126912   1.106   9.143   5.339
 4950SOL    HW226913   1.222   9.236   5.408
 4951SOL     OW26914   0.619   7.490   4.602
 4951SOL    HW126915   0.547   7.423   4.588
 4951SOL    HW226916   0.701   7.444   4.637
 4952SOL     OW26917   1.012   8.619   4.514
 4952SOL    HW126918   1.051   8.662   4.433
 4952SOL    HW226919   1.085   8.602   4.581
 4953SOL     OW26920   0.706   8.347   4.716
 4953SOL    HW126921   0.704   8.263   4.661
 4953SOL    HW226922   0.655   8.333   4.801
 4954SOL     OW26923   0.273   7.402   4.122
 4954SOL    HW126924   0.311   7.490   4.149
 4954SOL    HW226925   0.196   7.378   4.182
 4955SOL     OW26926   0.095   8.489   3.942
 4955SOL    HW126927   0.085   8.392   3.921
 4955SOL    HW226928   0.148   8.534   3.870
 4956SOL     OW26929   1.792   7.601   4.543
 4956SOL    HW126930   1.747   7.583   4.630
 4956SOL    HW226931   1.890   7.618   4.559
 4957SOL     OW26932   0.840   8.577   4.795
 4957SOL    HW126933   0.791   8.492   4.776
 4957SOL    HW226934   0.910   8.592   4.726
 4958SOL     OW26935   1.178   8.000   4.004
 4958SOL    HW126936   1.230   8.072   4.050
 4958SOL    HW226937   1.191   8.007   3.906
 4959SOL     OW26938   1.539   8.815   5.331
 4959SOL    HW126939   1.524   8.717   5.345
 4959SOL    HW226940   1.456   8.857   5.295
 4960SOL     OW26941   0.798   8.883   3.729
 4960SOL    HW126942   0.773   8.960   3.788
 4960SOL    HW226943   0.862   8.823   3.777
 4961SOL     OW26944   0.616   9.090   4.763
 4961SOL    HW126945   0.636   9.060   4.670
 4961SOL    HW226946   0.541   9.035   4.800
 4962SOL     OW26947   0.759   8.501   4.480
 4962SOL    HW126948   0.848   8.547   4.480
 4962SOL    HW226949   0.752   8.441   4.559
 4963SOL     OW26950   0.937   8.848   4.149
 4963SOL    HW126951   0.987   8.836   4.064
 4963SOL    HW226952   0.883   8.765   4.168
 4964SOL     OW26953   0.127   8.195   4.549
 4964SOL    HW126954   0.222   8.186   4.517
 4964SOL    HW226955   0.093   8.287   4.528
 4965SOL     OW26956   1.190   8.568   4.712
 4965SOL    HW126957   1.174   8.662   4.743
 4965SOL    HW226958   1.193   8.507   4.792
 4966SOL     OW26959   0.528   8.256   4.048
 4966SOL    HW126960   0.478   8.321   3.992
 4966SOL    HW226961   0.470   8.177   4.067
 4967SOL     OW26962   1.609   8.287   4.746
 4967SOL    HW126963   1.628   8.326   4.655
 4967SOL    HW226964   1.563   8.356   4.802
 4968SOL     OW26965   0.002   7.429   4.243
 4968SOL    HW126966  -0.085   7.416   4.196
 4968SOL    HW226967   0.010   7.524   4.273
 4969SOL     OW26968   0.439   8.949   5.309
 4969SOL    HW126969   0.381   9.014   5.358
 4969SOL    HW226970   0.501   8.999   5.249
 4970SOL     OW26971   1.795   8.836   5.250
 4970SOL    HW126972   1.823   8.929   5.272
 4970SOL    HW226973   1.702   8.820   5.283
 4971SOL     OW26974   1.045   7.949   4.800
 4971SOL    HW126975   1.131   8.000   4.799
 4971SOL    HW226976   1.051   7.875   4.867
 4972SOL     OW26977   0.449   8.895   4.372
 4972SOL    HW126978   0.447   8.796   4.385
 4972SOL    HW226979   0.358   8.928   4.349
 4973SOL     OW26980   1.090   9.012   4.960
 4973SOL    HW126981   1.016   9.076   4.978
 4973SOL    HW226982   1.169   9.061   4.922
 4974SOL     OW26983   0.299   9.142   5.459
 4974SOL    HW126984   0.342   9.226   5.425
 4974SOL    HW226985   0.324   9.129   5.555
 4975SOL     OW26986   0.994   7.564   4.589
 4975SOL    HW126987   1.090   7.565   4.617
 4975SOL    HW226988   0.939   7.521   4.661
 4976SOL     OW26989   1.056   8.570   4.105
 4976SOL    HW126990   1.136   8.606   4.153
 4976SOL    HW226991   1.014   8.497   4.161
 4977SOL     OW26992   1.647   7.837   4.469
 4977SOL    HW126993   1.666   7.923   4.516
 4977SOL    HW226994   1.715   7.768   4.497
 4978SOL     OW26995   0.790   8.509   3.955
 4978SOL    HW126996   0.862   8.568   3.920
 4978SOL    HW226997   0.830   8.425   3.991
 4979SOL     OW26998   0.861   7.485   3.807
 4979SOL    HW126999   0.936   7.419   3.819
 4979SOL    HW227000   0.892   7.576   3.835
 4980SOL     OW27001   0.540   7.914   4.419
 4980SOL    HW127002   0.578   7.825   4.445
 4980SOL    HW227003   0.607   7.964   4.364
 4981SOL     OW27004   1.750   8.515   5.042
 4981SOL    HW127005   1.764   8.613   5.056
 4981SOL    HW227006   1.807   8.484   4.966
 4982SOL     OW27007   0.233   8.624   3.734
 4982SOL    HW127008   0.225   8.636   3.635
 4982SOL    HW227009   0.292   8.695   3.772
 4983SOL     OW27010   1.310   8.486   5.118
 4983SOL    HW127011   1.254   8.445   5.189
 4983SOL    HW227012   1.290   8.584   5.112
 4984SOL     OW27013   0.577   9.102   5.118
 4984SOL    HW127014   0.626   9.182   5.082
 4984SOL    HW227015   0.485   9.100   5.079
 4985SOL     OW27016   1.659   8.944   4.719
 4985SOL    HW127017   1.631   9.037   4.743
 4985SOL    HW227018   1.709   8.903   4.795
 4986SOL     OW27019   0.055   8.317   4.280
 4986SOL    HW127020   0.062   8.416   4.267
 4986SOL    HW227021  -0.036   8.294   4.314
 4987SOL     OW27022   1.631   8.491   4.530
 4987SOL    HW127023   1.593   8.580   4.503
 4987SOL    HW227024   1.631   8.429   4.452
 4988SOL     OW27025   0.789   7.897   4.699
 4988SOL    HW127026   0.881   7.925   4.726
 4988SOL    HW227027   0.721   7.948   4.753
 4989SOL     OW27028   0.642   8.748   4.926
 4989SOL    HW127029   0.555   8.747   4.877
 4989SOL    HW227030   0.708   8.688   4.879
 4990SOL     OW27031   0.208   8.090   4.840
 4990SOL    HW127032   0.246   8.149   4.911
 4990SOL    HW227033   0.191   8.143   4.758
 4991SOL     OW27034   1.622   9.052   5.486
 4991SOL    HW127035   1.591   8.974   5.431
 4991SOL    HW227036   1.591   9.137   5.444
 4992SOL     OW27037   1.330   8.590   4.207
 4992SOL    HW127038   1.429   8.594   4.223
 4992SOL    HW227039   1.313   8.576   4.109
 4993SOL     OW27040   0.683   7.756   4.155
 4993SOL    HW127041   0.585   7.750   4.135
 4993SOL    HW227042   0.702   7.713   4.243
 4994SOL     OW27043   1.603   7.439   4.414
 4994SOL    HW127044   1.598   7.480   4.323
 4994SOL    HW227045   1.684   7.473   4.461
 4995SOL     OW27046   1.206   8.195   5.107
 4995SOL    HW127047   1.305   8.204   5.097
 4995SOL    HW227048   1.162   8.197   5.017
 4996SOL     OW27049   0.700   8.155   4.509
 4996SOL    HW127050   0.722   8.077   4.567
 4996SOL    HW227051   0.709   8.129   4.413
 4997SOL     OW27052   1.365   8.862   4.721
 4997SOL    HW127053   1.279   8.819   4.750
 4997SOL    HW227054   1.354   8.902   4.630
 4998SOL     OW27055   1.368   7.847   4.396
 4998SOL    HW127056   1.367   7.839   4.297
 4998SOL    HW227057   1.457   7.819   4.431
 4999SOL     OW27058   1.095   8.863   6.228
 4999SOL    HW127059   1.186   8.897   6.251
 4999SOL    HW227060   1.067   8.901   6.140
 5000SOL     OW27061   1.606   8.659   6.086
 5000SOL    HW127062   1.617   8.743   6.140
 5000SOL    HW227063   1.696   8.622   6.063
 5001SOL     OW27064   1.686   7.941   6.950
 5001SOL    HW127065   1.588   7.933   6.972
 5001SOL    HW227066   1.739   7.930   7.034
 5002SOL     OW27067   1.340   8.967   6.330
 5002SOL    HW127068   1.329   9.064   6.353
 5002SOL    HW227069   1.433   8.950   6.300
 5003SOL     OW27070   1.218   7.478   6.888
 5003SOL    HW127071   1.142   7.433   6.935
 5003SOL    HW227072   1.247   7.423   6.810
 5004SOL     OW27073   0.956   8.258   7.265
 5004SOL    HW127074   0.921   8.233   7.175
 5004SOL    HW227075   0.880   8.279   7.326
 5005SOL     OW27076   0.563   8.932   5.959
 5005SOL    HW127077   0.519   8.941   6.048
 5005SOL    HW227078   0.634   8.862   5.963
 5006SOL     OW27079   1.551   8.450   7.064
 5006SOL    HW127080   1.459   8.455   7.026
 5006SOL    HW227081   1.616   8.488   6.998
 5007SOL     OW27082   1.451   8.457   6.745
 5007SOL    HW127083   1.376   8.446   6.810
 5007SOL    HW227084   1.488   8.550   6.751
 5008SOL     OW27085   0.947   8.712   7.045
 5008SOL    HW127086   0.890   8.775   6.991
 5008SOL    HW227087   0.980   8.638   6.986
 5009SOL     OW27088   0.490   8.605   6.254
 5009SOL    HW127089   0.423   8.559   6.313
 5009SOL    HW227090   0.582   8.573   6.277
 5010SOL     OW27091   0.717   8.011   6.085
 5010SOL    HW127092   0.756   8.081   6.026
 5010SOL    HW227093   0.691   7.931   6.031
 5011SOL     OW27094   1.337   7.919   7.294
 5011SOL    HW127095   1.433   7.923   7.320
 5011SOL    HW227096   1.293   7.843   7.341
 5012SOL     OW27097   0.420   8.774   5.738
 5012SOL    HW127098   0.484   8.790   5.663
 5012SOL    HW227099   0.444   8.832   5.816
 5013SOL     OW27100   0.571   7.730   6.548
 5013SOL    HW127101   0.647   7.795   6.544
 5013SOL    HW227102   0.601   7.641   6.515
 5014SOL     OW27103   0.268   8.156   5.966
 5014SOL    HW127104   0.283   8.090   6.040
 5014SOL    HW227105   0.218   8.235   6.001
 5015SOL     OW27106   0.854   9.101   6.143
 5015SOL    HW127107   0.919   9.034   6.107
 5015SOL    HW227108   0.844   9.177   6.079
 5016SOL     OW27109   1.746   8.983   5.885
 5016SOL    HW127110   1.842   8.957   5.878
 5016SOL    HW227111   1.722   9.043   5.809
 5017SOL     OW27112   1.658   7.676   6.656
 5017SOL    HW127113   1.709   7.748   6.609
 5017SOL    HW227114   1.563   7.703   6.665
 5018SOL     OW27115   1.058   7.705   5.925
 5018SOL    HW127116   1.083   7.799   5.946
 5018SOL    HW227117   1.059   7.651   6.009
 5019SOL     OW27118   0.182   8.418   7.110
 5019SOL    HW127119   0.278   8.433   7.128
 5019SOL    HW227120   0.144   8.356   7.179
 5020SOL     OW27121   0.681   8.987   6.351
 5020SOL    HW127122   0.754   9.010   6.287
 5020SOL    HW227123   0.610   8.934   6.305
 5021SOL     OW27124   1.023   8.019   7.105
 5021SOL    HW127125   1.056   7.936   7.152
 5021SOL    HW227126   1.096   8.087   7.104
 5022SOL     OW27127   1.627   8.819   6.327
 5022SOL    HW127128   1.623   8.854   6.420
 5022SOL    HW227129   1.686   8.878   6.271
 5023SOL     OW27130   0.358   8.640   6.003
 5023SOL    HW127131   0.404   8.614   6.088
 5023SOL    HW227132   0.378   8.572   5.932
 5024SOL     OW27133   1.216   7.695   5.714
 5024SOL    HW127134   1.310   7.665   5.732
 5024SOL    HW227135   1.164   7.695   5.800
 5025SOL     OW27136   0.368   7.900   6.809
 5025SOL    HW127137   0.358   7.813   6.761
 5025SOL    HW227138   0.304   7.967   6.772
 5026SOL     OW27139   1.450   8.180   6.847
 5026SOL    HW127140   1.454   8.274   6.812
 5026SOL    HW227141   1.543   8.149   6.869
 5027SOL     OW27142   0.403   7.672   5.968
 5027SOL    HW127143   0.357   7.712   6.047
 5027SOL    HW227144   0.351   7.691   5.886
 5028SOL     OW27145   1.531   9.199   6.880
 5028SOL    HW127146   1.474   9.150   6.814
 5028SOL    HW227147   1.617   9.226   6.837
 5029SOL     OW27148   1.826   7.917   6.735
 5029SOL    HW127149   1.883   7.999   6.737
 5029SOL    HW227150   1.767   7.916   6.815
 5030SOL     OW27151   1.843   9.143   6.648
 5030SOL    HW127152   1.889   9.153   6.736
 5030SOL    HW227153   1.910   9.146   6.575
 5031SOL     OW27154   0.956   7.883   6.210
 5031SOL    HW127155   1.032   7.911   6.269
 5031SOL    HW227156   0.912   7.963   6.171
 5032SOL     OW27157   1.191   8.347   5.727
 5032SOL    HW127158   1.228   8.297   5.805
 5032SOL    HW227159   1.121   8.292   5.682
 5033SOL     OW27160   1.033   7.769   7.348
 5033SOL    HW127161   1.096   7.774   7.425
 5033SOL    HW227162   0.941   7.747   7.381
 5034SOL     OW27163   1.774   8.016   5.806
 5034SOL    HW127164   1.795   7.935   5.752
 5034SOL    HW227165   1.791   7.997   5.903
 5035SOL     OW27166   1.068   9.154   5.714
 5035SOL    HW127167   1.102   9.067   5.679
 5035SOL    HW227168   1.036   9.142   5.808
 5036SOL     OW27169   0.749   7.421   7.246
 5036SOL    HW127170   0.756   7.327   7.213
 5036SOL    HW227171   0.806   7.431   7.328
 5037SOL     OW27172   1.672   8.022   6.514
 5037SOL    HW127173   1.657   8.113   6.551
 5037SOL    HW227174   1.742   7.975   6.568
 5038SOL     OW27175   1.082   8.688   7.280
 5038SOL    HW127176   1.104   8.598   7.242
 5038SOL    HW227177   1.017   8.735   7.221
 5039SOL     OW27178   0.737   8.530   7.284
 5039SOL    HW127179   0.708   8.607   7.341
 5039SOL    HW227180   0.747   8.449   7.342
 5040SOL     OW27181   1.372   7.394   6.390
 5040SOL    HW127182   1.321   7.478   6.372
 5040SOL    HW227183   1.458   7.396   6.339
 5041SOL     OW27184   1.727   7.600   7.319
 5041SOL    HW127185   1.704   7.621   7.414
 5041SOL    HW227186   1.703   7.505   7.299
 5042SOL     OW27187   0.030   8.004   6.063
 5042SOL    HW127188   0.032   7.955   6.150
 5042SOL    HW227189   0.032   8.103   6.081
 5043SOL     OW27190   0.351   7.592   6.384
 5043SOL    HW127191   0.403   7.632   6.459
 5043SOL    HW227192   0.404   7.519   6.341
 5044SOL     OW27193   0.335   7.640   6.718
 5044SOL    HW127194   0.300   7.547   6.718
 5044SOL    HW227195   0.422   7.643   6.669
 5045SOL     OW27196   1.002   8.262   6.458
 5045SOL    HW127197   1.028   8.342   6.404
 5045SOL    HW227198   0.996   8.182   6.398
 5046SOL     OW27199   0.203   8.889   5.917
 5046SOL    HW127200   0.230   8.795   5.937
 5046SOL    HW227201   0.228   8.911   5.823
 5047SOL     OW27202   1.485   8.758   6.791
 5047SOL    HW127203   1.456   8.795   6.702
 5047SOL    HW227204   1.407   8.758   6.853
 5048SOL     OW27205   0.217   9.032   6.154
 5048SOL    HW127206   0.133   9.083   6.172
 5048SOL    HW227207   0.208   8.981   6.069
 5049SOL     OW27208   1.738   8.829   6.829
 5049SOL    HW127209   1.769   8.843   6.923
 5049SOL    HW227210   1.639   8.816   6.828
 5050SOL     OW27211   1.007   8.516   6.855
 5050SOL    HW127212   1.057   8.431   6.839
 5050SOL    HW227213   0.961   8.543   6.770
 5051SOL     OW27214   0.094   8.221   5.729
 5051SOL    HW127215   0.154   8.168   5.789
 5051SOL    HW227216   0.000   8.189   5.741
 5052SOL     OW27217   1.614   8.219   5.929
 5052SOL    HW127218   1.682   8.153   5.896
 5052SOL    HW227219   1.629   8.307   5.885
 5053SOL     OW27220   0.862   9.206   6.577
 5053SOL    HW127221   0.908   9.139   6.519
 5053SOL    HW227222   0.788   9.162   6.627
 5054SOL     OW27223   1.365   7.807   5.959
 5054SOL    HW127224   1.302   7.865   5.907
 5054SOL    HW227225   1.458   7.841   5.947
 5055SOL     OW27226   0.262   8.008   7.059
 5055SOL    HW127227   0.282   7.913   7.034
 5055SOL    HW227228   0.225   8.011   7.152
 5056SOL     OW27229   0.144   7.663   6.949
 5056SOL    HW127230   0.216   7.673   6.880
 5056SOL    HW227231   0.055   7.662   6.904
 5057SOL     OW27232   1.042   8.284   6.714
 5057SOL    HW127233   1.036   8.270   6.615
 5057SOL    HW227234   0.961   8.245   6.758
 5058SOL     OW27235   1.633   7.818   6.029
 5058SOL    HW127236   1.729   7.789   6.026
 5058SOL    HW227237   1.594   7.796   6.118
 5059SOL     OW27238   0.917   8.893   6.466
 5059SOL    HW127239   0.975   8.904   6.385
 5059SOL    HW227240   0.823   8.917   6.444
 5060SOL     OW27241   0.867   7.759   5.751
 5060SOL    HW127242   0.776   7.772   5.789
 5060SOL    HW227243   0.927   7.719   5.821
 5061SOL     OW27244   0.978   8.704   5.686
 5061SOL    HW127245   1.031   8.644   5.746
 5061SOL    HW227246   1.017   8.705   5.595
 5062SOL     OW27247   1.729   8.999   6.171
 5062SOL    HW127248   1.696   9.092   6.190
 5062SOL    HW227249   1.727   8.983   6.072
 5063SOL     OW27250   1.144   8.272   6.160
 5063SOL    HW127251   1.209   8.300   6.231
 5063SOL    HW227252   1.065   8.333   6.162
 5064SOL     OW27253   0.892   8.998   7.184
 5064SOL    HW127254   0.880   8.929   7.113
 5064SOL    HW227255   0.855   8.963   7.271
 5065SOL     OW27256   1.336   8.312   6.363
 5065SOL    HW127257   1.357   8.254   6.441
 5065SOL    HW227258   1.345   8.408   6.389
 5066SOL     OW27259   0.292   8.441   6.409
 5066SOL    HW127260   0.215   8.503   6.402
 5066SOL    HW227261   0.329   8.442   6.502
 5067SOL     OW27262   0.925   8.389   6.108
 5067SOL    HW127263   0.912   8.300   6.065
 5067SOL    HW227264   0.856   8.403   6.179
 5068SOL     OW27265   1.229   8.777   6.947
 5068SOL    HW127266   1.262   8.862   6.988
 5068SOL    HW227267   1.130   8.773   6.954
 5069SOL     OW27268   0.036   7.694   6.011
 5069SOL    HW127269   0.096   7.645   5.949
 5069SOL    HW227270   0.091   7.746   6.076
 5070SOL     OW27271   1.659   9.192   5.702
 5070SOL    HW127272   1.749   9.236   5.704
 5070SOL    HW227273   1.658   9.123   5.630
 5071SOL     OW27274   0.823   8.159   6.860
 5071SOL    HW127275   0.825   8.245   6.911
 5071SOL    HW227276   0.880   8.091   6.907
 5072SOL     OW27277   0.060   9.186   6.931
 5072SOL    HW127278   0.068   9.286   6.929
 5072SOL    HW227279   0.036   9.157   7.024
 5073SOL     OW27280   0.841   8.205   5.925
 5073SOL    HW127281   0.752   8.233   5.890
 5073SOL    HW227282   0.882   8.139   5.861
 5074SOL     OW27283   0.363   7.923   6.464
 5074SOL    HW127284   0.419   7.916   6.381
 5074SOL    HW227285   0.420   7.901   6.544
 5075SOL     OW27286   0.360   9.121   5.735
 5075SOL    HW127287   0.452   9.151   5.710
 5075SOL    HW227288   0.335   9.160   5.824
 5076SOL     OW27289   1.336   9.143   6.672
 5076SOL    HW127290   1.355   9.206   6.598
 5076SOL    HW227291   1.344   9.049   6.639
 5077SOL     OW27292   0.041   8.538   6.484
 5077SOL    HW127293  -0.049   8.554   6.445
 5077SOL    HW227294   0.039   8.454   6.539
 5078SOL     OW27295   0.037   8.579   6.028
 5078SOL    HW127296   0.115   8.637   6.052
 5078SOL    HW227297   0.056   8.530   5.943
 5079SOL     OW27298   1.567   7.707   7.112
 5079SOL    HW127299   1.506   7.785   7.109
 5079SOL    HW227300   1.622   7.711   7.195
 5080SOL     OW27301   1.283   7.653   6.403
 5080SOL    HW127302   1.282   7.731   6.340
 5080SOL    HW227303   1.326   7.680   6.489
 5081SOL     OW27304   1.403   7.459   5.699
 5081SOL    HW127305   1.483   7.399   5.696
 5081SOL    HW227306   1.329   7.412   5.747
 5082SOL     OW27307   1.616   7.431   7.133
 5082SOL    HW127308   1.642   7.388   7.047
 5082SOL    HW227309   1.566   7.515   7.115
 5083SOL     OW27310   0.718   7.690   6.265
 5083SOL    HW127311   0.707   7.632   6.346
 5083SOL    HW227312   0.803   7.742   6.273
 5084SOL     OW27313   1.298   8.041   6.657
 5084SOL    HW127314   1.352   8.081   6.583
 5084SOL    HW227315   1.336   8.070   6.745
 5085SOL     OW27316   1.591   7.447   5.973
 5085SOL    HW127317   1.598   7.401   5.885
 5085SOL    HW227318   1.495   7.457   5.998
 5086SOL     OW27319   0.567   8.762   7.336
 5086SOL    HW127320   0.528   8.825   7.269
 5086SOL    HW227321   0.650   8.802   7.376
 5087SOL     OW27322   0.443   8.494   7.168
 5087SOL    HW127323   0.462   8.518   7.073
 5087SOL    HW227324   0.436   8.577   7.223
 5088SOL     OW27325   0.104   8.784   6.642
 5088SOL    HW127326   0.073   8.710   6.583
 5088SOL    HW227327   0.036   8.802   6.713
 5089SOL     OW27328   1.190   7.985   6.375
 5089SOL    HW127329   1.272   7.962   6.323
 5089SOL    HW227330   1.185   7.926   6.456
 5090SOL     OW27331   1.361   7.785   6.630
 5090SOL    HW127332   1.335   7.882   6.636
 5090SOL    HW227333   1.361   7.745   6.722
 5091SOL     OW27334   1.591   7.917   7.381
 5091SOL    HW127335   1.671   7.942   7.325
 5091SOL    HW227336   1.622   7.882   7.469
 5092SOL     OW27337   1.302   8.220   5.961
 5092SOL    HW127338   1.248   8.218   6.045
 5092SOL    HW227339   1.379   8.283   5.972
 5093SOL     OW27340   1.599   8.316   6.181
 5093SOL    HW127341   1.613   8.279   6.088
 5093SOL    HW227342   1.510   8.286   6.215
 5094SOL     OW27343   1.609   7.673   5.755
 5094SOL    HW127344   1.614   7.715   5.846
 5094SOL    HW227345   1.542   7.598   5.757
 5095SOL     OW27346   0.756   8.888   6.975
 5095SOL    HW127347   0.693   8.966   6.982
 5095SOL    HW227348   0.724   8.826   6.903
 5096SOL     OW27349   0.147   7.683   7.240
 5096SOL    HW127350   0.165   7.672   7.142
 5096SOL    HW227351   0.049   7.679   7.257
 5097SOL     OW27352   0.027   9.097   7.184
 5097SOL    HW127353   0.099   9.083   7.252
 5097SOL    HW227354  -0.062   9.100   7.229
 5098SOL     OW27355   0.195   7.753   6.208
 5098SOL    HW127356   0.138   7.808   6.269
 5098SOL    HW227357   0.265   7.705   6.261
 5099SOL     OW27358   1.367   8.985   7.071
 5099SOL    HW127359   1.320   9.053   7.126
 5099SOL    HW227360   1.434   9.031   7.012
 5100SOL     OW27361   1.718   7.606   6.909
 5100SOL    HW127362   1.674   7.654   6.985
 5100SOL    HW227363   1.696   7.652   6.823
 5101SOL     OW27364   0.447   9.207   6.272
 5101SOL    HW127365   0.371   9.173   6.217
 5101SOL    HW227366   0.533   9.170   6.237
 5102SOL     OW27367   0.372   8.716   6.717
 5102SOL    HW127368   0.384   8.732   6.814
 5102SOL    HW227369   0.285   8.756   6.687
 5103SOL     OW27370   1.256   8.920   7.363
 5103SOL    HW127371   1.215   8.835   7.329
 5103SOL    HW227372   1.236   8.994   7.299
 5104SOL     OW27373   0.746   8.640   6.053
 5104SOL    HW127374   0.789   8.571   5.995
 5104SOL    HW227375   0.710   8.597   6.136
 5105SOL     OW27376   0.378   8.191   6.255
 5105SOL    HW127377   0.370   8.289   6.273
 5105SOL    HW227378   0.462   8.157   6.296
 5106SOL     OW27379   0.224   7.671   5.770
 5106SOL    HW127380   0.268   7.640   5.687
 5106SOL    HW227381   0.225   7.771   5.774
 5107SOL     OW27382   0.077   7.923   6.381
 5107SOL    HW127383   0.041   8.016   6.373
 5107SOL    HW227384   0.160   7.924   6.437
 5108SOL     OW27385   0.512   8.510   5.767
 5108SOL    HW127386   0.612   8.510   5.778
 5108SOL    HW227387   0.481   8.603   5.746
 5109SOL     OW27388   1.138   8.102   5.583
 5109SOL    HW127389   1.069   8.159   5.539
 5109SOL    HW227390   1.219   8.096   5.524
 5110SOL     OW27391   0.873   8.021   5.726
 5110SOL    HW127392   0.963   8.022   5.681
 5110SOL    HW227393   0.850   7.927   5.751
 5111SOL     OW27394   1.324   7.538   6.020
 5111SOL    HW127395   1.234   7.522   6.061
 5111SOL    HW227396   1.332   7.634   5.994
 5112SOL     OW27397   1.438   7.938   7.036
 5112SOL    HW127398   1.390   7.961   7.120
 5112SOL    HW227399   1.372   7.908   6.967
 5113SOL     OW27400   0.073   7.453   5.680
 5113SOL    HW127401   0.136   7.376   5.688
 5113SOL    HW227402   0.093   7.521   5.751
 5114SOL     OW27403   0.346   8.428   6.681
 5114SOL    HW127404   0.357   8.383   6.770
 5114SOL    HW227405   0.373   8.524   6.688
 5115SOL     OW27406   1.645   8.440   5.781
 5115SOL    HW127407   1.716   8.510   5.783
 5115SOL    HW227408   1.632   8.410   5.686
 5116SOL     OW27409   0.627   8.041   6.703
 5116SOL    HW127410   0.702   8.084   6.752
 5116SOL    HW227411   0.560   8.006   6.769
 5117SOL     OW27412   0.770   8.410   7.020
 5117SOL    HW127413   0.839   8.462   6.970
 5117SOL    HW227414   0.765   8.443   7.115
 5118SOL     OW27415   1.162   8.431   7.180
 5118SOL    HW127416   1.084   8.377   7.213
 5118SOL    HW227417   1.243   8.409   7.235
 5119SOL     OW27418   1.091   7.613   6.176
 5119SOL    HW127419   1.150   7.673   6.231
 5119SOL    HW227420   1.018   7.577   6.233
 5120SOL     OW27421   1.201   9.145   7.216
 5120SOL    HW127422   1.106   9.143   7.184
 5120SOL    HW227423   1.222   9.236   7.253
 5121SOL     OW27424   0.619   7.490   6.447
 5121SOL    HW127425   0.547   7.423   6.433
 5121SOL    HW227426   0.701   7.444   6.482
 5122SOL     OW27427   0.319   9.155   6.814
 5122SOL    HW127428   0.299   9.137   6.718
 5122SOL    HW227429   0.246   9.117   6.871
 5123SOL     OW27430   1.012   8.619   6.359
 5123SOL    HW127431   1.051   8.662   6.278
 5123SOL    HW227432   1.085   8.602   6.426
 5124SOL     OW27433   0.706   8.347   6.561
 5124SOL    HW127434   0.704   8.263   6.506
 5124SOL    HW227435   0.655   8.333   6.646
 5125SOL     OW27436   0.045   8.357   6.687
 5125SOL    HW127437   0.134   8.335   6.727
 5125SOL    HW227438  -0.010   8.273   6.683
 5126SOL     OW27439   0.273   7.402   5.967
 5126SOL    HW127440   0.311   7.490   5.994
 5126SOL    HW227441   0.196   7.378   6.027
 5127SOL     OW27442   0.689   8.019   7.295
 5127SOL    HW127443   0.641   8.070   7.224
 5127SOL    HW227444   0.782   7.998   7.265
 5128SOL     OW27445   0.095   8.489   5.787
 5128SOL    HW127446   0.085   8.392   5.766
 5128SOL    HW227447   0.148   8.534   5.715
 5129SOL     OW27448   1.792   7.601   6.388
 5129SOL    HW127449   1.747   7.583   6.475
 5129SOL    HW227450   1.890   7.618   6.404
 5130SOL     OW27451   0.840   8.577   6.640
 5130SOL    HW127452   0.791   8.492   6.621
 5130SOL    HW227453   0.910   8.592   6.571
 5131SOL     OW27454   1.178   8.000   5.849
 5131SOL    HW127455   1.230   8.072   5.895
 5131SOL    HW227456   1.191   8.007   5.751
 5132SOL     OW27457   1.539   8.815   7.176
 5132SOL    HW127458   1.524   8.717   7.190
 5132SOL    HW227459   1.456   8.857   7.140
 5133SOL     OW27460   0.296   8.257   6.916
 5133SOL    HW127461   0.260   8.167   6.942
 5133SOL    HW227462   0.257   8.327   6.976
 5134SOL     OW27463   0.798   8.883   5.574
 5134SOL    HW127464   0.773   8.960   5.633
 5134SOL    HW227465   0.862   8.823   5.622
 5135SOL     OW27466   0.616   9.090   6.608
 5135SOL    HW127467   0.636   9.060   6.515
 5135SOL    HW227468   0.541   9.035   6.645
 5136SOL     OW27469   0.759   8.501   6.325
 5136SOL    HW127470   0.848   8.547   6.325
 5136SOL    HW227471   0.752   8.441   6.404
 5137SOL     OW27472   0.937   8.848   5.994
 5137SOL    HW127473   0.987   8.836   5.909
 5137SOL    HW227474   0.883   8.765   6.013
 5138SOL     OW27475   0.127   8.195   6.394
 5138SOL    HW127476   0.222   8.186   6.362
 5138SOL    HW227477   0.093   8.287   6.373
 5139SOL     OW27478   0.064   8.312   7.321
 5139SOL    HW127479  -0.021   8.263   7.302
 5139SOL    HW227480   0.091   8.299   7.416
 5140SOL     OW27481   0.961   9.221   7.027
 5140SOL    HW127482   0.933   9.134   7.068
 5140SOL    HW227483   0.905   9.295   7.064
 5141SOL     OW27484   1.190   8.568   6.557
 5141SOL    HW127485   1.174   8.662   6.588
 5141SOL    HW227486   1.193   8.507   6.637
 5142SOL     OW27487   0.464   7.839   7.321
 5142SOL    HW127488   0.500   7.786   7.244
 5142SOL    HW227489   0.525   7.916   7.339
 5143SOL     OW27490   0.528   8.256   5.893
 5143SOL    HW127491   0.478   8.321   5.837
 5143SOL    HW227492   0.470   8.177   5.912
 5144SOL     OW27493   1.609   8.287   6.591
 5144SOL    HW127494   1.628   8.326   6.500
 5144SOL    HW227495   1.563   8.356   6.647
 5145SOL     OW27496   1.301   7.730   6.887
 5145SOL    HW127497   1.372   7.702   6.951
 5145SOL    HW227498   1.248   7.650   6.859
 5146SOL     OW27499   0.002   7.429   6.088
 5146SOL    HW127500  -0.085   7.416   6.041
 5146SOL    HW227501   0.010   7.524   6.118
 5147SOL     OW27502   1.223   7.530   7.329
 5147SOL    HW127503   1.282   7.546   7.409
 5147SOL    HW227504   1.170   7.613   7.310
 5148SOL     OW27505   0.439   8.949   7.154
 5148SOL    HW127506   0.381   9.014   7.203
 5148SOL    HW227507   0.501   8.999   7.094
 5149SOL     OW27508   1.795   8.836   7.095
 5149SOL    HW127509   1.823   8.929   7.117
 5149SOL    HW227510   1.702   8.820   7.128
 5150SOL     OW27511   1.045   7.949   6.645
 5150SOL    HW127512   1.131   8.000   6.644
 5150SOL    HW227513   1.051   7.875   6.712
 5151SOL     OW27514   0.449   8.895   6.217
 5151SOL    HW127515   0.447   8.796   6.230
 5151SOL    HW227516   0.358   8.928   6.194
 5152SOL     OW27517   1.090   9.012   6.805
 5152SOL    HW127518   1.016   9.076   6.823
 5152SOL    HW227519   1.169   9.061   6.767
 5153SOL     OW27520   0.299   9.142   7.304
 5153SOL    HW127521   0.342   9.226   7.270
 5153SOL    HW227522   0.324   9.129   7.400
 5154SOL     OW27523   0.159   8.678   7.175
 5154SOL    HW127524   0.138   8.583   7.148
 5154SOL    HW227525   0.090   8.739   7.137
 5155SOL     OW27526   0.248   9.043   6.579
 5155SOL    HW127527   0.190   8.963   6.593
 5155SOL    HW227528   0.272   9.050   6.482
 5156SOL     OW27529   0.994   7.564   6.434
 5156SOL    HW127530   1.090   7.565   6.462
 5156SOL    HW227531   0.939   7.521   6.506
 5157SOL     OW27532   1.056   8.570   5.950
 5157SOL    HW127533   1.136   8.606   5.998
 5157SOL    HW227534   1.014   8.497   6.006
 5158SOL     OW27535   1.647   7.837   6.314
 5158SOL    HW127536   1.666   7.923   6.361
 5158SOL    HW227537   1.715   7.768   6.342
 5159SOL     OW27538   0.790   8.509   5.800
 5159SOL    HW127539   0.862   8.568   5.765
 5159SOL    HW227540   0.830   8.425   5.836
 5160SOL     OW27541   0.540   7.914   6.264
 5160SOL    HW127542   0.578   7.825   6.290
 5160SOL    HW227543   0.607   7.964   6.209
 5161SOL     OW27544   0.528   8.472   6.918
 5161SOL    HW127545   0.624   8.452   6.938
 5161SOL    HW227546   0.517   8.570   6.900
 5162SOL     OW27547   1.750   8.515   6.887
 5162SOL    HW127548   1.764   8.613   6.901
 5162SOL    HW227549   1.807   8.484   6.811
 5163SOL     OW27550   0.233   8.624   5.579
 5163SOL    HW127551   0.225   8.636   5.480
 5163SOL    HW227552   0.292   8.695   5.617
 5164SOL     OW27553   0.660   9.063   5.739
 5164SOL    HW127554   0.635   9.158   5.723
 5164SOL    HW227555   0.627   9.035   5.829
 5165SOL     OW27556   1.310   8.486   6.963
 5165SOL    HW127557   1.254   8.445   7.034
 5165SOL    HW227558   1.290   8.584   6.957
 5166SOL     OW27559   0.577   9.102   6.963
 5166SOL    HW127560   0.626   9.182   6.927
 5166SOL    HW227561   0.485   9.100   6.924
 5167SOL     OW27562   0.220   7.983   7.325
 5167SOL    HW127563   0.237   7.884   7.330
 5167SOL    HW227564   0.284   8.031   7.386
 5168SOL     OW27565   1.659   8.944   6.564
 5168SOL    HW127566   1.631   9.037   6.588
 5168SOL    HW227567   1.709   8.903   6.640
 5169SOL     OW27568   0.055   8.317   6.125
 5169SOL    HW127569   0.062   8.416   6.112
 5169SOL    HW227570  -0.036   8.294   6.159
 5170SOL     OW27571   0.564   8.115   7.063
 5170SOL    HW127572   0.470   8.085   7.044
 5170SOL    HW227573   0.573   8.212   7.040
 5171SOL     OW27574   1.631   8.491   6.375
 5171SOL    HW127575   1.593   8.580   6.348
 5171SOL    HW227576   1.631   8.429   6.297
 5172SOL     OW27577   0.789   7.897   6.544
 5172SOL    HW127578   0.881   7.925   6.571
 5172SOL    HW227579   0.721   7.948   6.598
 5173SOL     OW27580   0.642   8.748   6.771
 5173SOL    HW127581   0.555   8.747   6.722
 5173SOL    HW227582   0.708   8.688   6.724
 5174SOL     OW27583   0.208   8.090   6.685
 5174SOL    HW127584   0.246   8.149   6.756
 5174SOL    HW227585   0.191   8.143   6.603
 5175SOL     OW27586   0.379   8.736   6.983
 5175SOL    HW127587   0.398   8.824   7.027
 5175SOL    HW227588   0.284   8.710   7.001
 5176SOL     OW27589   1.622   9.052   7.331
 5176SOL    HW127590   1.591   8.974   7.276
 5176SOL    HW227591   1.591   9.137   7.289
 5177SOL     OW27592   1.330   8.590   6.052
 5177SOL    HW127593   1.429   8.594   6.068
 5177SOL    HW227594   1.313   8.576   5.954
 5178SOL     OW27595   0.683   7.756   6.000
 5178SOL    HW127596   0.585   7.750   5.980
 5178SOL    HW227597   0.702   7.713   6.088
 5179SOL     OW27598   1.603   7.439   6.259
 5179SOL    HW127599   1.598   7.480   6.168
 5179SOL    HW227600   1.684   7.473   6.306
 5180SOL     OW27601   1.206   8.195   6.952
 5180SOL    HW127602   1.305   8.204   6.942
 5180SOL    HW227603   1.162   8.197   6.862
 5181SOL     OW27604   0.700   8.155   6.354
 5181SOL    HW127605   0.722   8.077   6.412
 5181SOL    HW227606   0.709   8.129   6.258
 5182SOL     OW27607   1.365   8.862   6.566
 5182SOL    HW127608   1.279   8.819   6.595
 5182SOL    HW227609   1.354   8.902   6.475
 5183SOL     OW27610   1.368   7.847   6.241
 5183SOL    HW127611   1.367   7.839   6.142
 5183SOL    HW227612   1.457   7.819   6.276
 5184SOL     OW27613   1.095   8.863   8.074
 5184SOL    HW127614   1.186   8.897   8.097
 5184SOL    HW227615   1.067   8.901   7.986
 5185SOL     OW27616   1.686   7.941   8.796
 5185SOL    HW127617   1.588   7.933   8.818
 5185SOL    HW227618   1.739   7.930   8.880
 5186SOL     OW27619   0.353   7.578   7.401
 5186SOL    HW127620   0.266   7.575   7.352
 5186SOL    HW227621   0.404   7.660   7.373
 5187SOL     OW27622   1.340   8.967   8.176
 5187SOL    HW127623   1.329   9.064   8.199
 5187SOL    HW227624   1.433   8.950   8.146
 5188SOL     OW27625   1.218   7.478   8.734
 5188SOL    HW127626   1.142   7.433   8.781
 5188SOL    HW227627   1.247   7.423   8.656
 5189SOL     OW27628   0.956   8.258   9.111
 5189SOL    HW127629   0.921   8.233   9.021
 5189SOL    HW227630   0.880   8.279   9.172
 5190SOL     OW27631   0.563   8.932   7.805
 5190SOL    HW127632   0.519   8.941   7.894
 5190SOL    HW227633   0.634   8.862   7.809
 5191SOL     OW27634   0.581   7.465   7.527
 5191SOL    HW127635   0.669   7.493   7.488
 5191SOL    HW227636   0.509   7.528   7.497
 5192SOL     OW27637   1.551   8.450   8.910
 5192SOL    HW127638   1.459   8.455   8.872
 5192SOL    HW227639   1.616   8.488   8.844
 5193SOL     OW27640   0.947   8.712   8.891
 5193SOL    HW127641   0.890   8.775   8.837
 5193SOL    HW227642   0.980   8.638   8.832
 5194SOL     OW27643   0.490   8.605   8.100
 5194SOL    HW127644   0.423   8.559   8.159
 5194SOL    HW227645   0.582   8.573   8.123
 5195SOL     OW27646   0.717   8.011   7.931
 5195SOL    HW127647   0.756   8.081   7.872
 5195SOL    HW227648   0.691   7.931   7.877
 5196SOL     OW27649   1.337   7.919   9.140
 5196SOL    HW127650   1.433   7.923   9.166
 5196SOL    HW227651   1.293   7.843   9.187
 5197SOL     OW27652   0.420   8.774   7.584
 5197SOL    HW127653   0.484   8.790   7.509
 5197SOL    HW227654   0.444   8.832   7.662
 5198SOL     OW27655   0.571   7.730   8.394
 5198SOL    HW127656   0.647   7.795   8.390
 5198SOL    HW227657   0.601   7.641   8.361
 5199SOL     OW27658   0.268   8.156   7.812
 5199SOL    HW127659   0.283   8.090   7.886
 5199SOL    HW227660   0.218   8.235   7.847
 5200SOL     OW27661   0.854   9.101   7.989
 5200SOL    HW127662   0.919   9.034   7.953
 5200SOL    HW227663   0.844   9.177   7.925
 5201SOL     OW27664   1.746   8.983   7.731
 5201SOL    HW127665   1.842   8.957   7.724
 5201SOL    HW227666   1.722   9.043   7.655
 5202SOL     OW27667   1.658   7.676   8.502
 5202SOL    HW127668   1.709   7.748   8.455
 5202SOL    HW227669   1.563   7.703   8.511
 5203SOL     OW27670   1.058   7.705   7.771
 5203SOL    HW127671   1.083   7.799   7.792
 5203SOL    HW227672   1.059   7.651   7.855
 5204SOL     OW27673   0.182   8.418   8.956
 5204SOL    HW127674   0.278   8.433   8.974
 5204SOL    HW227675   0.144   8.356   9.025
 5205SOL     OW27676   0.508   8.063   7.499
 5205SOL    HW127677   0.468   8.142   7.452
 5205SOL    HW227678   0.597   8.042   7.459
 5206SOL     OW27679   0.681   8.987   8.197
 5206SOL    HW127680   0.754   9.010   8.133
 5206SOL    HW227681   0.610   8.934   8.151
 5207SOL     OW27682   1.023   8.019   8.951
 5207SOL    HW127683   1.056   7.936   8.998
 5207SOL    HW227684   1.096   8.087   8.950
 5208SOL     OW27685   0.358   8.640   7.849
 5208SOL    HW127686   0.404   8.614   7.934
 5208SOL    HW227687   0.378   8.572   7.778
 5209SOL     OW27688   1.216   7.695   7.560
 5209SOL    HW127689   1.310   7.665   7.578
 5209SOL    HW227690   1.164   7.695   7.646
 5210SOL     OW27691   0.368   7.900   8.655
 5210SOL    HW127692   0.358   7.813   8.607
 5210SOL    HW227693   0.304   7.967   8.618
 5211SOL     OW27694   1.450   8.180   8.693
 5211SOL    HW127695   1.454   8.274   8.658
 5211SOL    HW227696   1.543   8.149   8.715
 5212SOL     OW27697   0.403   7.672   7.814
 5212SOL    HW127698   0.357   7.712   7.893
 5212SOL    HW227699   0.351   7.691   7.732
 5213SOL     OW27700   1.826   7.917   8.581
 5213SOL    HW127701   1.883   7.999   8.583
 5213SOL    HW227702   1.767   7.916   8.661
 5214SOL     OW27703   1.843   9.143   8.494
 5214SOL    HW127704   1.889   9.153   8.582
 5214SOL    HW227705   1.910   9.146   8.421
 5215SOL     OW27706   0.956   7.883   8.056
 5215SOL    HW127707   1.032   7.911   8.115
 5215SOL    HW227708   0.912   7.963   8.017
 5216SOL     OW27709   1.191   8.347   7.573
 5216SOL    HW127710   1.228   8.297   7.651
 5216SOL    HW227711   1.121   8.292   7.528
 5217SOL     OW27712   1.033   7.769   9.194
 5217SOL    HW127713   1.096   7.774   9.271
 5217SOL    HW227714   0.941   7.747   9.227
 5218SOL     OW27715   1.774   8.016   7.652
 5218SOL    HW127716   1.795   7.935   7.598
 5218SOL    HW227717   1.791   7.997   7.749
 5219SOL     OW27718   1.068   9.154   7.560
 5219SOL    HW127719   1.102   9.067   7.525
 5219SOL    HW227720   1.036   9.142   7.654
 5220SOL     OW27721   0.749   7.421   9.092
 5220SOL    HW127722   0.756   7.327   9.059
 5220SOL    HW227723   0.806   7.431   9.174
 5221SOL     OW27724   1.672   8.022   8.360
 5221SOL    HW127725   1.657   8.113   8.397
 5221SOL    HW227726   1.742   7.975   8.414
 5222SOL     OW27727   1.082   8.688   9.126
 5222SOL    HW127728   1.104   8.598   9.088
 5222SOL    HW227729   1.017   8.735   9.067
 5223SOL     OW27730   0.737   8.530   9.130
 5223SOL    HW127731   0.708   8.607   9.187
 5223SOL    HW227732   0.747   8.449   9.188
 5224SOL     OW27733   1.372   7.394   8.236
 5224SOL    HW127734   1.321   7.478   8.218
 5224SOL    HW227735   1.458   7.396   8.185
 5225SOL     OW27736   1.727   7.600   9.165
 5225SOL    HW127737   1.704   7.621   9.260
 5225SOL    HW227738   1.703   7.505   9.145
 5226SOL     OW27739   0.030   8.004   7.909
 5226SOL    HW127740   0.032   7.955   7.996
 5226SOL    HW227741   0.032   8.103   7.927
 5227SOL     OW27742   0.351   7.592   8.230
 5227SOL    HW127743   0.403   7.632   8.305
 5227SOL    HW227744   0.404   7.519   8.187
 5228SOL     OW27745   0.335   7.640   8.564
 5228SOL    HW127746   0.300   7.547   8.564
 5228SOL    HW227747   0.422   7.643   8.515
 5229SOL     OW27748   1.002   8.262   8.304
 5229SOL    HW127749   1.028   8.342   8.250
 5229SOL    HW227750   0.996   8.182   8.244
 5230SOL     OW27751   0.203   8.889   7.763
 5230SOL    HW127752   0.230   8.795   7.783
 5230SOL    HW227753   0.228   8.911   7.669
 5231SOL     OW27754   1.485   8.758   8.637
 5231SOL    HW127755   1.456   8.795   8.548
 5231SOL    HW227756   1.407   8.758   8.699
 5232SOL     OW27757   0.217   9.032   8.000
 5232SOL    HW127758   0.133   9.083   8.018
 5232SOL    HW227759   0.208   8.981   7.915
 5233SOL     OW27760   0.490   8.329   7.402
 5233SOL    HW127761   0.459   8.363   7.314
 5233SOL    HW227762   0.494   8.404   7.468
 5234SOL     OW27763   1.007   8.516   8.701
 5234SOL    HW127764   1.057   8.431   8.685
 5234SOL    HW227765   0.961   8.543   8.616
 5235SOL     OW27766   0.094   8.221   7.575
 5235SOL    HW127767   0.154   8.168   7.635
 5235SOL    HW227768   0.000   8.189   7.587
 5236SOL     OW27769   1.614   8.219   7.775
 5236SOL    HW127770   1.682   8.153   7.742
 5236SOL    HW227771   1.629   8.307   7.731
 5237SOL     OW27772   0.862   9.206   8.423
 5237SOL    HW127773   0.908   9.139   8.365
 5237SOL    HW227774   0.788   9.162   8.473
 5238SOL     OW27775   0.769   8.275   7.459
 5238SOL    HW127776   0.798   8.194   7.510
 5238SOL    HW227777   0.669   8.274   7.450
 5239SOL     OW27778   1.365   7.807   7.805
 5239SOL    HW127779   1.302   7.865   7.753
 5239SOL    HW227780   1.458   7.841   7.793
 5240SOL     OW27781   0.262   8.008   8.905
 5240SOL    HW127782   0.282   7.913   8.880
 5240SOL    HW227783   0.225   8.011   8.998
 5241SOL     OW27784   0.144   7.663   8.795
 5241SOL    HW127785   0.216   7.673   8.726
 5241SOL    HW227786   0.055   7.662   8.750
 5242SOL     OW27787   1.042   8.284   8.560
 5242SOL    HW127788   1.036   8.270   8.461
 5242SOL    HW227789   0.961   8.245   8.604
 5243SOL     OW27790   1.633   7.818   7.875
 5243SOL    HW127791   1.729   7.789   7.872
 5243SOL    HW227792   1.594   7.796   7.964
 5244SOL     OW27793   0.917   8.893   8.312
 5244SOL    HW127794   0.975   8.904   8.231
 5244SOL    HW227795   0.823   8.917   8.290
 5245SOL     OW27796   0.867   7.759   7.597
 5245SOL    HW127797   0.776   7.772   7.635
 5245SOL    HW227798   0.927   7.719   7.667
 5246SOL     OW27799   0.978   8.704   7.532
 5246SOL    HW127800   1.031   8.644   7.592
 5246SOL    HW227801   1.017   8.705   7.441
 5247SOL     OW27802   1.729   8.999   8.017
 5247SOL    HW127803   1.696   9.092   8.036
 5247SOL    HW227804   1.727   8.983   7.918
 5248SOL     OW27805   1.144   8.272   8.006
 5248SOL    HW127806   1.209   8.300   8.077
 5248SOL    HW227807   1.065   8.333   8.008
 5249SOL     OW27808   0.892   8.998   9.030
 5249SOL    HW127809   0.880   8.929   8.959
 5249SOL    HW227810   0.855   8.963   9.117
 5250SOL     OW27811   0.292   8.441   8.255
 5250SOL    HW127812   0.215   8.503   8.248
 5250SOL    HW227813   0.329   8.442   8.348
 5251SOL     OW27814   0.925   8.389   7.954
 5251SOL    HW127815   0.912   8.300   7.911
 5251SOL    HW227816   0.856   8.403   8.025
 5252SOL     OW27817   1.229   8.777   8.793
 5252SOL    HW127818   1.262   8.862   8.834
 5252SOL    HW227819   1.130   8.773   8.800
 5253SOL     OW27820   0.036   7.694   7.857
 5253SOL    HW127821   0.096   7.645   7.795
 5253SOL    HW227822   0.091   7.746   7.922
 5254SOL     OW27823   1.659   9.192   7.548
 5254SOL    HW127824   1.749   9.236   7.550
 5254SOL    HW227825   1.658   9.123   7.476
 5255SOL     OW27826   0.823   8.159   8.706
 5255SOL    HW127827   0.825   8.245   8.757
 5255SOL    HW227828   0.880   8.091   8.753
 5256SOL     OW27829   0.060   9.186   8.777
 5256SOL    HW127830   0.068   9.286   8.775
 5256SOL    HW227831   0.036   9.157   8.870
 5257SOL     OW27832   0.841   8.205   7.771
 5257SOL    HW127833   0.752   8.233   7.736
 5257SOL    HW227834   0.882   8.139   7.707
 5258SOL     OW27835   0.363   7.923   8.310
 5258SOL    HW127836   0.419   7.916   8.227
 5258SOL    HW227837   0.420   7.901   8.390
 5259SOL     OW27838   0.360   9.121   7.581
 5259SOL    HW127839   0.452   9.151   7.556
 5259SOL    HW227840   0.335   9.160   7.670
 5260SOL     OW27841   1.336   9.143   8.518
 5260SOL    HW127842   1.355   9.206   8.444
 5260SOL    HW227843   1.344   9.049   8.485
 5261SOL     OW27844   0.792   7.443   7.780
 5261SOL    HW127845   0.753   7.432   7.689
 5261SOL    HW227846   0.748   7.519   7.827
 5262SOL     OW27847   1.567   7.707   8.958
 5262SOL    HW127848   1.506   7.785   8.955
 5262SOL    HW227849   1.622   7.711   9.041
 5263SOL     OW27850   1.283   7.653   8.249
 5263SOL    HW127851   1.282   7.731   8.186
 5263SOL    HW227852   1.326   7.680   8.335
 5264SOL     OW27853   1.403   7.459   7.545
 5264SOL    HW127854   1.483   7.399   7.542
 5264SOL    HW227855   1.329   7.412   7.593
 5265SOL     OW27856   1.616   7.431   8.979
 5265SOL    HW127857   1.642   7.388   8.893
 5265SOL    HW227858   1.566   7.515   8.961
 5266SOL     OW27859   0.718   7.690   8.111
 5266SOL    HW127860   0.707   7.632   8.192
 5266SOL    HW227861   0.803   7.742   8.119
 5267SOL     OW27862   1.298   8.041   8.503
 5267SOL    HW127863   1.352   8.081   8.429
 5267SOL    HW227864   1.336   8.070   8.591
 5268SOL     OW27865   1.591   7.447   7.819
 5268SOL    HW127866   1.598   7.401   7.731
 5268SOL    HW227867   1.495   7.457   7.844
 5269SOL     OW27868   0.567   8.762   9.182
 5269SOL    HW127869   0.528   8.825   9.115
 5269SOL    HW227870   0.650   8.802   9.222
 5270SOL     OW27871   0.443   8.494   9.014
 5270SOL    HW127872   0.462   8.518   8.919
 5270SOL    HW227873   0.436   8.577   9.069
 5271SOL     OW27874   0.104   8.784   8.488
 5271SOL    HW127875   0.073   8.710   8.429
 5271SOL    HW227876   0.036   8.802   8.559
 5272SOL     OW27877   1.190   7.985   8.221
 5272SOL    HW127878   1.272   7.962   8.169
 5272SOL    HW227879   1.185   7.926   8.302
 5273SOL     OW27880   1.790   8.012   9.057
 5273SOL    HW127881   1.779   8.098   9.006
 5273SOL    HW227882   1.884   8.003   9.087
 5274SOL     OW27883   1.361   7.785   8.476
 5274SOL    HW127884   1.335   7.882   8.482
 5274SOL    HW227885   1.361   7.745   8.568
 5275SOL     OW27886   1.591   7.917   9.227
 5275SOL    HW127887   1.671   7.942   9.171
 5275SOL    HW227888   1.622   7.882   9.315
 5276SOL     OW27889   1.302   8.220   7.807
 5276SOL    HW127890   1.248   8.218   7.891
 5276SOL    HW227891   1.379   8.283   7.818
 5277SOL     OW27892   1.755   8.253   8.922
 5277SOL    HW127893   1.657   8.274   8.924
 5277SOL    HW227894   1.804   8.329   8.881
 5278SOL     OW27895   1.609   7.673   7.601
 5278SOL    HW127896   1.614   7.715   7.692
 5278SOL    HW227897   1.542   7.598   7.603
 5279SOL     OW27898   0.756   8.888   8.821
 5279SOL    HW127899   0.693   8.966   8.828
 5279SOL    HW227900   0.724   8.826   8.749
 5280SOL     OW27901   0.147   7.683   9.086
 5280SOL    HW127902   0.165   7.672   8.988
 5280SOL    HW227903   0.049   7.679   9.103
 5281SOL     OW27904   0.027   9.097   9.030
 5281SOL    HW127905   0.099   9.083   9.098
 5281SOL    HW227906  -0.062   9.100   9.075
 5282SOL     OW27907   0.195   7.753   8.054
 5282SOL    HW127908   0.138   7.808   8.115
 5282SOL    HW227909   0.265   7.705   8.107
 5283SOL     OW27910   0.332   7.944   7.652
 5283SOL    HW127911   0.404   7.973   7.589
 5283SOL    HW227912   0.288   8.024   7.692
 5284SOL     OW27913   1.718   7.606   8.755
 5284SOL    HW127914   1.674   7.654   8.831
 5284SOL    HW227915   1.696   7.652   8.669
 5285SOL     OW27916   0.447   9.207   8.118
 5285SOL    HW127917   0.371   9.173   8.063
 5285SOL    HW227918   0.533   9.170   8.083
 5286SOL     OW27919   0.372   8.716   8.563
 5286SOL    HW127920   0.384   8.732   8.660
 5286SOL    HW227921   0.285   8.756   8.533
 5287SOL     OW27922   1.256   8.920   9.209
 5287SOL    HW127923   1.215   8.835   9.175
 5287SOL    HW227924   1.236   8.994   9.145
 5288SOL     OW27925   0.746   8.640   7.899
 5288SOL    HW127926   0.789   8.571   7.841
 5288SOL    HW227927   0.710   8.597   7.982
 5289SOL     OW27928   0.378   8.191   8.101
 5289SOL    HW127929   0.370   8.289   8.119
 5289SOL    HW227930   0.462   8.157   8.142
 5290SOL     OW27931   0.224   7.671   7.616
 5290SOL    HW127932   0.268   7.640   7.533
 5290SOL    HW227933   0.225   7.771   7.620
 5291SOL     OW27934   0.077   7.923   8.227
 5291SOL    HW127935   0.041   8.016   8.219
 5291SOL    HW227936   0.160   7.924   8.283
 5292SOL     OW27937   0.512   8.510   7.613
 5292SOL    HW127938   0.612   8.510   7.624
 5292SOL    HW227939   0.481   8.603   7.592
 5293SOL     OW27940   1.138   8.102   7.429
 5293SOL    HW127941   1.069   8.159   7.385
 5293SOL    HW227942   1.219   8.096   7.370
 5294SOL     OW27943   0.873   8.021   7.572
 5294SOL    HW127944   0.963   8.022   7.527
 5294SOL    HW227945   0.850   7.927   7.597
 5295SOL     OW27946   1.324   7.538   7.866
 5295SOL    HW127947   1.234   7.522   7.907
 5295SOL    HW227948   1.332   7.634   7.840
 5296SOL     OW27949   1.438   7.938   8.882
 5296SOL    HW127950   1.390   7.961   8.966
 5296SOL    HW227951   1.372   7.908   8.813
 5297SOL     OW27952   0.073   7.453   7.526
 5297SOL    HW127953   0.136   7.376   7.534
 5297SOL    HW227954   0.093   7.521   7.597
 5298SOL     OW27955   0.346   8.428   8.527
 5298SOL    HW127956   0.357   8.383   8.616
 5298SOL    HW227957   0.373   8.524   8.534
 5299SOL     OW27958   1.645   8.440   7.627
 5299SOL    HW127959   1.716   8.510   7.629
 5299SOL    HW227960   1.632   8.410   7.532
 5300SOL     OW27961   0.627   8.041   8.549
 5300SOL    HW127962   0.702   8.084   8.598
 5300SOL    HW227963   0.560   8.006   8.615
 5301SOL     OW27964   0.770   8.410   8.866
 5301SOL    HW127965   0.839   8.462   8.816
 5301SOL    HW227966   0.765   8.443   8.961
 5302SOL     OW27967   1.162   8.431   9.026
 5302SOL    HW127968   1.084   8.377   9.059
 5302SOL    HW227969   1.243   8.409   9.081
 5303SOL     OW27970   1.091   7.613   8.022
 5303SOL    HW127971   1.150   7.673   8.077
 5303SOL    HW227972   1.018   7.577   8.079
 5304SOL     OW27973   1.201   9.145   9.062
 5304SOL    HW127974   1.106   9.143   9.030
 5304SOL    HW227975   1.222   9.236   9.099
 5305SOL     OW27976   0.619   7.490   8.293
 5305SOL    HW127977   0.547   7.423   8.279
 5305SOL    HW227978   0.701   7.444   8.328
 5306SOL     OW27979   0.319   9.155   8.660
 5306SOL    HW127980   0.299   9.137   8.564
 5306SOL    HW227981   0.246   9.117   8.717
 5307SOL     OW27982   1.012   8.619   8.205
 5307SOL    HW127983   1.051   8.662   8.124
 5307SOL    HW227984   1.085   8.602   8.272
 5308SOL     OW27985   0.706   8.347   8.407
 5308SOL    HW127986   0.704   8.263   8.352
 5308SOL    HW227987   0.655   8.333   8.492
 5309SOL     OW27988   0.045   8.357   8.533
 5309SOL    HW127989   0.134   8.335   8.573
 5309SOL    HW227990  -0.010   8.273   8.529
 5310SOL     OW27991   0.273   7.402   7.813
 5310SOL    HW127992   0.311   7.490   7.840
 5310SOL    HW227993   0.196   7.378   7.873
 5311SOL     OW27994   0.689   8.019   9.141
 5311SOL    HW127995   0.641   8.070   9.070
 5311SOL    HW227996   0.782   7.998   9.111
 5312SOL     OW27997   0.095   8.489   7.633
 5312SOL    HW127998   0.085   8.392   7.612
 5312SOL    HW227999   0.148   8.534   7.561
 5313SOL     OW28000   1.792   7.601   8.234
 5313SOL    HW128001   1.747   7.583   8.321
 5313SOL    HW228002   1.890   7.618   8.250
 5314SOL     OW28003   0.840   8.577   8.486
 5314SOL    HW128004   0.791   8.492   8.467
 5314SOL    HW228005   0.910   8.592   8.417
 5315SOL     OW28006   1.178   8.000   7.695
 5315SOL    HW128007   1.230   8.072   7.741
 5315SOL    HW228008   1.191   8.007   7.597
 5316SOL     OW28009   1.539   8.815   9.022
 5316SOL    HW128010   1.524   8.717   9.036
 5316SOL    HW228011   1.456   8.857   8.986
 5317SOL     OW28012   0.296   8.257   8.762
 5317SOL    HW128013   0.260   8.167   8.788
 5317SOL    HW228014   0.257   8.327   8.822
 5318SOL     OW28015   0.798   8.883   7.420
 5318SOL    HW128016   0.773   8.960   7.479
 5318SOL    HW228017   0.862   8.823   7.468
 5319SOL     OW28018   0.616   9.090   8.454
 5319SOL    HW128019   0.636   9.060   8.361
 5319SOL    HW228020   0.541   9.035   8.491
 5320SOL     OW28021   0.759   8.501   8.171
 5320SOL    HW128022   0.848   8.547   8.171
 5320SOL    HW228023   0.752   8.441   8.250
 5321SOL     OW28024   0.937   8.848   7.840
 5321SOL    HW128025   0.987   8.836   7.755
 5321SOL    HW228026   0.883   8.765   7.859
 5322SOL     OW28027   0.127   8.195   8.240
 5322SOL    HW128028   0.222   8.186   8.208
 5322SOL    HW228029   0.093   8.287   8.219
 5323SOL     OW28030   0.064   8.312   9.167
 5323SOL    HW128031  -0.021   8.263   9.148
 5323SOL    HW228032   0.091   8.299   9.262
 5324SOL     OW28033   0.961   9.221   8.873
 5324SOL    HW128034   0.933   9.134   8.914
 5324SOL    HW228035   0.905   9.295   8.910
 5325SOL     OW28036   1.190   8.568   8.403
 5325SOL    HW128037   1.174   8.662   8.434
 5325SOL    HW228038   1.193   8.507   8.483
 5326SOL     OW28039   0.464   7.839   9.167
 5326SOL    HW128040   0.500   7.786   9.090
 5326SOL    HW228041   0.525   7.916   9.185
 5327SOL     OW28042   0.528   8.256   7.739
 5327SOL    HW128043   0.478   8.321   7.683
 5327SOL    HW228044   0.470   8.177   7.758
 5328SOL     OW28045   1.609   8.287   8.437
 5328SOL    HW128046   1.628   8.326   8.346
 5328SOL    HW228047   1.563   8.356   8.493
 5329SOL     OW28048   1.301   7.730   8.733
 5329SOL    HW128049   1.372   7.702   8.797
 5329SOL    HW228050   1.248   7.650   8.705
 5330SOL     OW28051   0.002   7.429   7.934
 5330SOL    HW128052  -0.085   7.416   7.887
 5330SOL    HW228053   0.010   7.524   7.964
 5331SOL     OW28054   1.223   7.530   9.175
 5331SOL    HW128055   1.282   7.546   9.255
 5331SOL    HW228056   1.170   7.613   9.156
 5332SOL     OW28057   0.439   8.949   9.000
 5332SOL    HW128058   0.381   9.014   9.049
 5332SOL    HW228059   0.501   8.999   8.940
 5333SOL     OW28060   1.045   7.949   8.491
 5333SOL    HW128061   1.131   8.000   8.490
 5333SOL    HW228062   1.051   7.875   8.558
 5334SOL     OW28063   0.449   8.895   8.063
 5334SOL    HW128064   0.447   8.796   8.076
 5334SOL    HW228065   0.358   8.928   8.040
 5335SOL     OW28066   1.090   9.012   8.651
 5335SOL    HW128067   1.016   9.076   8.669
 5335SOL    HW228068   1.169   9.061   8.613
 5336SOL     OW28069   0.299   9.142   9.150
 5336SOL    HW128070   0.342   9.226   9.116
 5336SOL    HW228071   0.324   9.129   9.246
 5337SOL     OW28072   0.159   8.678   9.021
 5337SOL    HW128073   0.138   8.583   8.994
 5337SOL    HW228074   0.090   8.739   8.983
 5338SOL     OW28075   0.248   9.043   8.425
 5338SOL    HW128076   0.190   8.963   8.439
 5338SOL    HW228077   0.272   9.050   8.328
 5339SOL     OW28078   0.994   7.564   8.280
 5339SOL    HW128079   1.090   7.565   8.308
 5339SOL    HW228080   0.939   7.521   8.352
 5340SOL     OW28081   1.056   8.570   7.796
 5340SOL    HW128082   1.136   8.606   7.844
 5340SOL    HW228083   1.014   8.497   7.852
 5341SOL     OW28084   1.647   7.837   8.160
 5341SOL    HW128085   1.666   7.923   8.207
 5341SOL    HW228086   1.715   7.768   8.188
 5342SOL     OW28087   0.790   8.509   7.646
 5342SOL    HW128088   0.862   8.568   7.611
 5342SOL    HW228089   0.830   8.425   7.682
 5343SOL     OW28090   0.861   7.485   7.498
 5343SOL    HW128091   0.936   7.419   7.510
 5343SOL    HW228092   0.892   7.576   7.526
 5344SOL     OW28093   0.540   7.914   8.110
 5344SOL    HW128094   0.578   7.825   8.136
 5344SOL    HW228095   0.607   7.964   8.055
 5345SOL     OW28096   0.528   8.472   8.764
 5345SOL    HW128097   0.624   8.452   8.784
 5345SOL    HW228098   0.517   8.570   8.746
 5346SOL     OW28099   0.233   8.624   7.425
 5346SOL    HW128100   0.225   8.636   7.326
 5346SOL    HW228101   0.292   8.695   7.463
 5347SOL     OW28102   0.660   9.063   7.585
 5347SOL    HW128103   0.635   9.158   7.569
 5347SOL    HW228104   0.627   9.035   7.675
 5348SOL     OW28105   1.310   8.486   8.809
 5348SOL    HW128106   1.254   8.445   8.880
 5348SOL    HW228107   1.290   8.584   8.803
 5349SOL     OW28108   0.577   9.102   8.809
 5349SOL    HW128109   0.626   9.182   8.773
 5349SOL    HW228110   0.485   9.100   8.770
 5350SOL     OW28111   0.220   7.983   9.171
 5350SOL    HW128112   0.237   7.884   9.176
 5350SOL    HW228113   0.284   8.031   9.232
 5351SOL     OW28114   0.055   8.317   7.971
 5351SOL    HW128115   0.062   8.416   7.958
 5351SOL    HW228116  -0.036   8.294   8.005
 5352SOL     OW28117   0.564   8.115   8.909
 5352SOL    HW128118   0.470   8.085   8.890
 5352SOL    HW228119   0.573   8.212   8.886
 5353SOL     OW28120   0.789   7.897   8.390
 5353SOL    HW128121   0.881   7.925   8.417
 5353SOL    HW228122   0.721   7.948   8.444
 5354SOL     OW28123   0.642   8.748   8.617
 5354SOL    HW128124   0.555   8.747   8.568
 5354SOL    HW228125   0.708   8.688   8.570
 5355SOL     OW28126   0.208   8.090   8.531
 5355SOL    HW128127   0.246   8.149   8.602
 5355SOL    HW228128   0.191   8.143   8.449
 5356SOL     OW28129   0.379   8.736   8.829
 5356SOL    HW128130   0.398   8.824   8.873
 5356SOL    HW228131   0.284   8.710   8.847
 5357SOL     OW28132   1.330   8.590   7.898
 5357SOL    HW128133   1.429   8.594   7.914
 5357SOL    HW228134   1.313   8.576   7.800
 5358SOL     OW28135   0.683   7.756   7.846
 5358SOL    HW128136   0.585   7.750   7.826
 5358SOL    HW228137   0.702   7.713   7.934
 5359SOL     OW28138   1.603   7.439   8.105
 5359SOL    HW128139   1.598   7.480   8.014
 5359SOL    HW228140   1.684   7.473   8.152
 5360SOL     OW28141   1.206   8.195   8.798
 5360SOL    HW128142   1.305   8.204   8.788
 5360SOL    HW228143   1.162   8.197   8.708
 5361SOL     OW28144   0.700   8.155   8.200
 5361SOL    HW128145   0.722   8.077   8.258
 5361SOL    HW228146   0.709   8.129   8.104
 5362SOL     OW28147   1.365   8.862   8.412
 5362SOL    HW128148   1.279   8.819   8.441
 5362SOL    HW228149   1.354   8.902   8.321
 5363SOL     OW28150   1.368   7.847   8.087
 5363SOL    HW128151   1.367   7.839   7.988
 5363SOL    HW228152   1.457   7.819   8.122
 5364SOL     OW28153   1.095   8.863   9.919
 5364SOL    HW128154   1.186   8.897   9.942
 5364SOL    HW228155   1.067   8.901   9.831
 5365SOL     OW28156   1.606   8.659   9.777
 5365SOL    HW128157   1.617   8.743   9.831
 5365SOL    HW228158   1.696   8.622   9.754
 5366SOL     OW28159   0.353   7.578   9.246
 5366SOL    HW128160   0.266   7.575   9.197
 5366SOL    HW228161   0.404   7.660   9.218
 5367SOL     OW28162   0.563   8.932   9.650
 5367SOL    HW128163   0.519   8.941   9.739
 5367SOL    HW228164   0.634   8.862   9.654
 5368SOL     OW28165   0.581   7.465   9.372
 5368SOL    HW128166   0.669   7.493   9.333
 5368SOL    HW228167   0.509   7.528   9.342
 5369SOL     OW28168   0.490   8.605   9.945
 5369SOL    HW128169   0.423   8.559  10.004
 5369SOL    HW228170   0.582   8.573   9.968
 5370SOL     OW28171   0.717   8.011   9.776
 5370SOL    HW128172   0.756   8.081   9.717
 5370SOL    HW228173   0.691   7.931   9.722
 5371SOL     OW28174   0.420   8.774   9.429
 5371SOL    HW128175   0.484   8.790   9.354
 5371SOL    HW228176   0.444   8.832   9.507
 5372SOL     OW28177   0.268   8.156   9.657
 5372SOL    HW128178   0.283   8.090   9.731
 5372SOL    HW228179   0.218   8.235   9.692
 5373SOL     OW28180   0.854   9.101   9.834
 5373SOL    HW128181   0.919   9.034   9.798
 5373SOL    HW228182   0.844   9.177   9.770
 5374SOL     OW28183   1.746   8.983   9.576
 5374SOL    HW128184   1.842   8.957   9.569
 5374SOL    HW228185   1.722   9.043   9.500
 5375SOL     OW28186   1.058   7.705   9.616
 5375SOL    HW128187   1.083   7.799   9.637
 5375SOL    HW228188   1.059   7.651   9.700
 5376SOL     OW28189   0.508   8.063   9.344
 5376SOL    HW128190   0.468   8.142   9.297
 5376SOL    HW228191   0.597   8.042   9.304
 5377SOL     OW28192   1.627   8.819  10.018
 5377SOL    HW128193   1.623   8.854  10.111
 5377SOL    HW228194   1.686   8.878   9.962
 5378SOL     OW28195   0.358   8.640   9.694
 5378SOL    HW128196   0.404   8.614   9.779
 5378SOL    HW228197   0.378   8.572   9.623
 5379SOL     OW28198   1.216   7.695   9.405
 5379SOL    HW128199   1.310   7.665   9.423
 5379SOL    HW228200   1.164   7.695   9.491
 5380SOL     OW28201   0.403   7.672   9.659
 5380SOL    HW128202   0.357   7.712   9.738
 5380SOL    HW228203   0.351   7.691   9.577
 5381SOL     OW28204   1.843   9.143  10.339
 5381SOL    HW128205   1.889   9.153  10.427
 5381SOL    HW228206   1.910   9.146  10.266
 5382SOL     OW28207   0.956   7.883   9.901
 5382SOL    HW128208   1.032   7.911   9.960
 5382SOL    HW228209   0.912   7.963   9.862
 5383SOL     OW28210   1.191   8.347   9.418
 5383SOL    HW128211   1.228   8.297   9.496
 5383SOL    HW228212   1.121   8.292   9.373
 5384SOL     OW28213   1.774   8.016   9.497
 5384SOL    HW128214   1.795   7.935   9.443
 5384SOL    HW228215   1.791   7.997   9.594
 5385SOL     OW28216   1.068   9.154   9.405
 5385SOL    HW128217   1.102   9.067   9.370
 5385SOL    HW228218   1.036   9.142   9.499
 5386SOL     OW28219   0.030   8.004   9.754
 5386SOL    HW128220   0.032   7.955   9.841
 5386SOL    HW228221   0.032   8.103   9.772
 5387SOL     OW28222   0.203   8.889   9.608
 5387SOL    HW128223   0.230   8.795   9.628
 5387SOL    HW228224   0.228   8.911   9.514
 5388SOL     OW28225   0.217   9.032   9.845
 5388SOL    HW128226   0.133   9.083   9.863
 5388SOL    HW228227   0.208   8.981   9.760
 5389SOL     OW28228   0.490   8.329   9.247
 5389SOL    HW128229   0.459   8.363   9.159
 5389SOL    HW228230   0.494   8.404   9.313
 5390SOL     OW28231   0.094   8.221   9.420
 5390SOL    HW128232   0.154   8.168   9.480
 5390SOL    HW228233   0.000   8.189   9.432
 5391SOL     OW28234   1.614   8.219   9.620
 5391SOL    HW128235   1.682   8.153   9.587
 5391SOL    HW228236   1.629   8.307   9.576
 5392SOL     OW28237   1.365   7.807   9.650
 5392SOL    HW128238   1.302   7.865   9.598
 5392SOL    HW228239   1.458   7.841   9.638
 5393SOL     OW28240   1.633   7.818   9.720
 5393SOL    HW128241   1.729   7.789   9.717
 5393SOL    HW228242   1.594   7.796   9.809
 5394SOL     OW28243   0.867   7.759   9.442
 5394SOL    HW128244   0.776   7.772   9.480
 5394SOL    HW228245   0.927   7.719   9.512
 5395SOL     OW28246   0.978   8.704   9.377
 5395SOL    HW128247   1.031   8.644   9.437
 5395SOL    HW228248   1.017   8.705   9.286
 5396SOL     OW28249   1.729   8.999   9.862
 5396SOL    HW128250   1.696   9.092   9.881
 5396SOL    HW228251   1.727   8.983   9.763
 5397SOL     OW28252   1.144   8.272   9.851
 5397SOL    HW128253   1.209   8.300   9.922
 5397SOL    HW228254   1.065   8.333   9.853
 5398SOL     OW28255   1.336   8.312  10.054
 5398SOL    HW128256   1.357   8.254  10.132
 5398SOL    HW228257   1.345   8.408  10.080
 5399SOL     OW28258   0.925   8.389   9.799
 5399SOL    HW128259   0.912   8.300   9.756
 5399SOL    HW228260   0.856   8.403   9.870
 5400SOL     OW28261   0.036   7.694   9.702
 5400SOL    HW128262   0.096   7.645   9.640
 5400SOL    HW228263   0.091   7.746   9.767
 5401SOL     OW28264   1.659   9.192   9.393
 5401SOL    HW128265   1.749   9.236   9.395
 5401SOL    HW228266   1.658   9.123   9.321
 5402SOL     OW28267   0.360   9.121   9.426
 5402SOL    HW128268   0.452   9.151   9.401
 5402SOL    HW228269   0.335   9.160   9.515
 5403SOL     OW28270   0.792   7.443   9.625
 5403SOL    HW128271   0.753   7.432   9.534
 5403SOL    HW228272   0.748   7.519   9.672
 5404SOL     OW28273   0.037   8.579   9.719
 5404SOL    HW128274   0.115   8.637   9.743
 5404SOL    HW228275   0.056   8.530   9.634
 5405SOL     OW28276   1.403   7.459   9.390
 5405SOL    HW128277   1.483   7.399   9.387
 5405SOL    HW228278   1.329   7.412   9.438
 5406SOL     OW28279   0.718   7.690   9.956
 5406SOL    HW128280   0.707   7.632  10.037
 5406SOL    HW228281   0.803   7.742   9.964
 5407SOL     OW28282   1.591   7.447   9.664
 5407SOL    HW128283   1.598   7.401   9.576
 5407SOL    HW228284   1.495   7.457   9.689
 5408SOL     OW28285   1.302   8.220   9.652
 5408SOL    HW128286   1.248   8.218   9.736
 5408SOL    HW228287   1.379   8.283   9.663
 5409SOL     OW28288   1.599   8.316   9.872
 5409SOL    HW128289   1.613   8.279   9.779
 5409SOL    HW228290   1.510   8.286   9.906
 5410SOL     OW28291   1.609   7.673   9.446
 5410SOL    HW128292   1.614   7.715   9.537
 5410SOL    HW228293   1.542   7.598   9.448
 5411SOL     OW28294   0.332   7.944   9.497
 5411SOL    HW128295   0.404   7.973   9.434
 5411SOL    HW228296   0.288   8.024   9.537
 5412SOL     OW28297   0.447   9.207   9.963
 5412SOL    HW128298   0.371   9.173   9.908
 5412SOL    HW228299   0.533   9.170   9.928
 5413SOL     OW28300   0.746   8.640   9.744
 5413SOL    HW128301   0.789   8.571   9.686
 5413SOL    HW228302   0.710   8.597   9.827
 5414SOL     OW28303   0.224   7.671   9.461
 5414SOL    HW128304   0.268   7.640   9.378
 5414SOL    HW228305   0.225   7.771   9.465
 5415SOL     OW28306   0.077   7.923  10.072
 5415SOL    HW128307   0.041   8.016  10.064
 5415SOL    HW228308   0.160   7.924  10.128
 5416SOL     OW28309   1.138   8.102   9.274
 5416SOL    HW128310   1.069   8.159   9.230
 5416SOL    HW228311   1.219   8.096   9.215
 5417SOL     OW28312   0.873   8.021   9.417
 5417SOL    HW128313   0.963   8.022   9.372
 5417SOL    HW228314   0.850   7.927   9.442
 5418SOL     OW28315   1.324   7.538   9.711
 5418SOL    HW128316   1.234   7.522   9.752
 5418SOL    HW228317   1.332   7.634   9.685
 5419SOL     OW28318   0.073   7.453   9.371
 5419SOL    HW128319   0.136   7.376   9.379
 5419SOL    HW228320   0.093   7.521   9.442
 5420SOL     OW28321   1.645   8.440   9.472
 5420SOL    HW128322   1.716   8.510   9.474
 5420SOL    HW228323   1.632   8.410   9.377
 5421SOL     OW28324   1.091   7.613   9.867
 5421SOL    HW128325   1.150   7.673   9.922
 5421SOL    HW228326   1.018   7.577   9.924
 5422SOL     OW28327   0.273   7.402   9.658
 5422SOL    HW128328   0.311   7.490   9.685
 5422SOL    HW228329   0.196   7.378   9.718
 5423SOL     OW28330   0.095   8.489   9.478
 5423SOL    HW128331   0.085   8.392   9.457
 5423SOL    HW228332   0.148   8.534   9.406
 5424SOL     OW28333   1.792   7.601  10.079
 5424SOL    HW128334   1.747   7.583  10.166
 5424SOL    HW228335   1.890   7.618  10.095
 5425SOL     OW28336   1.178   8.000   9.540
 5425SOL    HW128337   1.230   8.072   9.586
 5425SOL    HW228338   1.191   8.007   9.442
 5426SOL     OW28339   0.798   8.883   9.265
 5426SOL    HW128340   0.773   8.960   9.324
 5426SOL    HW228341   0.862   8.823   9.313
 5427SOL     OW28342   0.759   8.501  10.016
 5427SOL    HW128343   0.848   8.547  10.016
 5427SOL    HW228344   0.752   8.441  10.095
 5428SOL     OW28345   0.937   8.848   9.685
 5428SOL    HW128346   0.987   8.836   9.600
 5428SOL    HW228347   0.883   8.765   9.704
 5429SOL     OW28348   0.528   8.256   9.584
 5429SOL    HW128349   0.478   8.321   9.528
 5429SOL    HW228350   0.470   8.177   9.603
 5430SOL     OW28351   0.002   7.429   9.779
 5430SOL    HW128352  -0.085   7.416   9.732
 5430SOL    HW228353   0.010   7.524   9.809
 5431SOL     OW28354   0.449   8.895   9.908
 5431SOL    HW128355   0.447   8.796   9.921
 5431SOL    HW228356   0.358   8.928   9.885
 5432SOL     OW28357   1.056   8.570   9.641
 5432SOL    HW128358   1.136   8.606   9.689
 5432SOL    HW228359   1.014   8.497   9.697
 5433SOL     OW28360   1.647   7.837  10.005
 5433SOL    HW128361   1.666   7.923  10.052
 5433SOL    HW228362   1.715   7.768  10.033
 5434SOL     OW28363   0.861   7.485   9.343
 5434SOL    HW128364   0.936   7.419   9.355
 5434SOL    HW228365   0.892   7.576   9.371
 5435SOL     OW28366   0.540   7.914   9.955
 5435SOL    HW128367   0.578   7.825   9.981
 5435SOL    HW228368   0.607   7.964   9.900
 5436SOL     OW28369   0.233   8.624   9.270
 5436SOL    HW128370   0.225   8.636   9.171
 5436SOL    HW228371   0.292   8.695   9.308
 5437SOL     OW28372   0.660   9.063   9.430
 5437SOL    HW128373   0.635   9.158   9.414
 5437SOL    HW228374   0.627   9.035   9.520
 5438SOL     OW28375   0.055   8.317   9.816
 5438SOL    HW128376   0.062   8.416   9.803
 5438SOL    HW228377  -0.036   8.294   9.850
 5439SOL     OW28378   1.330   8.590   9.743
 5439SOL    HW128379   1.429   8.594   9.759
 5439SOL    HW228380   1.313   8.576   9.645
 5440SOL     OW28381   0.683   7.756   9.691
 5440SOL    HW128382   0.585   7.750   9.671
 5440SOL    HW228383   0.702   7.713   9.779
 5441SOL     OW28384   1.603   7.439   9.950
 5441SOL    HW128385   1.598   7.480   9.859
 5441SOL    HW228386   1.684   7.473   9.997
 5442SOL     OW28387   1.368   7.847   9.932
 5442SOL    HW128388   1.367   7.839   9.833
 5442SOL    HW228389   1.457   7.819   9.967
 5443SOL     OW28390   1.686   9.786   1.414
 5443SOL    HW128391   1.588   9.778   1.436
 5443SOL    HW228392   1.739   9.775   1.498
 5444SOL     OW28393   0.353   9.423   0.019
 5444SOL    HW128394   0.266   9.420  -0.030
 5444SOL    HW228395   0.404   9.505  -0.009
 5445SOL     OW28396   1.218   9.323   1.352
 5445SOL    HW128397   1.142   9.278   1.399
 5445SOL    HW228398   1.247   9.268   1.274
 5446SOL     OW28399   0.581   9.310   0.145
 5446SOL    HW128400   0.669   9.338   0.106
 5446SOL    HW228401   0.509   9.373   0.115
 5447SOL     OW28402   0.717   9.856   0.549
 5447SOL    HW128403   0.756   9.926   0.490
 5447SOL    HW228404   0.691   9.776   0.495
 5448SOL     OW28405   1.658   9.521   1.120
 5448SOL    HW128406   1.709   9.593   1.073
 5448SOL    HW228407   1.563   9.548   1.129
 5449SOL     OW28408   1.058   9.550   0.389
 5449SOL    HW128409   1.083   9.644   0.410
 5449SOL    HW228410   1.059   9.496   0.473
 5450SOL     OW28411   0.508   9.908   0.117
 5450SOL    HW128412   0.468   9.987   0.070
 5450SOL    HW228413   0.597   9.887   0.077
 5451SOL     OW28414   1.023   9.864   1.569
 5451SOL    HW128415   1.056   9.781   1.616
 5451SOL    HW228416   1.096   9.932   1.568
 5452SOL     OW28417   1.216   9.540   0.178
 5452SOL    HW128418   1.310   9.510   0.196
 5452SOL    HW228419   1.164   9.540   0.264
 5453SOL     OW28420   1.450  10.025   1.311
 5453SOL    HW128421   1.454  10.119   1.276
 5453SOL    HW228422   1.543   9.994   1.333
 5454SOL     OW28423   0.403   9.517   0.432
 5454SOL    HW128424   0.357   9.557   0.511
 5454SOL    HW228425   0.351   9.536   0.350
 5455SOL     OW28426   1.826   9.762   1.199
 5455SOL    HW128427   1.883   9.844   1.201
 5455SOL    HW228428   1.767   9.761   1.279
 5456SOL     OW28429   0.956   9.728   0.674
 5456SOL    HW128430   1.032   9.756   0.733
 5456SOL    HW228431   0.912   9.808   0.635
 5457SOL     OW28432   1.033   9.614   1.812
 5457SOL    HW128433   1.096   9.619   1.889
 5457SOL    HW228434   0.941   9.592   1.845
 5458SOL     OW28435   1.774   9.861   0.270
 5458SOL    HW128436   1.795   9.780   0.216
 5458SOL    HW228437   1.791   9.842   0.367
 5459SOL     OW28438   0.749   9.266   1.710
 5459SOL    HW128439   0.756   9.172   1.677
 5459SOL    HW228440   0.806   9.276   1.792
 5460SOL     OW28441   1.672   9.867   0.978
 5460SOL    HW128442   1.657   9.958   1.015
 5460SOL    HW228443   1.742   9.820   1.032
 5461SOL     OW28444   1.372   9.239   0.854
 5461SOL    HW128445   1.321   9.323   0.836
 5461SOL    HW228446   1.458   9.241   0.803
 5462SOL     OW28447   1.727   9.445   1.783
 5462SOL    HW128448   1.704   9.466   1.878
 5462SOL    HW228449   1.703   9.350   1.763
 5463SOL     OW28450   1.007  10.361   1.319
 5463SOL    HW128451   1.057  10.276   1.303
 5463SOL    HW228452   0.961  10.388   1.234
 5464SOL     OW28453   1.365   9.652   0.423
 5464SOL    HW128454   1.302   9.710   0.371
 5464SOL    HW228455   1.458   9.686   0.411
 5465SOL     OW28456   0.262   9.853   1.523
 5465SOL    HW128457   0.282   9.758   1.498
 5465SOL    HW228458   0.225   9.856   1.616
 5466SOL     OW28459   0.144   9.508   1.413
 5466SOL    HW128460   0.216   9.518   1.344
 5466SOL    HW228461   0.055   9.507   1.368
 5467SOL     OW28462   1.042  10.129   1.178
 5467SOL    HW128463   1.036  10.115   1.079
 5467SOL    HW228464   0.961  10.090   1.222
 5468SOL     OW28465   1.633   9.663   0.493
 5468SOL    HW128466   1.729   9.634   0.490
 5468SOL    HW228467   1.594   9.641   0.582
 5469SOL     OW28468   0.867   9.604   0.215
 5469SOL    HW128469   0.776   9.617   0.253
 5469SOL    HW228470   0.927   9.564   0.285
 5470SOL     OW28471   0.925  10.234   0.572
 5470SOL    HW128472   0.912  10.145   0.529
 5470SOL    HW228473   0.856  10.248   0.643
 5471SOL     OW28474   0.036   9.539   0.475
 5471SOL    HW128475   0.096   9.490   0.413
 5471SOL    HW228476   0.091   9.591   0.540
 5472SOL     OW28477   0.823  10.004   1.324
 5472SOL    HW128478   0.825  10.090   1.375
 5472SOL    HW228479   0.880   9.936   1.371
 5473SOL     OW28480   0.792   9.288   0.398
 5473SOL    HW128481   0.753   9.277   0.307
 5473SOL    HW228482   0.748   9.364   0.445
 5474SOL     OW28483   1.567   9.552   1.576
 5474SOL    HW128484   1.506   9.630   1.573
 5474SOL    HW228485   1.622   9.556   1.659
 5475SOL     OW28486   1.283   9.498   0.867
 5475SOL    HW128487   1.282   9.576   0.804
 5475SOL    HW228488   1.326   9.525   0.953
 5476SOL     OW28489   1.403   9.304   0.163
 5476SOL    HW128490   1.483   9.244   0.160
 5476SOL    HW228491   1.329   9.257   0.211
 5477SOL     OW28492   1.616   9.276   1.597
 5477SOL    HW128493   1.642   9.233   1.511
 5477SOL    HW228494   1.566   9.360   1.579
 5478SOL     OW28495   0.718   9.535   0.729
 5478SOL    HW128496   0.707   9.477   0.810
 5478SOL    HW228497   0.803   9.587   0.737
 5479SOL     OW28498   1.298   9.886   1.121
 5479SOL    HW128499   1.352   9.926   1.047
 5479SOL    HW228500   1.336   9.915   1.209
 5480SOL     OW28501   1.591   9.292   0.437
 5480SOL    HW128502   1.598   9.246   0.349
 5480SOL    HW228503   1.495   9.302   0.462
 5481SOL     OW28504   1.190   9.830   0.839
 5481SOL    HW128505   1.272   9.807   0.787
 5481SOL    HW228506   1.185   9.771   0.920
 5482SOL     OW28507   1.790   9.857   1.675
 5482SOL    HW128508   1.779   9.943   1.624
 5482SOL    HW228509   1.884   9.848   1.705
 5483SOL     OW28510   1.361   9.630   1.094
 5483SOL    HW128511   1.335   9.727   1.100
 5483SOL    HW228512   1.361   9.590   1.186
 5484SOL     OW28513   1.609   9.518   0.219
 5484SOL    HW128514   1.614   9.560   0.310
 5484SOL    HW228515   1.542   9.443   0.221
 5485SOL     OW28516   0.147   9.528   1.704
 5485SOL    HW128517   0.165   9.517   1.606
 5485SOL    HW228518   0.049   9.524   1.721
 5486SOL     OW28519   0.332   9.789   0.270
 5486SOL    HW128520   0.404   9.818   0.207
 5486SOL    HW228521   0.288   9.869   0.310
 5487SOL     OW28522   1.718   9.451   1.373
 5487SOL    HW128523   1.674   9.499   1.449
 5487SOL    HW228524   1.696   9.497   1.287
 5488SOL     OW28525   0.224   9.516   0.234
 5488SOL    HW128526   0.268   9.485   0.151
 5488SOL    HW228527   0.225   9.616   0.238
 5489SOL     OW28528   1.138   9.947   0.047
 5489SOL    HW128529   1.069  10.004   0.003
 5489SOL    HW228530   1.219   9.941  -0.012
 5490SOL     OW28531   0.873   9.866   0.190
 5490SOL    HW128532   0.963   9.867   0.145
 5490SOL    HW228533   0.850   9.772   0.215
 5491SOL     OW28534   1.324   9.383   0.484
 5491SOL    HW128535   1.234   9.367   0.525
 5491SOL    HW228536   1.332   9.479   0.458
 5492SOL     OW28537   1.438   9.783   1.500
 5492SOL    HW128538   1.390   9.806   1.584
 5492SOL    HW228539   1.372   9.753   1.431
 5493SOL     OW28540   0.073   9.298   0.144
 5493SOL    HW128541   0.136   9.221   0.152
 5493SOL    HW228542   0.093   9.366   0.215
 5494SOL     OW28543   1.091   9.458   0.640
 5494SOL    HW128544   1.150   9.518   0.695
 5494SOL    HW228545   1.018   9.422   0.697
 5495SOL     OW28546   0.273   9.247   0.431
 5495SOL    HW128547   0.311   9.335   0.458
 5495SOL    HW228548   0.196   9.223   0.491
 5496SOL     OW28549   1.792   9.446   0.852
 5496SOL    HW128550   1.747   9.428   0.939
 5496SOL    HW228551   1.890   9.463   0.868
 5497SOL     OW28552   1.178   9.845   0.313
 5497SOL    HW128553   1.230   9.917   0.359
 5497SOL    HW228554   1.191   9.852   0.215
 5498SOL     OW28555   0.464   9.684   1.785
 5498SOL    HW128556   0.500   9.631   1.708
 5498SOL    HW228557   0.525   9.761   1.803
 5499SOL     OW28558   0.528  10.101   0.357
 5499SOL    HW128559   0.478  10.166   0.301
 5499SOL    HW228560   0.470  10.022   0.376
 5500SOL     OW28561   1.301   9.575   1.351
 5500SOL    HW128562   1.372   9.547   1.415
 5500SOL    HW228563   1.248   9.495   1.323
 5501SOL     OW28564   0.002   9.274   0.552
 5501SOL    HW128565  -0.085   9.261   0.505
 5501SOL    HW228566   0.010   9.369   0.582
 5502SOL     OW28567   1.223   9.375   1.793
 5502SOL    HW128568   1.282   9.391   1.873
 5502SOL    HW228569   1.170   9.458   1.774
 5503SOL     OW28570   1.045   9.794   1.109
 5503SOL    HW128571   1.131   9.845   1.108
 5503SOL    HW228572   1.051   9.720   1.176
 5504SOL     OW28573   0.994   9.409   0.898
 5504SOL    HW128574   1.090   9.410   0.926
 5504SOL    HW228575   0.939   9.366   0.970
 5505SOL     OW28576   1.647   9.682   0.778
 5505SOL    HW128577   1.666   9.768   0.825
 5505SOL    HW228578   1.715   9.613   0.806
 5506SOL     OW28579   0.861   9.330   0.116
 5506SOL    HW128580   0.936   9.264   0.128
 5506SOL    HW228581   0.892   9.421   0.144
 5507SOL     OW28582   0.540   9.759   0.728
 5507SOL    HW128583   0.578   9.670   0.754
 5507SOL    HW228584   0.607   9.809   0.673
 5508SOL     OW28585   0.220   9.828   1.789
 5508SOL    HW128586   0.237   9.729   1.794
 5508SOL    HW228587   0.284   9.876   1.850
 5509SOL     OW28588   0.789   9.742   1.008
 5509SOL    HW128589   0.881   9.770   1.035
 5509SOL    HW228590   0.721   9.793   1.062
 5510SOL     OW28591   0.683   9.601   0.464
 5510SOL    HW128592   0.585   9.595   0.444
 5510SOL    HW228593   0.702   9.558   0.552
 5511SOL     OW28594   1.603   9.284   0.723
 5511SOL    HW128595   1.598   9.325   0.632
 5511SOL    HW228596   1.684   9.318   0.770
 5512SOL     OW28597   1.368   9.692   0.705
 5512SOL    HW128598   1.367   9.684   0.606
 5512SOL    HW228599   1.457   9.664   0.740
 5513SOL     OW28600   0.353   9.423   1.864
 5513SOL    HW128601   0.266   9.420   1.815
 5513SOL    HW228602   0.404   9.505   1.836
 5514SOL     OW28603   0.581   9.310   1.990
 5514SOL    HW128604   0.669   9.338   1.951
 5514SOL    HW228605   0.509   9.373   1.960
 5515SOL     OW28606   0.717   9.856   2.394
 5515SOL    HW128607   0.756   9.926   2.335
 5515SOL    HW228608   0.691   9.776   2.340
 5516SOL     OW28609   0.571   9.575   2.857
 5516SOL    HW128610   0.647   9.640   2.853
 5516SOL    HW228611   0.601   9.486   2.824
 5517SOL     OW28612   1.058   9.550   2.234
 5517SOL    HW128613   1.083   9.644   2.255
 5517SOL    HW228614   1.059   9.496   2.318
 5518SOL     OW28615   0.508   9.908   1.962
 5518SOL    HW128616   0.468   9.987   1.915
 5518SOL    HW228617   0.597   9.887   1.922
 5519SOL     OW28618   1.023   9.864   3.414
 5519SOL    HW128619   1.056   9.781   3.461
 5519SOL    HW228620   1.096   9.932   3.413
 5520SOL     OW28621   1.216   9.540   2.023
 5520SOL    HW128622   1.310   9.510   2.041
 5520SOL    HW228623   1.164   9.540   2.109
 5521SOL     OW28624   0.368   9.745   3.118
 5521SOL    HW128625   0.358   9.658   3.070
 5521SOL    HW228626   0.304   9.812   3.081
 5522SOL     OW28627   0.403   9.517   2.277
 5522SOL    HW128628   0.357   9.557   2.356
 5522SOL    HW228629   0.351   9.536   2.195
 5523SOL     OW28630   0.956   9.728   2.519
 5523SOL    HW128631   1.032   9.756   2.578
 5523SOL    HW228632   0.912   9.808   2.480
 5524SOL     OW28633   1.033   9.614   3.657
 5524SOL    HW128634   1.096   9.619   3.734
 5524SOL    HW228635   0.941   9.592   3.690
 5525SOL     OW28636   1.774   9.861   2.115
 5525SOL    HW128637   1.795   9.780   2.061
 5525SOL    HW228638   1.791   9.842   2.212
 5526SOL     OW28639   0.749   9.266   3.555
 5526SOL    HW128640   0.756   9.172   3.522
 5526SOL    HW228641   0.806   9.276   3.637
 5527SOL     OW28642   1.672   9.867   2.823
 5527SOL    HW128643   1.657   9.958   2.860
 5527SOL    HW228644   1.742   9.820   2.877
 5528SOL     OW28645   1.372   9.239   2.699
 5528SOL    HW128646   1.321   9.323   2.681
 5528SOL    HW228647   1.458   9.241   2.648
 5529SOL     OW28648   1.727   9.445   3.628
 5529SOL    HW128649   1.704   9.466   3.723
 5529SOL    HW228650   1.703   9.350   3.608
 5530SOL     OW28651   0.351   9.437   2.693
 5530SOL    HW128652   0.403   9.477   2.768
 5530SOL    HW228653   0.404   9.364   2.650
 5531SOL     OW28654   0.335   9.485   3.027
 5531SOL    HW128655   0.300   9.392   3.027
 5531SOL    HW228656   0.422   9.488   2.978
 5532SOL     OW28657   1.007  10.361   3.164
 5532SOL    HW128658   1.057  10.276   3.148
 5532SOL    HW228659   0.961  10.388   3.079
 5533SOL     OW28660   1.365   9.652   2.268
 5533SOL    HW128661   1.302   9.710   2.216
 5533SOL    HW228662   1.458   9.686   2.256
 5534SOL     OW28663   0.144   9.508   3.258
 5534SOL    HW128664   0.216   9.518   3.189
 5534SOL    HW228665   0.055   9.507   3.213
 5535SOL     OW28666   1.042  10.129   3.023
 5535SOL    HW128667   1.036  10.115   2.924
 5535SOL    HW228668   0.961  10.090   3.067
 5536SOL     OW28669   1.633   9.663   2.338
 5536SOL    HW128670   1.729   9.634   2.335
 5536SOL    HW228671   1.594   9.641   2.427
 5537SOL     OW28672   0.867   9.604   2.060
 5537SOL    HW128673   0.776   9.617   2.098
 5537SOL    HW228674   0.927   9.564   2.130
 5538SOL     OW28675   0.925  10.234   2.417
 5538SOL    HW128676   0.912  10.145   2.374
 5538SOL    HW228677   0.856  10.248   2.488
 5539SOL     OW28678   0.036   9.539   2.320
 5539SOL    HW128679   0.096   9.490   2.258
 5539SOL    HW228680   0.091   9.591   2.385
 5540SOL     OW28681   0.823  10.004   3.169
 5540SOL    HW128682   0.825  10.090   3.220
 5540SOL    HW228683   0.880   9.936   3.216
 5541SOL     OW28684   0.363   9.768   2.773
 5541SOL    HW128685   0.419   9.761   2.690
 5541SOL    HW228686   0.420   9.746   2.853
 5542SOL     OW28687   0.792   9.288   2.243
 5542SOL    HW128688   0.753   9.277   2.152
 5542SOL    HW228689   0.748   9.364   2.290
 5543SOL     OW28690   1.403   9.304   2.008
 5543SOL    HW128691   1.483   9.244   2.005
 5543SOL    HW228692   1.329   9.257   2.056
 5544SOL     OW28693   0.718   9.535   2.574
 5544SOL    HW128694   0.707   9.477   2.655
 5544SOL    HW228695   0.803   9.587   2.582
 5545SOL     OW28696   1.591   9.292   2.282
 5545SOL    HW128697   1.598   9.246   2.194
 5545SOL    HW228698   1.495   9.302   2.307
 5546SOL     OW28699   1.591   9.762   3.690
 5546SOL    HW128700   1.671   9.787   3.634
 5546SOL    HW228701   1.622   9.727   3.778
 5547SOL     OW28702   1.609   9.518   2.064
 5547SOL    HW128703   1.614   9.560   2.155
 5547SOL    HW228704   1.542   9.443   2.066
 5548SOL     OW28705   0.195   9.598   2.517
 5548SOL    HW128706   0.138   9.653   2.578
 5548SOL    HW228707   0.265   9.550   2.570
 5549SOL     OW28708   0.332   9.789   2.115
 5549SOL    HW128709   0.404   9.818   2.052
 5549SOL    HW228710   0.288   9.869   2.155
 5550SOL     OW28711   0.224   9.516   2.079
 5550SOL    HW128712   0.268   9.485   1.996
 5550SOL    HW228713   0.225   9.616   2.083
 5551SOL     OW28714   0.077   9.768   2.690
 5551SOL    HW128715   0.041   9.861   2.682
 5551SOL    HW228716   0.160   9.769   2.746
 5552SOL     OW28717   0.873   9.866   2.035
 5552SOL    HW128718   0.963   9.867   1.990
 5552SOL    HW228719   0.850   9.772   2.060
 5553SOL     OW28720   1.324   9.383   2.329
 5553SOL    HW128721   1.234   9.367   2.370
 5553SOL    HW228722   1.332   9.479   2.303
 5554SOL     OW28723   0.073   9.298   1.989
 5554SOL    HW128724   0.136   9.221   1.997
 5554SOL    HW228725   0.093   9.366   2.060
 5555SOL     OW28726   0.627   9.886   3.012
 5555SOL    HW128727   0.702   9.929   3.061
 5555SOL    HW228728   0.560   9.851   3.078
 5556SOL     OW28729   1.091   9.458   2.485
 5556SOL    HW128730   1.150   9.518   2.540
 5556SOL    HW228731   1.018   9.422   2.542
 5557SOL     OW28732   0.619   9.335   2.756
 5557SOL    HW128733   0.547   9.268   2.742
 5557SOL    HW228734   0.701   9.289   2.791
 5558SOL     OW28735   0.045  10.202   2.996
 5558SOL    HW128736   0.134  10.180   3.036
 5558SOL    HW228737  -0.010  10.118   2.992
 5559SOL     OW28738   0.273   9.247   2.276
 5559SOL    HW128739   0.311   9.335   2.303
 5559SOL    HW228740   0.196   9.223   2.336
 5560SOL     OW28741   1.792   9.446   2.697
 5560SOL    HW128742   1.747   9.428   2.784
 5560SOL    HW228743   1.890   9.463   2.713
 5561SOL     OW28744   0.296  10.102   3.225
 5561SOL    HW128745   0.260  10.012   3.251
 5561SOL    HW228746   0.257  10.172   3.285
 5562SOL     OW28747   0.127  10.040   2.703
 5562SOL    HW128748   0.222  10.031   2.671
 5562SOL    HW228749   0.093  10.132   2.682
 5563SOL     OW28750   0.528  10.101   2.202
 5563SOL    HW128751   0.478  10.166   2.146
 5563SOL    HW228752   0.470  10.022   2.221
 5564SOL     OW28753   0.002   9.274   2.397
 5564SOL    HW128754  -0.085   9.261   2.350
 5564SOL    HW228755   0.010   9.369   2.427
 5565SOL     OW28756   1.223   9.375   3.638
 5565SOL    HW128757   1.282   9.391   3.718
 5565SOL    HW228758   1.170   9.458   3.619
 5566SOL     OW28759   1.045   9.794   2.954
 5566SOL    HW128760   1.131   9.845   2.953
 5566SOL    HW228761   1.051   9.720   3.021
 5567SOL     OW28762   0.994   9.409   2.743
 5567SOL    HW128763   1.090   9.410   2.771
 5567SOL    HW228764   0.939   9.366   2.815
 5568SOL     OW28765   1.647   9.682   2.623
 5568SOL    HW128766   1.666   9.768   2.670
 5568SOL    HW228767   1.715   9.613   2.651
 5569SOL     OW28768   0.861   9.330   1.961
 5569SOL    HW128769   0.936   9.264   1.973
 5569SOL    HW228770   0.892   9.421   1.989
 5570SOL     OW28771   0.540   9.759   2.573
 5570SOL    HW128772   0.578   9.670   2.599
 5570SOL    HW228773   0.607   9.809   2.518
 5571SOL     OW28774   0.789   9.742   2.853
 5571SOL    HW128775   0.881   9.770   2.880
 5571SOL    HW228776   0.721   9.793   2.907
 5572SOL     OW28777   0.208   9.935   2.994
 5572SOL    HW128778   0.246   9.994   3.065
 5572SOL    HW228779   0.191   9.988   2.912
 5573SOL     OW28780   0.683   9.601   2.309
 5573SOL    HW128781   0.585   9.595   2.289
 5573SOL    HW228782   0.702   9.558   2.397
 5574SOL     OW28783   1.603   9.284   2.568
 5574SOL    HW128784   1.598   9.325   2.477
 5574SOL    HW228785   1.684   9.318   2.615
 5575SOL     OW28786   1.368   9.692   2.550
 5575SOL    HW128787   1.367   9.684   2.451
 5575SOL    HW228788   1.457   9.664   2.585
 5576SOL     OW28789   1.686   9.786   5.105
 5576SOL    HW128790   1.588   9.778   5.127
 5576SOL    HW228791   1.739   9.775   5.189
 5577SOL     OW28792   0.353   9.423   3.710
 5577SOL    HW128793   0.266   9.420   3.661
 5577SOL    HW228794   0.404   9.505   3.682
 5578SOL     OW28795   1.218   9.323   5.043
 5578SOL    HW128796   1.142   9.278   5.090
 5578SOL    HW228797   1.247   9.268   4.965
 5579SOL     OW28798   0.581   9.310   3.836
 5579SOL    HW128799   0.669   9.338   3.797
 5579SOL    HW228800   0.509   9.373   3.806
 5580SOL     OW28801   0.717   9.856   4.240
 5580SOL    HW128802   0.756   9.926   4.181
 5580SOL    HW228803   0.691   9.776   4.186
 5581SOL     OW28804   1.337   9.764   5.449
 5581SOL    HW128805   1.433   9.768   5.475
 5581SOL    HW228806   1.293   9.688   5.496
 5582SOL     OW28807   1.658   9.521   4.811
 5582SOL    HW128808   1.709   9.593   4.764
 5582SOL    HW228809   1.563   9.548   4.820
 5583SOL     OW28810   1.058   9.550   4.080
 5583SOL    HW128811   1.083   9.644   4.101
 5583SOL    HW228812   1.059   9.496   4.164
 5584SOL     OW28813   0.508   9.908   3.808
 5584SOL    HW128814   0.468   9.987   3.761
 5584SOL    HW228815   0.597   9.887   3.768
 5585SOL     OW28816   1.023   9.864   5.260
 5585SOL    HW128817   1.056   9.781   5.307
 5585SOL    HW228818   1.096   9.932   5.259
 5586SOL     OW28819   1.216   9.540   3.869
 5586SOL    HW128820   1.310   9.510   3.887
 5586SOL    HW228821   1.164   9.540   3.955
 5587SOL     OW28822   0.368   9.745   4.964
 5587SOL    HW128823   0.358   9.658   4.916
 5587SOL    HW228824   0.304   9.812   4.927
 5588SOL     OW28825   1.450  10.025   5.002
 5588SOL    HW128826   1.454  10.119   4.967
 5588SOL    HW228827   1.543   9.994   5.024
 5589SOL     OW28828   0.403   9.517   4.123
 5589SOL    HW128829   0.357   9.557   4.202
 5589SOL    HW228830   0.351   9.536   4.041
 5590SOL     OW28831   1.826   9.762   4.890
 5590SOL    HW128832   1.883   9.844   4.892
 5590SOL    HW228833   1.767   9.761   4.970
 5591SOL     OW28834   0.956   9.728   4.365
 5591SOL    HW128835   1.032   9.756   4.424
 5591SOL    HW228836   0.912   9.808   4.326
 5592SOL     OW28837   1.033   9.614   5.503
 5592SOL    HW128838   1.096   9.619   5.580
 5592SOL    HW228839   0.941   9.592   5.536
 5593SOL     OW28840   1.774   9.861   3.961
 5593SOL    HW128841   1.795   9.780   3.907
 5593SOL    HW228842   1.791   9.842   4.058
 5594SOL     OW28843   1.672   9.867   4.669
 5594SOL    HW128844   1.657   9.958   4.706
 5594SOL    HW228845   1.742   9.820   4.723
 5595SOL     OW28846   1.372   9.239   4.545
 5595SOL    HW128847   1.321   9.323   4.527
 5595SOL    HW228848   1.458   9.241   4.494
 5596SOL     OW28849   1.727   9.445   5.474
 5596SOL    HW128850   1.704   9.466   5.569
 5596SOL    HW228851   1.703   9.350   5.454
 5597SOL     OW28852   1.007  10.361   5.010
 5597SOL    HW128853   1.057  10.276   4.994
 5597SOL    HW228854   0.961  10.388   4.925
 5598SOL     OW28855   1.365   9.652   4.114
 5598SOL    HW128856   1.302   9.710   4.062
 5598SOL    HW228857   1.458   9.686   4.102
 5599SOL     OW28858   0.262   9.853   5.214
 5599SOL    HW128859   0.282   9.758   5.189
 5599SOL    HW228860   0.225   9.856   5.307
 5600SOL     OW28861   1.042  10.129   4.869
 5600SOL    HW128862   1.036  10.115   4.770
 5600SOL    HW228863   0.961  10.090   4.913
 5601SOL     OW28864   1.633   9.663   4.184
 5601SOL    HW128865   1.729   9.634   4.181
 5601SOL    HW228866   1.594   9.641   4.273
 5602SOL     OW28867   0.867   9.604   3.906
 5602SOL    HW128868   0.776   9.617   3.944
 5602SOL    HW228869   0.927   9.564   3.976
 5603SOL     OW28870   0.925  10.234   4.263
 5603SOL    HW128871   0.912  10.145   4.220
 5603SOL    HW228872   0.856  10.248   4.334
 5604SOL     OW28873   0.036   9.539   4.166
 5604SOL    HW128874   0.096   9.490   4.104
 5604SOL    HW228875   0.091   9.591   4.231
 5605SOL     OW28876   0.823  10.004   5.015
 5605SOL    HW128877   0.825  10.090   5.066
 5605SOL    HW228878   0.880   9.936   5.062
 5606SOL     OW28879   0.792   9.288   4.089
 5606SOL    HW128880   0.753   9.277   3.998
 5606SOL    HW228881   0.748   9.364   4.136
 5607SOL     OW28882   1.567   9.552   5.267
 5607SOL    HW128883   1.506   9.630   5.264
 5607SOL    HW228884   1.622   9.556   5.350
 5608SOL     OW28885   1.283   9.498   4.558
 5608SOL    HW128886   1.282   9.576   4.495
 5608SOL    HW228887   1.326   9.525   4.644
 5609SOL     OW28888   1.403   9.304   3.854
 5609SOL    HW128889   1.483   9.244   3.851
 5609SOL    HW228890   1.329   9.257   3.902
 5610SOL     OW28891   1.616   9.276   5.288
 5610SOL    HW128892   1.642   9.233   5.202
 5610SOL    HW228893   1.566   9.360   5.270
 5611SOL     OW28894   0.718   9.535   4.420
 5611SOL    HW128895   0.707   9.477   4.501
 5611SOL    HW228896   0.803   9.587   4.428
 5612SOL     OW28897   1.298   9.886   4.812
 5612SOL    HW128898   1.352   9.926   4.738
 5612SOL    HW228899   1.336   9.915   4.900
 5613SOL     OW28900   1.591   9.292   4.128
 5613SOL    HW128901   1.598   9.246   4.040
 5613SOL    HW228902   1.495   9.302   4.153
 5614SOL     OW28903   1.190   9.830   4.530
 5614SOL    HW128904   1.272   9.807   4.478
 5614SOL    HW228905   1.185   9.771   4.611
 5615SOL     OW28906   1.790   9.857   5.366
 5615SOL    HW128907   1.779   9.943   5.315
 5615SOL    HW228908   1.884   9.848   5.396
 5616SOL     OW28909   1.361   9.630   4.785
 5616SOL    HW128910   1.335   9.727   4.791
 5616SOL    HW228911   1.361   9.590   4.877
 5617SOL     OW28912   1.591   9.762   5.536
 5617SOL    HW128913   1.671   9.787   5.480
 5617SOL    HW228914   1.622   9.727   5.624
 5618SOL     OW28915   1.609   9.518   3.910
 5618SOL    HW128916   1.614   9.560   4.001
 5618SOL    HW228917   1.542   9.443   3.912
 5619SOL     OW28918   0.147   9.528   5.395
 5619SOL    HW128919   0.165   9.517   5.297
 5619SOL    HW228920   0.049   9.524   5.412
 5620SOL     OW28921   0.332   9.789   3.961
 5620SOL    HW128922   0.404   9.818   3.898
 5620SOL    HW228923   0.288   9.869   4.001
 5621SOL     OW28924   1.718   9.451   5.064
 5621SOL    HW128925   1.674   9.499   5.140
 5621SOL    HW228926   1.696   9.497   4.978
 5622SOL     OW28927   0.224   9.516   3.925
 5622SOL    HW128928   0.268   9.485   3.842
 5622SOL    HW228929   0.225   9.616   3.929
 5623SOL     OW28930   0.077   9.768   4.536
 5623SOL    HW128931   0.041   9.861   4.528
 5623SOL    HW228932   0.160   9.769   4.592
 5624SOL     OW28933   1.138   9.947   3.738
 5624SOL    HW128934   1.069  10.004   3.694
 5624SOL    HW228935   1.219   9.941   3.679
 5625SOL     OW28936   0.873   9.866   3.881
 5625SOL    HW128937   0.963   9.867   3.836
 5625SOL    HW228938   0.850   9.772   3.906
 5626SOL     OW28939   1.324   9.383   4.175
 5626SOL    HW128940   1.234   9.367   4.216
 5626SOL    HW228941   1.332   9.479   4.149
 5627SOL     OW28942   1.438   9.783   5.191
 5627SOL    HW128943   1.390   9.806   5.275
 5627SOL    HW228944   1.372   9.753   5.122
 5628SOL     OW28945   0.073   9.298   3.835
 5628SOL    HW128946   0.136   9.221   3.843
 5628SOL    HW228947   0.093   9.366   3.906
 5629SOL     OW28948   0.627   9.886   4.858
 5629SOL    HW128949   0.702   9.929   4.907
 5629SOL    HW228950   0.560   9.851   4.924
 5630SOL     OW28951   1.091   9.458   4.331
 5630SOL    HW128952   1.150   9.518   4.386
 5630SOL    HW228953   1.018   9.422   4.388
 5631SOL     OW28954   0.619   9.335   4.602
 5631SOL    HW128955   0.547   9.268   4.588
 5631SOL    HW228956   0.701   9.289   4.637
 5632SOL     OW28957   0.045  10.202   4.842
 5632SOL    HW128958   0.134  10.180   4.882
 5632SOL    HW228959  -0.010  10.118   4.838
 5633SOL     OW28960   0.273   9.247   4.122
 5633SOL    HW128961   0.311   9.335   4.149
 5633SOL    HW228962   0.196   9.223   4.182
 5634SOL     OW28963   1.792   9.446   4.543
 5634SOL    HW128964   1.747   9.428   4.630
 5634SOL    HW228965   1.890   9.463   4.559
 5635SOL     OW28966   1.178   9.845   4.004
 5635SOL    HW128967   1.230   9.917   4.050
 5635SOL    HW228968   1.191   9.852   3.906
 5636SOL     OW28969   0.296  10.102   5.071
 5636SOL    HW128970   0.260  10.012   5.097
 5636SOL    HW228971   0.257  10.172   5.131
 5637SOL     OW28972   0.127  10.040   4.549
 5637SOL    HW128973   0.222  10.031   4.517
 5637SOL    HW228974   0.093  10.132   4.528
 5638SOL     OW28975   0.464   9.684   5.476
 5638SOL    HW128976   0.500   9.631   5.399
 5638SOL    HW228977   0.525   9.761   5.494
 5639SOL     OW28978   0.528  10.101   4.048
 5639SOL    HW128979   0.478  10.166   3.992
 5639SOL    HW228980   0.470  10.022   4.067
 5640SOL     OW28981   1.301   9.575   5.042
 5640SOL    HW128982   1.372   9.547   5.106
 5640SOL    HW228983   1.248   9.495   5.014
 5641SOL     OW28984   0.002   9.274   4.243
 5641SOL    HW128985  -0.085   9.261   4.196
 5641SOL    HW228986   0.010   9.369   4.273
 5642SOL     OW28987   1.223   9.375   5.484
 5642SOL    HW128988   1.282   9.391   5.564
 5642SOL    HW228989   1.170   9.458   5.465
 5643SOL     OW28990   1.045   9.794   4.800
 5643SOL    HW128991   1.131   9.845   4.799
 5643SOL    HW228992   1.051   9.720   4.867
 5644SOL     OW28993   0.994   9.409   4.589
 5644SOL    HW128994   1.090   9.410   4.617
 5644SOL    HW228995   0.939   9.366   4.661
 5645SOL     OW28996   1.647   9.682   4.469
 5645SOL    HW128997   1.666   9.768   4.516
 5645SOL    HW228998   1.715   9.613   4.497
 5646SOL     OW28999   0.861   9.330   3.807
 5646SOL    HW129000   0.936   9.264   3.819
 5646SOL    HW229001   0.892   9.421   3.835
 5647SOL     OW29002   0.540   9.759   4.419
 5647SOL    HW129003   0.578   9.670   4.445
 5647SOL    HW229004   0.607   9.809   4.364
 5648SOL     OW29005   0.220   9.828   5.480
 5648SOL    HW129006   0.237   9.729   5.485
 5648SOL    HW229007   0.284   9.876   5.541
 5649SOL     OW29008   0.789   9.742   4.699
 5649SOL    HW129009   0.881   9.770   4.726
 5649SOL    HW229010   0.721   9.793   4.753
 5650SOL     OW29011   0.208   9.935   4.840
 5650SOL    HW129012   0.246   9.994   4.911
 5650SOL    HW229013   0.191   9.988   4.758
 5651SOL     OW29014   0.683   9.601   4.155
 5651SOL    HW129015   0.585   9.595   4.135
 5651SOL    HW229016   0.702   9.558   4.243
 5652SOL     OW29017   1.603   9.284   4.414
 5652SOL    HW129018   1.598   9.325   4.323
 5652SOL    HW229019   1.684   9.318   4.461
 5653SOL     OW29020   1.368   9.692   4.396
 5653SOL    HW129021   1.367   9.684   4.297
 5653SOL    HW229022   1.457   9.664   4.431
 5654SOL     OW29023   1.686   9.786   6.950
 5654SOL    HW129024   1.588   9.778   6.972
 5654SOL    HW229025   1.739   9.775   7.034
 5655SOL     OW29026   0.353   9.423   5.555
 5655SOL    HW129027   0.266   9.420   5.506
 5655SOL    HW229028   0.404   9.505   5.527
 5656SOL     OW29029   1.218   9.323   6.888
 5656SOL    HW129030   1.142   9.278   6.935
 5656SOL    HW229031   1.247   9.268   6.810
 5657SOL     OW29032   0.581   9.310   5.681
 5657SOL    HW129033   0.669   9.338   5.642
 5657SOL    HW229034   0.509   9.373   5.651
 5658SOL     OW29035   0.717   9.856   6.085
 5658SOL    HW129036   0.756   9.926   6.026
 5658SOL    HW229037   0.691   9.776   6.031
 5659SOL     OW29038   1.337   9.764   7.294
 5659SOL    HW129039   1.433   9.768   7.320
 5659SOL    HW229040   1.293   9.688   7.341
 5660SOL     OW29041   0.571   9.575   6.548
 5660SOL    HW129042   0.647   9.640   6.544
 5660SOL    HW229043   0.601   9.486   6.515
 5661SOL     OW29044   1.658   9.521   6.656
 5661SOL    HW129045   1.709   9.593   6.609
 5661SOL    HW229046   1.563   9.548   6.665
 5662SOL     OW29047   1.058   9.550   5.925
 5662SOL    HW129048   1.083   9.644   5.946
 5662SOL    HW229049   1.059   9.496   6.009
 5663SOL     OW29050   0.508   9.908   5.653
 5663SOL    HW129051   0.468   9.987   5.606
 5663SOL    HW229052   0.597   9.887   5.613
 5664SOL     OW29053   1.023   9.864   7.105
 5664SOL    HW129054   1.056   9.781   7.152
 5664SOL    HW229055   1.096   9.932   7.104
 5665SOL     OW29056   1.216   9.540   5.714
 5665SOL    HW129057   1.310   9.510   5.732
 5665SOL    HW229058   1.164   9.540   5.800
 5666SOL     OW29059   0.368   9.745   6.809
 5666SOL    HW129060   0.358   9.658   6.761
 5666SOL    HW229061   0.304   9.812   6.772
 5667SOL     OW29062   1.450  10.025   6.847
 5667SOL    HW129063   1.454  10.119   6.812
 5667SOL    HW229064   1.543   9.994   6.869
 5668SOL     OW29065   0.403   9.517   5.968
 5668SOL    HW129066   0.357   9.557   6.047
 5668SOL    HW229067   0.351   9.536   5.886
 5669SOL     OW29068   1.826   9.762   6.735
 5669SOL    HW129069   1.883   9.844   6.737
 5669SOL    HW229070   1.767   9.761   6.815
 5670SOL     OW29071   0.956   9.728   6.210
 5670SOL    HW129072   1.032   9.756   6.269
 5670SOL    HW229073   0.912   9.808   6.171
 5671SOL     OW29074   1.033   9.614   7.348
 5671SOL    HW129075   1.096   9.619   7.425
 5671SOL    HW229076   0.941   9.592   7.381
 5672SOL     OW29077   1.774   9.861   5.806
 5672SOL    HW129078   1.795   9.780   5.752
 5672SOL    HW229079   1.791   9.842   5.903
 5673SOL     OW29080   0.749   9.266   7.246
 5673SOL    HW129081   0.756   9.172   7.213
 5673SOL    HW229082   0.806   9.276   7.328
 5674SOL     OW29083   1.672   9.867   6.514
 5674SOL    HW129084   1.657   9.958   6.551
 5674SOL    HW229085   1.742   9.820   6.568
 5675SOL     OW29086   1.372   9.239   6.390
 5675SOL    HW129087   1.321   9.323   6.372
 5675SOL    HW229088   1.458   9.241   6.339
 5676SOL     OW29089   1.727   9.445   7.319
 5676SOL    HW129090   1.704   9.466   7.414
 5676SOL    HW229091   1.703   9.350   7.299
 5677SOL     OW29092   0.351   9.437   6.384
 5677SOL    HW129093   0.403   9.477   6.459
 5677SOL    HW229094   0.404   9.364   6.341
 5678SOL     OW29095   0.335   9.485   6.718
 5678SOL    HW129096   0.300   9.392   6.718
 5678SOL    HW229097   0.422   9.488   6.669
 5679SOL     OW29098   1.007  10.361   6.855
 5679SOL    HW129099   1.057  10.276   6.839
 5679SOL    HW229100   0.961  10.388   6.770
 5680SOL     OW29101   1.365   9.652   5.959
 5680SOL    HW129102   1.302   9.710   5.907
 5680SOL    HW229103   1.458   9.686   5.947
 5681SOL     OW29104   0.262   9.853   7.059
 5681SOL    HW129105   0.282   9.758   7.034
 5681SOL    HW229106   0.225   9.856   7.152
 5682SOL     OW29107   0.144   9.508   6.949
 5682SOL    HW129108   0.216   9.518   6.880
 5682SOL    HW229109   0.055   9.507   6.904
 5683SOL     OW29110   1.042  10.129   6.714
 5683SOL    HW129111   1.036  10.115   6.615
 5683SOL    HW229112   0.961  10.090   6.758
 5684SOL     OW29113   1.633   9.663   6.029
 5684SOL    HW129114   1.729   9.634   6.026
 5684SOL    HW229115   1.594   9.641   6.118
 5685SOL     OW29116   0.867   9.604   5.751
 5685SOL    HW129117   0.776   9.617   5.789
 5685SOL    HW229118   0.927   9.564   5.821
 5686SOL     OW29119   0.925  10.234   6.108
 5686SOL    HW129120   0.912  10.145   6.065
 5686SOL    HW229121   0.856  10.248   6.179
 5687SOL     OW29122   0.036   9.539   6.011
 5687SOL    HW129123   0.096   9.490   5.949
 5687SOL    HW229124   0.091   9.591   6.076
 5688SOL     OW29125   0.823  10.004   6.860
 5688SOL    HW129126   0.825  10.090   6.911
 5688SOL    HW229127   0.880   9.936   6.907
 5689SOL     OW29128   0.363   9.768   6.464
 5689SOL    HW129129   0.419   9.761   6.381
 5689SOL    HW229130   0.420   9.746   6.544
 5690SOL     OW29131   0.792   9.288   5.934
 5690SOL    HW129132   0.753   9.277   5.843
 5690SOL    HW229133   0.748   9.364   5.981
 5691SOL     OW29134   1.567   9.552   7.112
 5691SOL    HW129135   1.506   9.630   7.109
 5691SOL    HW229136   1.622   9.556   7.195
 5692SOL     OW29137   1.283   9.498   6.403
 5692SOL    HW129138   1.282   9.576   6.340
 5692SOL    HW229139   1.326   9.525   6.489
 5693SOL     OW29140   1.403   9.304   5.699
 5693SOL    HW129141   1.483   9.244   5.696
 5693SOL    HW229142   1.329   9.257   5.747
 5694SOL     OW29143   1.616   9.276   7.133
 5694SOL    HW129144   1.642   9.233   7.047
 5694SOL    HW229145   1.566   9.360   7.115
 5695SOL     OW29146   0.718   9.535   6.265
 5695SOL    HW129147   0.707   9.477   6.346
 5695SOL    HW229148   0.803   9.587   6.273
 5696SOL     OW29149   1.298   9.886   6.657
 5696SOL    HW129150   1.352   9.926   6.583
 5696SOL    HW229151   1.336   9.915   6.745
 5697SOL     OW29152   1.591   9.292   5.973
 5697SOL    HW129153   1.598   9.246   5.885
 5697SOL    HW229154   1.495   9.302   5.998
 5698SOL     OW29155   1.190   9.830   6.375
 5698SOL    HW129156   1.272   9.807   6.323
 5698SOL    HW229157   1.185   9.771   6.456
 5699SOL     OW29158   1.790   9.857   7.211
 5699SOL    HW129159   1.779   9.943   7.160
 5699SOL    HW229160   1.884   9.848   7.241
 5700SOL     OW29161   1.361   9.630   6.630
 5700SOL    HW129162   1.335   9.727   6.636
 5700SOL    HW229163   1.361   9.590   6.722
 5701SOL     OW29164   1.591   9.762   7.381
 5701SOL    HW129165   1.671   9.787   7.325
 5701SOL    HW229166   1.622   9.727   7.469
 5702SOL     OW29167   1.609   9.518   5.755
 5702SOL    HW129168   1.614   9.560   5.846
 5702SOL    HW229169   1.542   9.443   5.757
 5703SOL     OW29170   0.147   9.528   7.240
 5703SOL    HW129171   0.165   9.517   7.142
 5703SOL    HW229172   0.049   9.524   7.257
 5704SOL     OW29173   0.195   9.598   6.208
 5704SOL    HW129174   0.138   9.653   6.269
 5704SOL    HW229175   0.265   9.550   6.261
 5705SOL     OW29176   0.332   9.789   5.806
 5705SOL    HW129177   0.404   9.818   5.743
 5705SOL    HW229178   0.288   9.869   5.846
 5706SOL     OW29179   1.718   9.451   6.909
 5706SOL    HW129180   1.674   9.499   6.985
 5706SOL    HW229181   1.696   9.497   6.823
 5707SOL     OW29182   0.224   9.516   5.770
 5707SOL    HW129183   0.268   9.485   5.687
 5707SOL    HW229184   0.225   9.616   5.774
 5708SOL     OW29185   0.077   9.768   6.381
 5708SOL    HW129186   0.041   9.861   6.373
 5708SOL    HW229187   0.160   9.769   6.437
 5709SOL     OW29188   1.138   9.947   5.583
 5709SOL    HW129189   1.069  10.004   5.539
 5709SOL    HW229190   1.219   9.941   5.524
 5710SOL     OW29191   0.873   9.866   5.726
 5710SOL    HW129192   0.963   9.867   5.681
 5710SOL    HW229193   0.850   9.772   5.751
 5711SOL     OW29194   1.324   9.383   6.020
 5711SOL    HW129195   1.234   9.367   6.061
 5711SOL    HW229196   1.332   9.479   5.994
 5712SOL     OW29197   1.438   9.783   7.036
 5712SOL    HW129198   1.390   9.806   7.120
 5712SOL    HW229199   1.372   9.753   6.967
 5713SOL     OW29200   0.073   9.298   5.680
 5713SOL    HW129201   0.136   9.221   5.688
 5713SOL    HW229202   0.093   9.366   5.751
 5714SOL     OW29203   0.627   9.886   6.703
 5714SOL    HW129204   0.702   9.929   6.752
 5714SOL    HW229205   0.560   9.851   6.769
 5715SOL     OW29206   1.091   9.458   6.176
 5715SOL    HW129207   1.150   9.518   6.231
 5715SOL    HW229208   1.018   9.422   6.233
 5716SOL     OW29209   0.619   9.335   6.447
 5716SOL    HW129210   0.547   9.268   6.433
 5716SOL    HW229211   0.701   9.289   6.482
 5717SOL     OW29212   0.045  10.202   6.687
 5717SOL    HW129213   0.134  10.180   6.727
 5717SOL    HW229214  -0.010  10.118   6.683
 5718SOL     OW29215   0.273   9.247   5.967
 5718SOL    HW129216   0.311   9.335   5.994
 5718SOL    HW229217   0.196   9.223   6.027
 5719SOL     OW29218   1.792   9.446   6.388
 5719SOL    HW129219   1.747   9.428   6.475
 5719SOL    HW229220   1.890   9.463   6.404
 5720SOL     OW29221   1.178   9.845   5.849
 5720SOL    HW129222   1.230   9.917   5.895
 5720SOL    HW229223   1.191   9.852   5.751
 5721SOL     OW29224   0.296  10.102   6.916
 5721SOL    HW129225   0.260  10.012   6.942
 5721SOL    HW229226   0.257  10.172   6.976
 5722SOL     OW29227   0.127  10.040   6.394
 5722SOL    HW129228   0.222  10.031   6.362
 5722SOL    HW229229   0.093  10.132   6.373
 5723SOL     OW29230   0.464   9.684   7.321
 5723SOL    HW129231   0.500   9.631   7.244
 5723SOL    HW229232   0.525   9.761   7.339
 5724SOL     OW29233   0.528  10.101   5.893
 5724SOL    HW129234   0.478  10.166   5.837
 5724SOL    HW229235   0.470  10.022   5.912
 5725SOL     OW29236   1.301   9.575   6.887
 5725SOL    HW129237   1.372   9.547   6.951
 5725SOL    HW229238   1.248   9.495   6.859
 5726SOL     OW29239   0.002   9.274   6.088
 5726SOL    HW129240  -0.085   9.261   6.041
 5726SOL    HW229241   0.010   9.369   6.118
 5727SOL     OW29242   1.223   9.375   7.329
 5727SOL    HW129243   1.282   9.391   7.409
 5727SOL    HW229244   1.170   9.458   7.310
 5728SOL     OW29245   1.045   9.794   6.645
 5728SOL    HW129246   1.131   9.845   6.644
 5728SOL    HW229247   1.051   9.720   6.712
 5729SOL     OW29248   0.994   9.409   6.434
 5729SOL    HW129249   1.090   9.410   6.462
 5729SOL    HW229250   0.939   9.366   6.506
 5730SOL     OW29251   1.647   9.682   6.314
 5730SOL    HW129252   1.666   9.768   6.361
 5730SOL    HW229253   1.715   9.613   6.342
 5731SOL     OW29254   0.861   9.330   5.652
 5731SOL    HW129255   0.936   9.264   5.664
 5731SOL    HW229256   0.892   9.421   5.680
 5732SOL     OW29257   0.540   9.759   6.264
 5732SOL    HW129258   0.578   9.670   6.290
 5732SOL    HW229259   0.607   9.809   6.209
 5733SOL     OW29260   0.220   9.828   7.325
 5733SOL    HW129261   0.237   9.729   7.330
 5733SOL    HW229262   0.284   9.876   7.386
 5734SOL     OW29263   0.789   9.742   6.544
 5734SOL    HW129264   0.881   9.770   6.571
 5734SOL    HW229265   0.721   9.793   6.598
 5735SOL     OW29266   0.208   9.935   6.685
 5735SOL    HW129267   0.246   9.994   6.756
 5735SOL    HW229268   0.191   9.988   6.603
 5736SOL     OW29269   0.683   9.601   6.000
 5736SOL    HW129270   0.585   9.595   5.980
 5736SOL    HW229271   0.702   9.558   6.088
 5737SOL     OW29272   1.603   9.284   6.259
 5737SOL    HW129273   1.598   9.325   6.168
 5737SOL    HW229274   1.684   9.318   6.306
 5738SOL     OW29275   1.368   9.692   6.241
 5738SOL    HW129276   1.367   9.684   6.142
 5738SOL    HW229277   1.457   9.664   6.276
 5739SOL     OW29278   1.686   9.786   8.796
 5739SOL    HW129279   1.588   9.778   8.818
 5739SOL    HW229280   1.739   9.775   8.880
 5740SOL     OW29281   0.353   9.423   7.401
 5740SOL    HW129282   0.266   9.420   7.352
 5740SOL    HW229283   0.404   9.505   7.373
 5741SOL     OW29284   1.218   9.323   8.734
 5741SOL    HW129285   1.142   9.278   8.781
 5741SOL    HW229286   1.247   9.268   8.656
 5742SOL     OW29287   0.581   9.310   7.527
 5742SOL    HW129288   0.669   9.338   7.488
 5742SOL    HW229289   0.509   9.373   7.497
 5743SOL     OW29290   0.717   9.856   7.931
 5743SOL    HW129291   0.756   9.926   7.872
 5743SOL    HW229292   0.691   9.776   7.877
 5744SOL     OW29293   1.337   9.764   9.140
 5744SOL    HW129294   1.433   9.768   9.166
 5744SOL    HW229295   1.293   9.688   9.187
 5745SOL     OW29296   0.571   9.575   8.394
 5745SOL    HW129297   0.647   9.640   8.390
 5745SOL    HW229298   0.601   9.486   8.361
 5746SOL     OW29299   1.658   9.521   8.502
 5746SOL    HW129300   1.709   9.593   8.455
 5746SOL    HW229301   1.563   9.548   8.511
 5747SOL     OW29302   1.058   9.550   7.771
 5747SOL    HW129303   1.083   9.644   7.792
 5747SOL    HW229304   1.059   9.496   7.855
 5748SOL     OW29305   0.508   9.908   7.499
 5748SOL    HW129306   0.468   9.987   7.452
 5748SOL    HW229307   0.597   9.887   7.459
 5749SOL     OW29308   1.023   9.864   8.951
 5749SOL    HW129309   1.056   9.781   8.998
 5749SOL    HW229310   1.096   9.932   8.950
 5750SOL     OW29311   1.216   9.540   7.560
 5750SOL    HW129312   1.310   9.510   7.578
 5750SOL    HW229313   1.164   9.540   7.646
 5751SOL     OW29314   0.368   9.745   8.655
 5751SOL    HW129315   0.358   9.658   8.607
 5751SOL    HW229316   0.304   9.812   8.618
 5752SOL     OW29317   1.450  10.025   8.693
 5752SOL    HW129318   1.454  10.119   8.658
 5752SOL    HW229319   1.543   9.994   8.715
 5753SOL     OW29320   0.403   9.517   7.814
 5753SOL    HW129321   0.357   9.557   7.893
 5753SOL    HW229322   0.351   9.536   7.732
 5754SOL     OW29323   1.826   9.762   8.581
 5754SOL    HW129324   1.883   9.844   8.583
 5754SOL    HW229325   1.767   9.761   8.661
 5755SOL     OW29326   0.956   9.728   8.056
 5755SOL    HW129327   1.032   9.756   8.115
 5755SOL    HW229328   0.912   9.808   8.017
 5756SOL     OW29329   1.033   9.614   9.194
 5756SOL    HW129330   1.096   9.619   9.271
 5756SOL    HW229331   0.941   9.592   9.227
 5757SOL     OW29332   1.774   9.861   7.652
 5757SOL    HW129333   1.795   9.780   7.598
 5757SOL    HW229334   1.791   9.842   7.749
 5758SOL     OW29335   0.749   9.266   9.092
 5758SOL    HW129336   0.756   9.172   9.059
 5758SOL    HW229337   0.806   9.276   9.174
 5759SOL     OW29338   1.672   9.867   8.360
 5759SOL    HW129339   1.657   9.958   8.397
 5759SOL    HW229340   1.742   9.820   8.414
 5760SOL     OW29341   1.372   9.239   8.236
 5760SOL    HW129342   1.321   9.323   8.218
 5760SOL    HW229343   1.458   9.241   8.185
 5761SOL     OW29344   1.727   9.445   9.165
 5761SOL    HW129345   1.704   9.466   9.260
 5761SOL    HW229346   1.703   9.350   9.145
 5762SOL     OW29347   0.351   9.437   8.230
 5762SOL    HW129348   0.403   9.477   8.305
 5762SOL    HW229349   0.404   9.364   8.187
 5763SOL     OW29350   0.335   9.485   8.564
 5763SOL    HW129351   0.300   9.392   8.564
 5763SOL    HW229352   0.422   9.488   8.515
 5764SOL     OW29353   1.007  10.361   8.701
 5764SOL    HW129354   1.057  10.276   8.685
 5764SOL    HW229355   0.961  10.388   8.616
 5765SOL     OW29356   1.365   9.652   7.805
 5765SOL    HW129357   1.302   9.710   7.753
 5765SOL    HW229358   1.458   9.686   7.793
 5766SOL     OW29359   0.262   9.853   8.905
 5766SOL    HW129360   0.282   9.758   8.880
 5766SOL    HW229361   0.225   9.856   8.998
 5767SOL     OW29362   0.144   9.508   8.795
 5767SOL    HW129363   0.216   9.518   8.726
 5767SOL    HW229364   0.055   9.507   8.750
 5768SOL     OW29365   1.042  10.129   8.560
 5768SOL    HW129366   1.036  10.115   8.461
 5768SOL    HW229367   0.961  10.090   8.604
 5769SOL     OW29368   1.633   9.663   7.875
 5769SOL    HW129369   1.729   9.634   7.872
 5769SOL    HW229370   1.594   9.641   7.964
 5770SOL     OW29371   0.867   9.604   7.597
 5770SOL    HW129372   0.776   9.617   7.635
 5770SOL    HW229373   0.927   9.564   7.667
 5771SOL     OW29374   0.925  10.234   7.954
 5771SOL    HW129375   0.912  10.145   7.911
 5771SOL    HW229376   0.856  10.248   8.025
 5772SOL     OW29377   0.036   9.539   7.857
 5772SOL    HW129378   0.096   9.490   7.795
 5772SOL    HW229379   0.091   9.591   7.922
 5773SOL     OW29380   0.823  10.004   8.706
 5773SOL    HW129381   0.825  10.090   8.757
 5773SOL    HW229382   0.880   9.936   8.753
 5774SOL     OW29383   0.363   9.768   8.310
 5774SOL    HW129384   0.419   9.761   8.227
 5774SOL    HW229385   0.420   9.746   8.390
 5775SOL     OW29386   0.792   9.288   7.780
 5775SOL    HW129387   0.753   9.277   7.689
 5775SOL    HW229388   0.748   9.364   7.827
 5776SOL     OW29389   1.567   9.552   8.958
 5776SOL    HW129390   1.506   9.630   8.955
 5776SOL    HW229391   1.622   9.556   9.041
 5777SOL     OW29392   1.283   9.498   8.249
 5777SOL    HW129393   1.282   9.576   8.186
 5777SOL    HW229394   1.326   9.525   8.335
 5778SOL     OW29395   1.403   9.304   7.545
 5778SOL    HW129396   1.483   9.244   7.542
 5778SOL    HW229397   1.329   9.257   7.593
 5779SOL     OW29398   0.718   9.535   8.111
 5779SOL    HW129399   0.707   9.477   8.192
 5779SOL    HW229400   0.803   9.587   8.119
 5780SOL     OW29401   1.298   9.886   8.503
 5780SOL    HW129402   1.352   9.926   8.429
 5780SOL    HW229403   1.336   9.915   8.591
 5781SOL     OW29404   1.591   9.292   7.819
 5781SOL    HW129405   1.598   9.246   7.731
 5781SOL    HW229406   1.495   9.302   7.844
 5782SOL     OW29407   1.190   9.830   8.221
 5782SOL    HW129408   1.272   9.807   8.169
 5782SOL    HW229409   1.185   9.771   8.302
 5783SOL     OW29410   1.790   9.857   9.057
 5783SOL    HW129411   1.779   9.943   9.006
 5783SOL    HW229412   1.884   9.848   9.087
 5784SOL     OW29413   1.361   9.630   8.476
 5784SOL    HW129414   1.335   9.727   8.482
 5784SOL    HW229415   1.361   9.590   8.568
 5785SOL     OW29416   1.591   9.762   9.227
 5785SOL    HW129417   1.671   9.787   9.171
 5785SOL    HW229418   1.622   9.727   9.315
 5786SOL     OW29419   1.609   9.518   7.601
 5786SOL    HW129420   1.614   9.560   7.692
 5786SOL    HW229421   1.542   9.443   7.603
 5787SOL     OW29422   0.147   9.528   9.086
 5787SOL    HW129423   0.165   9.517   8.988
 5787SOL    HW229424   0.049   9.524   9.103
 5788SOL     OW29425   0.195   9.598   8.054
 5788SOL    HW129426   0.138   9.653   8.115
 5788SOL    HW229427   0.265   9.550   8.107
 5789SOL     OW29428   0.332   9.789   7.652
 5789SOL    HW129429   0.404   9.818   7.589
 5789SOL    HW229430   0.288   9.869   7.692
 5790SOL     OW29431   1.718   9.451   8.755
 5790SOL    HW129432   1.674   9.499   8.831
 5790SOL    HW229433   1.696   9.497   8.669
 5791SOL     OW29434   0.224   9.516   7.616
 5791SOL    HW129435   0.268   9.485   7.533
 5791SOL    HW229436   0.225   9.616   7.620
 5792SOL     OW29437   0.077   9.768   8.227
 5792SOL    HW129438   0.041   9.861   8.219
 5792SOL    HW229439   0.160   9.769   8.283
 5793SOL     OW29440   1.138   9.947   7.429
 5793SOL    HW129441   1.069  10.004   7.385
 5793SOL    HW229442   1.219   9.941   7.370
 5794SOL     OW29443   0.873   9.866   7.572
 5794SOL    HW129444   0.963   9.867   7.527
 5794SOL    HW229445   0.850   9.772   7.597
 5795SOL     OW29446   1.324   9.383   7.866
 5795SOL    HW129447   1.234   9.367   7.907
 5795SOL    HW229448   1.332   9.479   7.840
 5796SOL     OW29449   1.438   9.783   8.882
 5796SOL    HW129450   1.390   9.806   8.966
 5796SOL    HW229451   1.372   9.753   8.813
 5797SOL     OW29452   0.073   9.298   7.526
 5797SOL    HW129453   0.136   9.221   7.534
 5797SOL    HW229454   0.093   9.366   7.597
 5798SOL     OW29455   0.627   9.886   8.549
 5798SOL    HW129456   0.702   9.929   8.598
 5798SOL    HW229457   0.560   9.851   8.615
 5799SOL     OW29458   1.091   9.458   8.022
 5799SOL    HW129459   1.150   9.518   8.077
 5799SOL    HW229460   1.018   9.422   8.079
 5800SOL     OW29461   0.619   9.335   8.293
 5800SOL    HW129462   0.547   9.268   8.279
 5800SOL    HW229463   0.701   9.289   8.328
 5801SOL     OW29464   0.045  10.202   8.533
 5801SOL    HW129465   0.134  10.180   8.573
 5801SOL    HW229466  -0.010  10.118   8.529
 5802SOL     OW29467   0.273   9.247   7.813
 5802SOL    HW129468   0.311   9.335   7.840
 5802SOL    HW229469   0.196   9.223   7.873
 5803SOL     OW29470   1.792   9.446   8.234
 5803SOL    HW129471   1.747   9.428   8.321
 5803SOL    HW229472   1.890   9.463   8.250
 5804SOL     OW29473   1.178   9.845   7.695
 5804SOL    HW129474   1.230   9.917   7.741
 5804SOL    HW229475   1.191   9.852   7.597
 5805SOL     OW29476   0.296  10.102   8.762
 5805SOL    HW129477   0.260  10.012   8.788
 5805SOL    HW229478   0.257  10.172   8.822
 5806SOL     OW29479   0.127  10.040   8.240
 5806SOL    HW129480   0.222  10.031   8.208
 5806SOL    HW229481   0.093  10.132   8.219
 5807SOL     OW29482   0.464   9.684   9.167
 5807SOL    HW129483   0.500   9.631   9.090
 5807SOL    HW229484   0.525   9.761   9.185
 5808SOL     OW29485   0.528  10.101   7.739
 5808SOL    HW129486   0.478  10.166   7.683
 5808SOL    HW229487   0.470  10.022   7.758
 5809SOL     OW29488   1.301   9.575   8.733
 5809SOL    HW129489   1.372   9.547   8.797
 5809SOL    HW229490   1.248   9.495   8.705
 5810SOL     OW29491   0.002   9.274   7.934
 5810SOL    HW129492  -0.085   9.261   7.887
 5810SOL    HW229493   0.010   9.369   7.964
 5811SOL     OW29494   1.223   9.375   9.175
 5811SOL    HW129495   1.282   9.391   9.255
 5811SOL    HW229496   1.170   9.458   9.156
 5812SOL     OW29497   1.045   9.794   8.491
 5812SOL    HW129498   1.131   9.845   8.490
 5812SOL    HW229499   1.051   9.720   8.558
 5813SOL     OW29500   0.994   9.409   8.280
 5813SOL    HW129501   1.090   9.410   8.308
 5813SOL    HW229502   0.939   9.366   8.352
 5814SOL     OW29503   1.647   9.682   8.160
 5814SOL    HW129504   1.666   9.768   8.207
 5814SOL    HW229505   1.715   9.613   8.188
 5815SOL     OW29506   0.861   9.330   7.498
 5815SOL    HW129507   0.936   9.264   7.510
 5815SOL    HW229508   0.892   9.421   7.526
 5816SOL     OW29509   0.540   9.759   8.110
 5816SOL    HW129510   0.578   9.670   8.136
 5816SOL    HW229511   0.607   9.809   8.055
 5817SOL     OW29512   0.220   9.828   9.171
 5817SOL    HW129513   0.237   9.729   9.176
 5817SOL    HW229514   0.284   9.876   9.232
 5818SOL     OW29515   0.789   9.742   8.390
 5818SOL    HW129516   0.881   9.770   8.417
 5818SOL    HW229517   0.721   9.793   8.444
 5819SOL     OW29518   0.208   9.935   8.531
 5819SOL    HW129519   0.246   9.994   8.602
 5819SOL    HW229520   0.191   9.988   8.449
 5820SOL     OW29521   0.683   9.601   7.846
 5820SOL    HW129522   0.585   9.595   7.826
 5820SOL    HW229523   0.702   9.558   7.934
 5821SOL     OW29524   1.603   9.284   8.105
 5821SOL    HW129525   1.598   9.325   8.014
 5821SOL    HW229526   1.684   9.318   8.152
 5822SOL     OW29527   1.368   9.692   8.087
 5822SOL    HW129528   1.367   9.684   7.988
 5822SOL    HW229529   1.457   9.664   8.122
 5823SOL     OW29530   0.353   9.423   9.246
 5823SOL    HW129531   0.266   9.420   9.197
 5823SOL    HW229532   0.404   9.505   9.218
 5824SOL     OW29533   0.581   9.310   9.372
 5824SOL    HW129534   0.669   9.338   9.333
 5824SOL    HW229535   0.509   9.373   9.342
 5825SOL     OW29536   0.717   9.856   9.776
 5825SOL    HW129537   0.756   9.926   9.717
 5825SOL    HW229538   0.691   9.776   9.722
 5826SOL     OW29539   1.058   9.550   9.616
 5826SOL    HW129540   1.083   9.644   9.637
 5826SOL    HW229541   1.059   9.496   9.700
 5827SOL     OW29542   0.508   9.908   9.344
 5827SOL    HW129543   0.468   9.987   9.297
 5827SOL    HW229544   0.597   9.887   9.304
 5828SOL     OW29545   1.216   9.540   9.405
 5828SOL    HW129546   1.310   9.510   9.423
 5828SOL    HW229547   1.164   9.540   9.491
 5829SOL     OW29548   0.403   9.517   9.659
 5829SOL    HW129549   0.357   9.557   9.738
 5829SOL    HW229550   0.351   9.536   9.577
 5830SOL     OW29551   0.956   9.728   9.901
 5830SOL    HW129552   1.032   9.756   9.960
 5830SOL    HW229553   0.912   9.808   9.862
 5831SOL     OW29554   1.774   9.861   9.497
 5831SOL    HW129555   1.795   9.780   9.443
 5831SOL    HW229556   1.791   9.842   9.594
 5832SOL     OW29557   1.365   9.652   9.650
 5832SOL    HW129558   1.302   9.710   9.598
 5832SOL    HW229559   1.458   9.686   9.638
 5833SOL     OW29560   1.633   9.663   9.720
 5833SOL    HW129561   1.729   9.634   9.717
 5833SOL    HW229562   1.594   9.641   9.809
 5834SOL     OW29563   0.867   9.604   9.442
 5834SOL    HW129564   0.776   9.617   9.480
 5834SOL    HW229565   0.927   9.564   9.512
 5835SOL     OW29566   0.925  10.234   9.799
 5835SOL    HW129567   0.912  10.145   9.756
 5835SOL    HW229568   0.856  10.248   9.870
 5836SOL     OW29569   0.036   9.539   9.702
 5836SOL    HW129570   0.096   9.490   9.640
 5836SOL    HW229571   0.091   9.591   9.767
 5837SOL     OW29572   0.792   9.288   9.625
 5837SOL    HW129573   0.753   9.277   9.534
 5837SOL    HW229574   0.748   9.364   9.672
 5838SOL     OW29575   1.403   9.304   9.390
 5838SOL    HW129576   1.483   9.244   9.387
 5838SOL    HW229577   1.329   9.257   9.438
 5839SOL     OW29578   0.718   9.535   9.956
 5839SOL    HW129579   0.707   9.477  10.037
 5839SOL    HW229580   0.803   9.587   9.964
 5840SOL     OW29581   1.591   9.292   9.664
 5840SOL    HW129582   1.598   9.246   9.576
 5840SOL    HW229583   1.495   9.302   9.689
 5841SOL     OW29584   1.609   9.518   9.446
 5841SOL    HW129585   1.614   9.560   9.537
 5841SOL    HW229586   1.542   9.443   9.448
 5842SOL     OW29587   0.332   9.789   9.497
 5842SOL    HW129588   0.404   9.818   9.434
 5842SOL    HW229589   0.288   9.869   9.537
 5843SOL     OW29590   0.224   9.516   9.461
 5843SOL    HW129591   0.268   9.485   9.378
 5843SOL    HW229592   0.225   9.616   9.465
 5844SOL     OW29593   0.077   9.768  10.072
 5844SOL    HW129594   0.041   9.861  10.064
 5844SOL    HW229595   0.160   9.769  10.128
 5845SOL     OW29596   1.138   9.947   9.274
 5845SOL    HW129597   1.069  10.004   9.230
 5845SOL    HW229598   1.219   9.941   9.215
 5846SOL     OW29599   0.873   9.866   9.417
 5846SOL    HW129600   0.963   9.867   9.372
 5846SOL    HW229601   0.850   9.772   9.442
 5847SOL     OW29602   1.324   9.383   9.711
 5847SOL    HW129603   1.234   9.367   9.752
 5847SOL    HW229604   1.332   9.479   9.685
 5848SOL     OW29605   0.073   9.298   9.371
 5848SOL    HW129606   0.136   9.221   9.379
 5848SOL    HW229607   0.093   9.366   9.442
 5849SOL     OW29608   1.091   9.458   9.867
 5849SOL    HW129609   1.150   9.518   9.922
 5849SOL    HW229610   1.018   9.422   9.924
 5850SOL     OW29611   0.273   9.247   9.658
 5850SOL    HW129612   0.311   9.335   9.685
 5850SOL    HW229613   0.196   9.223   9.718
 5851SOL     OW29614   1.792   9.446  10.079
 5851SOL    HW129615   1.747   9.428  10.166
 5851SOL    HW229616   1.890   9.463  10.095
 5852SOL     OW29617   1.178   9.845   9.540
 5852SOL    HW129618   1.230   9.917   9.586
 5852SOL    HW229619   1.191   9.852   9.442
 5853SOL     OW29620   0.528  10.101   9.584
 5853SOL    HW129621   0.478  10.166   9.528
 5853SOL    HW229622   0.470  10.022   9.603
 5854SOL     OW29623   0.002   9.274   9.779
 5854SOL    HW129624  -0.085   9.261   9.732
 5854SOL    HW229625   0.010   9.369   9.809
 5855SOL     OW29626   1.647   9.682  10.005
 5855SOL    HW129627   1.666   9.768  10.052
 5855SOL    HW229628   1.715   9.613  10.033
 5856SOL     OW29629   0.861   9.330   9.343
 5856SOL    HW129630   0.936   9.264   9.355
 5856SOL    HW229631   0.892   9.421   9.371
 5857SOL     OW29632   0.540   9.759   9.955
 5857SOL    HW129633   0.578   9.670   9.981
 5857SOL    HW229634   0.607   9.809   9.900
 5858SOL     OW29635   0.683   9.601   9.691
 5858SOL    HW129636   0.585   9.595   9.671
 5858SOL    HW229637   0.702   9.558   9.779
 5859SOL     OW29638   1.603   9.284   9.950
 5859SOL    HW129639   1.598   9.325   9.859
 5859SOL    HW229640   1.684   9.318   9.997
 5860SOL     OW29641   1.368   9.692   9.932
 5860SOL    HW129642   1.367   9.684   9.833
 5860SOL    HW229643   1.457   9.664   9.967
 5861SOL     OW29644   2.940   1.481   0.692
 5861SOL    HW129645   3.031   1.515   0.715
 5861SOL    HW229646   2.912   1.519   0.604
 5862SOL     OW29647   3.451   1.277   0.550
 5862SOL    HW129648   3.462   1.361   0.604
 5862SOL    HW229649   3.541   1.240   0.527
 5863SOL     OW29650   3.531   0.559   1.414
 5863SOL    HW129651   3.433   0.551   1.436
 5863SOL    HW229652   3.584   0.548   1.498
 5864SOL     OW29653   2.198   0.196   0.019
 5864SOL    HW129654   2.111   0.193  -0.030
 5864SOL    HW229655   2.249   0.278  -0.009
 5865SOL     OW29656   3.185   1.585   0.794
 5865SOL    HW129657   3.174   1.682   0.817
 5865SOL    HW229658   3.278   1.568   0.764
 5866SOL     OW29659   3.063   0.096   1.352
 5866SOL    HW129660   2.987   0.051   1.399
 5866SOL    HW229661   3.092   0.041   1.274
 5867SOL     OW29662   2.408   1.550   0.423
 5867SOL    HW129663   2.364   1.559   0.512
 5867SOL    HW229664   2.479   1.480   0.427
 5868SOL     OW29665   2.426   0.083   0.145
 5868SOL    HW129666   2.514   0.111   0.106
 5868SOL    HW229667   2.354   0.146   0.115
 5869SOL     OW29668   3.396   1.068   1.528
 5869SOL    HW129669   3.304   1.073   1.490
 5869SOL    HW229670   3.461   1.106   1.462
 5870SOL     OW29671   3.296   1.075   1.209
 5870SOL    HW129672   3.221   1.064   1.274
 5870SOL    HW229673   3.333   1.168   1.215
 5871SOL     OW29674   2.792   1.330   1.509
 5871SOL    HW129675   2.735   1.393   1.455
 5871SOL    HW229676   2.825   1.256   1.450
 5872SOL     OW29677   2.335   1.223   0.718
 5872SOL    HW129678   2.268   1.177   0.777
 5872SOL    HW229679   2.427   1.191   0.741
 5873SOL     OW29680   2.562   0.629   0.549
 5873SOL    HW129681   2.601   0.699   0.490
 5873SOL    HW229682   2.536   0.549   0.495
 5874SOL     OW29683   3.182   0.537   1.758
 5874SOL    HW129684   3.278   0.541   1.784
 5874SOL    HW229685   3.138   0.461   1.805
 5875SOL     OW29686   2.265   1.392   0.202
 5875SOL    HW129687   2.329   1.408   0.127
 5875SOL    HW229688   2.289   1.450   0.280
 5876SOL     OW29689   2.416   0.348   1.012
 5876SOL    HW129690   2.492   0.413   1.008
 5876SOL    HW229691   2.446   0.259   0.979
 5877SOL     OW29692   2.113   0.774   0.430
 5877SOL    HW129693   2.128   0.708   0.504
 5877SOL    HW229694   2.063   0.853   0.465
 5878SOL     OW29695   2.699   1.719   0.607
 5878SOL    HW129696   2.764   1.652   0.571
 5878SOL    HW229697   2.689   1.795   0.543
 5879SOL     OW29698   3.591   1.601   0.349
 5879SOL    HW129699   3.687   1.575   0.342
 5879SOL    HW229700   3.567   1.661   0.273
 5880SOL     OW29701   3.503   0.294   1.120
 5880SOL    HW129702   3.554   0.366   1.073
 5880SOL    HW229703   3.408   0.321   1.129
 5881SOL     OW29704   2.027   1.036   1.574
 5881SOL    HW129705   2.123   1.051   1.592
 5881SOL    HW229706   1.989   0.974   1.643
 5882SOL     OW29707   2.353   0.681   0.117
 5882SOL    HW129708   2.313   0.760   0.070
 5882SOL    HW229709   2.442   0.660   0.077
 5883SOL     OW29710   2.526   1.605   0.815
 5883SOL    HW129711   2.599   1.628   0.751
 5883SOL    HW229712   2.455   1.552   0.769
 5884SOL     OW29713   2.868   0.637   1.569
 5884SOL    HW129714   2.901   0.554   1.616
 5884SOL    HW229715   2.941   0.705   1.568
 5885SOL     OW29716   3.472   1.437   0.791
 5885SOL    HW129717   3.468   1.472   0.884
 5885SOL    HW229718   3.531   1.496   0.735
 5886SOL     OW29719   2.203   1.258   0.467
 5886SOL    HW129720   2.249   1.232   0.552
 5886SOL    HW229721   2.223   1.190   0.396
 5887SOL     OW29722   3.061   0.313   0.178
 5887SOL    HW129723   3.155   0.283   0.196
 5887SOL    HW229724   3.009   0.313   0.264
 5888SOL     OW29725   2.213   0.518   1.273
 5888SOL    HW129726   2.203   0.431   1.225
 5888SOL    HW229727   2.149   0.585   1.236
 5889SOL     OW29728   3.295   0.798   1.311
 5889SOL    HW129729   3.299   0.892   1.276
 5889SOL    HW229730   3.388   0.767   1.333
 5890SOL     OW29731   2.248   0.290   0.432
 5890SOL    HW129732   2.202   0.330   0.511
 5890SOL    HW229733   2.196   0.309   0.350
 5891SOL     OW29734   3.671   0.535   1.199
 5891SOL    HW129735   3.728   0.617   1.201
 5891SOL    HW229736   3.612   0.534   1.279
 5892SOL     OW29737   2.801   0.501   0.674
 5892SOL    HW129738   2.877   0.529   0.733
 5892SOL    HW229739   2.757   0.581   0.635
 5893SOL     OW29740   3.036   0.965   0.191
 5893SOL    HW129741   3.073   0.915   0.269
 5893SOL    HW229742   2.966   0.910   0.146
 5894SOL     OW29743   2.878   0.387   1.812
 5894SOL    HW129744   2.941   0.392   1.889
 5894SOL    HW229745   2.786   0.365   1.845
 5895SOL     OW29746   3.619   0.634   0.270
 5895SOL    HW129747   3.640   0.553   0.216
 5895SOL    HW229748   3.636   0.615   0.367
 5896SOL     OW29749   2.913   1.772   0.178
 5896SOL    HW129750   2.947   1.685   0.143
 5896SOL    HW229751   2.881   1.760   0.272
 5897SOL     OW29752   2.594   0.039   1.710
 5897SOL    HW129753   2.601  -0.055   1.677
 5897SOL    HW229754   2.651   0.049   1.792
 5898SOL     OW29755   3.517   0.640   0.978
 5898SOL    HW129756   3.502   0.731   1.015
 5898SOL    HW229757   3.587   0.593   1.032
 5899SOL     OW29758   2.927   1.306   1.744
 5899SOL    HW129759   2.949   1.216   1.706
 5899SOL    HW229760   2.862   1.353   1.685
 5900SOL     OW29761   2.582   1.148   1.748
 5900SOL    HW129762   2.553   1.225   1.805
 5900SOL    HW229763   2.592   1.067   1.806
 5901SOL     OW29764   3.217   0.012   0.854
 5901SOL    HW129765   3.166   0.096   0.836
 5901SOL    HW229766   3.303   0.014   0.803
 5902SOL     OW29767   3.572   0.218   1.783
 5902SOL    HW129768   3.549   0.239   1.878
 5902SOL    HW229769   3.548   0.123   1.763
 5903SOL     OW29770   1.875   0.622   0.527
 5903SOL    HW129771   1.877   0.573   0.614
 5903SOL    HW229772   1.877   0.721   0.545
 5904SOL     OW29773   2.196   0.210   0.848
 5904SOL    HW129774   2.248   0.250   0.923
 5904SOL    HW229775   2.249   0.137   0.805
 5905SOL     OW29776   2.180   0.258   1.182
 5905SOL    HW129777   2.145   0.165   1.182
 5905SOL    HW229778   2.267   0.261   1.133
 5906SOL     OW29779   2.847   0.880   0.922
 5906SOL    HW129780   2.873   0.960   0.868
 5906SOL    HW229781   2.841   0.800   0.862
 5907SOL     OW29782   2.048   1.507   0.381
 5907SOL    HW129783   2.075   1.413   0.401
 5907SOL    HW229784   2.073   1.529   0.287
 5908SOL     OW29785   3.330   1.376   1.255
 5908SOL    HW129786   3.301   1.413   1.166
 5908SOL    HW229787   3.252   1.376   1.317
 5909SOL     OW29788   2.062   1.650   0.618
 5909SOL    HW129789   1.978   1.701   0.636
 5909SOL    HW229790   2.053   1.599   0.533
 5910SOL     OW29791   3.583   1.447   1.293
 5910SOL    HW129792   3.614   1.461   1.387
 5910SOL    HW229793   3.484   1.434   1.292
 5911SOL     OW29794   2.335   0.947   0.020
 5911SOL    HW129795   2.304   0.981  -0.068
 5911SOL    HW229796   2.339   1.022   0.086
 5912SOL     OW29797   2.852   1.134   1.319
 5912SOL    HW129798   2.902   1.049   1.303
 5912SOL    HW229799   2.806   1.161   1.234
 5913SOL     OW29800   1.939   0.839   0.193
 5913SOL    HW129801   1.999   0.786   0.253
 5913SOL    HW229802   1.845   0.807   0.205
 5914SOL     OW29803   3.459   0.837   0.393
 5914SOL    HW129804   3.527   0.771   0.360
 5914SOL    HW229805   3.474   0.925   0.349
 5915SOL     OW29806   2.707   1.824   1.041
 5915SOL    HW129807   2.753   1.757   0.983
 5915SOL    HW229808   2.633   1.780   1.091
 5916SOL     OW29809   2.614   0.893   0.077
 5916SOL    HW129810   2.643   0.812   0.128
 5916SOL    HW229811   2.514   0.892   0.068
 5917SOL     OW29812   3.210   0.425   0.423
 5917SOL    HW129813   3.147   0.483   0.371
 5917SOL    HW229814   3.303   0.459   0.411
 5918SOL     OW29815   2.107   0.626   1.523
 5918SOL    HW129816   2.127   0.531   1.498
 5918SOL    HW229817   2.070   0.629   1.616
 5919SOL     OW29818   1.989   0.281   1.413
 5919SOL    HW129819   2.061   0.291   1.344
 5919SOL    HW229820   1.900   0.280   1.368
 5920SOL     OW29821   3.478   0.436   0.493
 5920SOL    HW129822   3.574   0.407   0.490
 5920SOL    HW229823   3.439   0.414   0.582
 5921SOL     OW29824   2.762   1.511   0.930
 5921SOL    HW129825   2.820   1.522   0.849
 5921SOL    HW229826   2.668   1.535   0.908
 5922SOL     OW29827   2.823   1.322   0.150
 5922SOL    HW129828   2.876   1.262   0.210
 5922SOL    HW229829   2.862   1.323   0.059
 5923SOL     OW29830   3.574   1.617   0.635
 5923SOL    HW129831   3.541   1.710   0.654
 5923SOL    HW229832   3.572   1.601   0.536
 5924SOL     OW29833   2.989   0.890   0.624
 5924SOL    HW129834   3.054   0.918   0.695
 5924SOL    HW229835   2.910   0.951   0.626
 5925SOL     OW29836   2.737   1.616   1.648
 5925SOL    HW129837   2.725   1.547   1.577
 5925SOL    HW229838   2.700   1.581   1.735
 5926SOL     OW29839   3.181   0.930   0.827
 5926SOL    HW129840   3.202   0.872   0.905
 5926SOL    HW229841   3.190   1.026   0.853
 5927SOL     OW29842   2.137   1.059   0.873
 5927SOL    HW129843   2.060   1.121   0.866
 5927SOL    HW229844   2.174   1.060   0.966
 5928SOL     OW29845   2.770   1.007   0.572
 5928SOL    HW129846   2.757   0.918   0.529
 5928SOL    HW229847   2.701   1.021   0.643
 5929SOL     OW29848   3.074   1.395   1.411
 5929SOL    HW129849   3.107   1.480   1.452
 5929SOL    HW229850   2.975   1.391   1.418
 5930SOL     OW29851   1.881   0.312   0.475
 5930SOL    HW129852   1.941   0.263   0.413
 5930SOL    HW229853   1.936   0.364   0.540
 5931SOL     OW29854   3.504   1.810   0.166
 5931SOL    HW129855   3.594   1.854   0.168
 5931SOL    HW229856   3.503   1.741   0.094
 5932SOL     OW29857   1.905   1.804   1.395
 5932SOL    HW129858   1.913   1.904   1.393
 5932SOL    HW229859   1.881   1.775   1.488
 5933SOL     OW29860   2.686   0.823   0.389
 5933SOL    HW129861   2.597   0.851   0.354
 5933SOL    HW229862   2.727   0.757   0.325
 5934SOL     OW29863   2.208   0.541   0.928
 5934SOL    HW129864   2.264   0.534   0.845
 5934SOL    HW229865   2.265   0.519   1.008
 5935SOL     OW29866   2.205   1.739   0.199
 5935SOL    HW129867   2.297   1.769   0.174
 5935SOL    HW229868   2.180   1.778   0.288
 5936SOL     OW29869   3.181   1.761   1.136
 5936SOL    HW129870   3.200   1.824   1.062
 5936SOL    HW229871   3.189   1.667   1.103
 5937SOL     OW29872   1.886   1.156   0.948
 5937SOL    HW129873   1.796   1.172   0.909
 5937SOL    HW229874   1.884   1.072   1.003
 5938SOL     OW29875   1.882   1.197   0.492
 5938SOL    HW129876   1.960   1.255   0.516
 5938SOL    HW229877   1.901   1.148   0.407
 5939SOL     OW29878   3.412   0.325   1.576
 5939SOL    HW129879   3.351   0.403   1.573
 5939SOL    HW229880   3.467   0.329   1.659
 5940SOL     OW29881   3.128   0.271   0.867
 5940SOL    HW129882   3.127   0.349   0.804
 5940SOL    HW229883   3.171   0.298   0.953
 5941SOL     OW29884   3.248   0.077   0.163
 5941SOL    HW129885   3.328   0.017   0.160
 5941SOL    HW229886   3.174   0.030   0.211
 5942SOL     OW29887   3.461   0.049   1.597
 5942SOL    HW129888   3.487   0.006   1.511
 5942SOL    HW229889   3.411   0.133   1.579
 5943SOL     OW29890   2.563   0.308   0.729
 5943SOL    HW129891   2.552   0.250   0.810
 5943SOL    HW229892   2.648   0.360   0.737
 5944SOL     OW29893   3.143   0.659   1.121
 5944SOL    HW129894   3.197   0.699   1.047
 5944SOL    HW229895   3.181   0.688   1.209
 5945SOL     OW29896   3.436   0.065   0.437
 5945SOL    HW129897   3.443   0.019   0.349
 5945SOL    HW229898   3.340   0.075   0.462
 5946SOL     OW29899   2.412   1.380   1.800
 5946SOL    HW129900   2.373   1.443   1.733
 5946SOL    HW229901   2.495   1.420   1.840
 5947SOL     OW29902   2.288   1.112   1.632
 5947SOL    HW129903   2.307   1.136   1.537
 5947SOL    HW229904   2.281   1.195   1.687
 5948SOL     OW29905   1.949   1.402   1.106
 5948SOL    HW129906   1.918   1.328   1.047
 5948SOL    HW229907   1.881   1.420   1.177
 5949SOL     OW29908   3.035   0.603   0.839
 5949SOL    HW129909   3.117   0.580   0.787
 5949SOL    HW229910   3.030   0.544   0.920
 5950SOL     OW29911   3.635   0.630   1.675
 5950SOL    HW129912   3.624   0.716   1.624
 5950SOL    HW229913   3.729   0.621   1.705
 5951SOL     OW29914   3.206   0.403   1.094
 5951SOL    HW129915   3.180   0.500   1.100
 5951SOL    HW229916   3.206   0.363   1.186
 5952SOL     OW29917   3.436   0.535   1.845
 5952SOL    HW129918   3.516   0.560   1.789
 5952SOL    HW229919   3.467   0.500   1.933
 5953SOL     OW29920   3.147   0.838   0.425
 5953SOL    HW129921   3.093   0.836   0.509
 5953SOL    HW229922   3.224   0.901   0.436
 5954SOL     OW29923   3.444   0.934   0.645
 5954SOL    HW129924   3.458   0.897   0.552
 5954SOL    HW229925   3.355   0.904   0.679
 5955SOL     OW29926   3.600   0.871   1.540
 5955SOL    HW129927   3.502   0.892   1.542
 5955SOL    HW229928   3.649   0.947   1.499
 5956SOL     OW29929   3.454   0.291   0.219
 5956SOL    HW129930   3.459   0.333   0.310
 5956SOL    HW229931   3.387   0.216   0.221
 5957SOL     OW29932   2.601   1.506   1.439
 5957SOL    HW129933   2.538   1.584   1.446
 5957SOL    HW229934   2.569   1.444   1.367
 5958SOL     OW29935   1.992   0.301   1.704
 5958SOL    HW129936   2.010   0.290   1.606
 5958SOL    HW229937   1.894   0.297   1.721
 5959SOL     OW29938   1.872   1.715   1.648
 5959SOL    HW129939   1.944   1.701   1.716
 5959SOL    HW229940   1.783   1.718   1.693
 5960SOL     OW29941   2.040   0.371   0.672
 5960SOL    HW129942   1.983   0.426   0.733
 5960SOL    HW229943   2.110   0.323   0.725
 5961SOL     OW29944   3.212   1.603   1.535
 5961SOL    HW129945   3.165   1.671   1.590
 5961SOL    HW229946   3.279   1.649   1.476
 5962SOL     OW29947   2.177   0.562   0.270
 5962SOL    HW129948   2.249   0.591   0.207
 5962SOL    HW229949   2.133   0.642   0.310
 5963SOL     OW29950   3.563   0.224   1.373
 5963SOL    HW129951   3.519   0.272   1.449
 5963SOL    HW229952   3.541   0.270   1.287
 5964SOL     OW29953   2.292   1.825   0.736
 5964SOL    HW129954   2.216   1.791   0.681
 5964SOL    HW229955   2.378   1.788   0.701
 5965SOL     OW29956   2.217   1.334   1.181
 5965SOL    HW129957   2.229   1.350   1.278
 5965SOL    HW229958   2.130   1.374   1.151
 5966SOL     OW29959   3.101   1.538   1.827
 5966SOL    HW129960   3.060   1.453   1.793
 5966SOL    HW229961   3.081   1.612   1.763
 5967SOL     OW29962   2.591   1.258   0.517
 5967SOL    HW129963   2.634   1.189   0.459
 5967SOL    HW229964   2.555   1.215   0.600
 5968SOL     OW29965   2.223   0.809   0.719
 5968SOL    HW129966   2.215   0.907   0.737
 5968SOL    HW229967   2.307   0.775   0.760
 5969SOL     OW29968   2.069   0.289   0.234
 5969SOL    HW129969   2.113   0.258   0.151
 5969SOL    HW229970   2.070   0.389   0.238
 5970SOL     OW29971   1.922   0.541   0.845
 5970SOL    HW129972   1.886   0.634   0.837
 5970SOL    HW229973   2.005   0.542   0.901
 5971SOL     OW29974   2.357   1.128   0.231
 5971SOL    HW129975   2.457   1.128   0.242
 5971SOL    HW229976   2.326   1.221   0.210
 5972SOL     OW29977   2.983   0.720   0.047
 5972SOL    HW129978   2.914   0.777   0.003
 5972SOL    HW229979   3.064   0.714  -0.012
 5973SOL     OW29980   2.718   0.639   0.190
 5973SOL    HW129981   2.808   0.640   0.145
 5973SOL    HW229982   2.695   0.545   0.215
 5974SOL     OW29983   3.169   0.156   0.484
 5974SOL    HW129984   3.079   0.140   0.525
 5974SOL    HW229985   3.177   0.252   0.458
 5975SOL     OW29986   3.283   0.556   1.500
 5975SOL    HW129987   3.235   0.579   1.584
 5975SOL    HW229988   3.217   0.526   1.431
 5976SOL     OW29989   1.918   0.071   0.144
 5976SOL    HW129990   1.981  -0.006   0.152
 5976SOL    HW229991   1.938   0.139   0.215
 5977SOL     OW29992   2.191   1.046   1.145
 5977SOL    HW129993   2.202   1.001   1.234
 5977SOL    HW229994   2.218   1.142   1.152
 5978SOL     OW29995   3.490   1.058   0.245
 5978SOL    HW129996   3.561   1.128   0.247
 5978SOL    HW229997   3.477   1.028   0.150
 5979SOL     OW29998   3.007   1.049   1.644
 5979SOL    HW129999   2.929   0.995   1.677
 5979SOL    HW230000   3.088   1.027   1.699
 5980SOL     OW30001   2.936   0.231   0.640
 5980SOL    HW130002   2.995   0.291   0.695
 5980SOL    HW230003   2.863   0.195   0.697
 5981SOL     OW30004   3.046   1.763   1.680
 5981SOL    HW130005   2.951   1.761   1.648
 5981SOL    HW230006   3.067   1.854   1.717
 5982SOL     OW30007   2.464   0.108   0.911
 5982SOL    HW130008   2.392   0.041   0.897
 5982SOL    HW230009   2.546   0.062   0.946
 5983SOL     OW30010   2.164   1.773   1.278
 5983SOL    HW130011   2.144   1.755   1.182
 5983SOL    HW230012   2.091   1.735   1.335
 5984SOL     OW30013   2.857   1.237   0.823
 5984SOL    HW130014   2.896   1.280   0.742
 5984SOL    HW230015   2.930   1.220   0.890
 5985SOL     OW30016   2.551   0.965   1.025
 5985SOL    HW130017   2.549   0.881   0.970
 5985SOL    HW230018   2.500   0.951   1.110
 5986SOL     OW30019   1.890   0.975   1.151
 5986SOL    HW130020   1.979   0.953   1.191
 5986SOL    HW230021   1.835   0.891   1.147
 5987SOL     OW30022   2.118   0.020   0.431
 5987SOL    HW130023   2.156   0.108   0.458
 5987SOL    HW230024   2.041  -0.004   0.491
 5988SOL     OW30025   2.534   0.637   1.759
 5988SOL    HW130026   2.486   0.688   1.688
 5988SOL    HW230027   2.627   0.616   1.729
 5989SOL     OW30028   1.940   1.107   0.251
 5989SOL    HW130029   1.930   1.010   0.230
 5989SOL    HW230030   1.993   1.152   0.179
 5990SOL     OW30031   3.637   0.219   0.852
 5990SOL    HW130032   3.592   0.201   0.939
 5990SOL    HW230033   3.735   0.236   0.868
 5991SOL     OW30034   2.685   1.195   1.104
 5991SOL    HW130035   2.636   1.110   1.085
 5991SOL    HW230036   2.755   1.210   1.035
 5992SOL     OW30037   3.023   0.618   0.313
 5992SOL    HW130038   3.075   0.690   0.359
 5992SOL    HW230039   3.036   0.625   0.215
 5993SOL     OW30040   3.384   1.433   1.640
 5993SOL    HW130041   3.369   1.335   1.654
 5993SOL    HW230042   3.301   1.475   1.604
 5994SOL     OW30043   2.141   0.875   1.380
 5994SOL    HW130044   2.105   0.785   1.406
 5994SOL    HW230045   2.102   0.945   1.440
 5995SOL     OW30046   2.643   1.501   0.038
 5995SOL    HW130047   2.618   1.578   0.097
 5995SOL    HW230048   2.707   1.441   0.086
 5996SOL     OW30049   2.461   1.708   1.072
 5996SOL    HW130050   2.481   1.678   0.979
 5996SOL    HW230051   2.386   1.653   1.109
 5997SOL     OW30052   2.604   1.119   0.789
 5997SOL    HW130053   2.693   1.165   0.789
 5997SOL    HW230054   2.597   1.059   0.868
 5998SOL     OW30055   2.782   1.466   0.458
 5998SOL    HW130056   2.832   1.454   0.373
 5998SOL    HW230057   2.728   1.383   0.477
 5999SOL     OW30058   1.972   0.813   0.858
 5999SOL    HW130059   2.067   0.804   0.826
 5999SOL    HW230060   1.938   0.905   0.837
 6000SOL     OW30061   1.909   0.930   1.785
 6000SOL    HW130062   1.824   0.881   1.766
 6000SOL    HW230063   1.936   0.917   1.880
 6001SOL     OW30064   2.806   1.839   1.491
 6001SOL    HW130065   2.778   1.752   1.532
 6001SOL    HW230066   2.750   1.913   1.528
 6002SOL     OW30067   3.035   1.186   1.021
 6002SOL    HW130068   3.019   1.280   1.052
 6002SOL    HW230069   3.038   1.125   1.101
 6003SOL     OW30070   2.309   0.457   1.785
 6003SOL    HW130071   2.345   0.404   1.708
 6003SOL    HW230072   2.370   0.534   1.803
 6004SOL     OW30073   2.373   0.874   0.357
 6004SOL    HW130074   2.323   0.939   0.301
 6004SOL    HW230075   2.315   0.795   0.376
 6005SOL     OW30076   3.454   0.905   1.055
 6005SOL    HW130077   3.473   0.944   0.964
 6005SOL    HW230078   3.408   0.974   1.111
 6006SOL     OW30079   3.146   0.348   1.351
 6006SOL    HW130080   3.217   0.320   1.415
 6006SOL    HW230081   3.093   0.268   1.323
 6007SOL     OW30082   1.847   0.047   0.552
 6007SOL    HW130083   1.760   0.034   0.505
 6007SOL    HW230084   1.855   0.142   0.582
 6008SOL     OW30085   3.068   0.148   1.793
 6008SOL    HW130086   3.127   0.164   1.873
 6008SOL    HW230087   3.015   0.231   1.774
 6009SOL     OW30088   2.284   1.567   1.618
 6009SOL    HW130089   2.226   1.632   1.667
 6009SOL    HW230090   2.346   1.617   1.558
 6010SOL     OW30091   3.640   1.454   1.559
 6010SOL    HW130092   3.668   1.547   1.581
 6010SOL    HW230093   3.547   1.438   1.592
 6011SOL     OW30094   2.890   0.567   1.109
 6011SOL    HW130095   2.976   0.618   1.108
 6011SOL    HW230096   2.896   0.493   1.176
 6012SOL     OW30097   2.294   1.513   0.681
 6012SOL    HW130098   2.292   1.414   0.694
 6012SOL    HW230099   2.203   1.546   0.658
 6013SOL     OW30100   2.935   1.630   1.269
 6013SOL    HW130101   2.861   1.694   1.287
 6013SOL    HW230102   3.014   1.679   1.231
 6014SOL     OW30103   2.144   1.760   1.768
 6014SOL    HW130104   2.187   1.844   1.734
 6014SOL    HW230105   2.169   1.747   1.864
 6015SOL     OW30106   2.004   1.296   1.639
 6015SOL    HW130107   1.983   1.201   1.612
 6015SOL    HW230108   1.935   1.357   1.601
 6016SOL     OW30109   2.093   1.661   1.043
 6016SOL    HW130110   2.035   1.581   1.057
 6016SOL    HW230111   2.117   1.668   0.946
 6017SOL     OW30112   2.839   0.182   0.898
 6017SOL    HW130113   2.935   0.183   0.926
 6017SOL    HW230114   2.784   0.139   0.970
 6018SOL     OW30115   2.901   1.188   0.414
 6018SOL    HW130116   2.981   1.224   0.462
 6018SOL    HW230117   2.859   1.115   0.470
 6019SOL     OW30118   3.492   0.455   0.778
 6019SOL    HW130119   3.511   0.541   0.825
 6019SOL    HW230120   3.560   0.386   0.806
 6020SOL     OW30121   2.635   1.127   0.264
 6020SOL    HW130122   2.707   1.186   0.229
 6020SOL    HW230123   2.675   1.043   0.300
 6021SOL     OW30124   2.385   0.532   0.728
 6021SOL    HW130125   2.423   0.443   0.754
 6021SOL    HW230126   2.452   0.582   0.673
 6022SOL     OW30127   3.595   1.133   1.351
 6022SOL    HW130128   3.609   1.231   1.365
 6022SOL    HW230129   3.652   1.102   1.275
 6023SOL     OW30130   2.078   1.242   0.043
 6023SOL    HW130131   2.070   1.254  -0.056
 6023SOL    HW230132   2.137   1.313   0.081
 6024SOL     OW30133   2.505   1.681   0.203
 6024SOL    HW130134   2.480   1.776   0.187
 6024SOL    HW230135   2.472   1.653   0.293
 6025SOL     OW30136   3.155   1.104   1.427
 6025SOL    HW130137   3.099   1.063   1.498
 6025SOL    HW230138   3.135   1.202   1.421
 6026SOL     OW30139   2.422   1.720   1.427
 6026SOL    HW130140   2.471   1.800   1.391
 6026SOL    HW230141   2.330   1.718   1.388
 6027SOL     OW30142   2.065   0.601   1.789
 6027SOL    HW130143   2.082   0.502   1.794
 6027SOL    HW230144   2.129   0.649   1.850
 6028SOL     OW30145   3.504   1.562   1.028
 6028SOL    HW130146   3.476   1.655   1.052
 6028SOL    HW230147   3.554   1.521   1.104
 6029SOL     OW30148   1.900   0.935   0.589
 6029SOL    HW130149   1.907   1.034   0.576
 6029SOL    HW230150   1.809   0.912   0.623
 6030SOL     OW30151   3.476   1.109   0.839
 6030SOL    HW130152   3.438   1.198   0.812
 6030SOL    HW230153   3.476   1.047   0.761
 6031SOL     OW30154   2.634   0.515   1.008
 6031SOL    HW130155   2.726   0.543   1.035
 6031SOL    HW230156   2.566   0.566   1.062
 6032SOL     OW30157   2.487   1.366   1.235
 6032SOL    HW130158   2.400   1.365   1.186
 6032SOL    HW230159   2.553   1.306   1.188
 6033SOL     OW30160   2.053   0.708   1.149
 6033SOL    HW130161   2.091   0.767   1.220
 6033SOL    HW230162   2.036   0.761   1.067
 6034SOL     OW30163   2.224   1.354   1.447
 6034SOL    HW130164   2.243   1.442   1.491
 6034SOL    HW230165   2.129   1.328   1.465
 6035SOL     OW30166   3.467   1.670   1.795
 6035SOL    HW130167   3.436   1.592   1.740
 6035SOL    HW230168   3.436   1.755   1.753
 6036SOL     OW30169   3.175   1.208   0.516
 6036SOL    HW130170   3.274   1.212   0.532
 6036SOL    HW230171   3.158   1.194   0.418
 6037SOL     OW30172   3.448   0.057   0.723
 6037SOL    HW130173   3.443   0.098   0.632
 6037SOL    HW230174   3.529   0.091   0.770
 6038SOL     OW30175   3.051   0.813   1.416
 6038SOL    HW130176   3.150   0.822   1.406
 6038SOL    HW230177   3.007   0.815   1.326
 6039SOL     OW30178   2.545   0.773   0.818
 6039SOL    HW130179   2.567   0.695   0.876
 6039SOL    HW230180   2.554   0.747   0.722
 6040SOL     OW30181   3.210   1.480   1.030
 6040SOL    HW130182   3.124   1.437   1.059
 6040SOL    HW230183   3.199   1.520   0.939
 6041SOL     OW30184   3.213   0.465   0.705
 6041SOL    HW130185   3.212   0.457   0.606
 6041SOL    HW230186   3.302   0.437   0.740
 6042SOL     OW30187   2.940   1.481   2.537
 6042SOL    HW130188   3.031   1.515   2.560
 6042SOL    HW230189   2.912   1.519   2.449
 6043SOL     OW30190   3.451   1.277   2.395
 6043SOL    HW130191   3.462   1.361   2.449
 6043SOL    HW230192   3.541   1.240   2.372
 6044SOL     OW30193   3.531   0.559   3.259
 6044SOL    HW130194   3.433   0.551   3.281
 6044SOL    HW230195   3.584   0.548   3.343
 6045SOL     OW30196   2.198   0.196   1.864
 6045SOL    HW130197   2.111   0.193   1.815
 6045SOL    HW230198   2.249   0.278   1.836
 6046SOL     OW30199   3.185   1.585   2.639
 6046SOL    HW130200   3.174   1.682   2.662
 6046SOL    HW230201   3.278   1.568   2.609
 6047SOL     OW30202   3.063   0.096   3.197
 6047SOL    HW130203   2.987   0.051   3.244
 6047SOL    HW230204   3.092   0.041   3.119
 6048SOL     OW30205   2.801   0.876   3.574
 6048SOL    HW130206   2.766   0.851   3.484
 6048SOL    HW230207   2.725   0.897   3.635
 6049SOL     OW30208   2.408   1.550   2.268
 6049SOL    HW130209   2.364   1.559   2.357
 6049SOL    HW230210   2.479   1.480   2.272
 6050SOL     OW30211   2.426   0.083   1.990
 6050SOL    HW130212   2.514   0.111   1.951
 6050SOL    HW230213   2.354   0.146   1.960
 6051SOL     OW30214   3.396   1.068   3.373
 6051SOL    HW130215   3.304   1.073   3.335
 6051SOL    HW230216   3.461   1.106   3.307
 6052SOL     OW30217   3.296   1.075   3.054
 6052SOL    HW130218   3.221   1.064   3.119
 6052SOL    HW230219   3.333   1.168   3.060
 6053SOL     OW30220   2.792   1.330   3.354
 6053SOL    HW130221   2.735   1.393   3.300
 6053SOL    HW230222   2.825   1.256   3.295
 6054SOL     OW30223   2.335   1.223   2.563
 6054SOL    HW130224   2.268   1.177   2.622
 6054SOL    HW230225   2.427   1.191   2.586
 6055SOL     OW30226   3.182   0.537   3.603
 6055SOL    HW130227   3.278   0.541   3.629
 6055SOL    HW230228   3.138   0.461   3.650
 6056SOL     OW30229   2.265   1.392   2.047
 6056SOL    HW130230   2.329   1.408   1.972
 6056SOL    HW230231   2.289   1.450   2.125
 6057SOL     OW30232   2.416   0.348   2.857
 6057SOL    HW130233   2.492   0.413   2.853
 6057SOL    HW230234   2.446   0.259   2.824
 6058SOL     OW30235   2.699   1.719   2.452
 6058SOL    HW130236   2.764   1.652   2.416
 6058SOL    HW230237   2.689   1.795   2.388
 6059SOL     OW30238   3.591   1.601   2.194
 6059SOL    HW130239   3.687   1.575   2.187
 6059SOL    HW230240   3.567   1.661   2.118
 6060SOL     OW30241   3.503   0.294   2.965
 6060SOL    HW130242   3.554   0.366   2.918
 6060SOL    HW230243   3.408   0.321   2.974
 6061SOL     OW30244   2.903   0.323   2.234
 6061SOL    HW130245   2.928   0.417   2.255
 6061SOL    HW230246   2.904   0.269   2.318
 6062SOL     OW30247   2.353   0.681   1.962
 6062SOL    HW130248   2.313   0.760   1.915
 6062SOL    HW230249   2.442   0.660   1.922
 6063SOL     OW30250   2.526   1.605   2.660
 6063SOL    HW130251   2.599   1.628   2.596
 6063SOL    HW230252   2.455   1.552   2.614
 6064SOL     OW30253   2.868   0.637   3.414
 6064SOL    HW130254   2.901   0.554   3.461
 6064SOL    HW230255   2.941   0.705   3.413
 6065SOL     OW30256   3.472   1.437   2.636
 6065SOL    HW130257   3.468   1.472   2.729
 6065SOL    HW230258   3.531   1.496   2.580
 6066SOL     OW30259   2.203   1.258   2.312
 6066SOL    HW130260   2.249   1.232   2.397
 6066SOL    HW230261   2.223   1.190   2.241
 6067SOL     OW30262   3.061   0.313   2.023
 6067SOL    HW130263   3.155   0.283   2.041
 6067SOL    HW230264   3.009   0.313   2.109
 6068SOL     OW30265   3.295   0.798   3.156
 6068SOL    HW130266   3.299   0.892   3.121
 6068SOL    HW230267   3.388   0.767   3.178
 6069SOL     OW30268   2.248   0.290   2.277
 6069SOL    HW130269   2.202   0.330   2.356
 6069SOL    HW230270   2.196   0.309   2.195
 6070SOL     OW30271   3.376   1.817   3.189
 6070SOL    HW130272   3.319   1.768   3.123
 6070SOL    HW230273   3.462   1.844   3.146
 6071SOL     OW30274   3.671   0.535   3.044
 6071SOL    HW130275   3.728   0.617   3.046
 6071SOL    HW230276   3.612   0.534   3.124
 6072SOL     OW30277   3.688   1.761   2.957
 6072SOL    HW130278   3.734   1.771   3.045
 6072SOL    HW230279   3.755   1.764   2.884
 6073SOL     OW30280   2.801   0.501   2.519
 6073SOL    HW130281   2.877   0.529   2.578
 6073SOL    HW230282   2.757   0.581   2.480
 6074SOL     OW30283   3.036   0.965   2.036
 6074SOL    HW130284   3.073   0.915   2.114
 6074SOL    HW230285   2.966   0.910   1.991
 6075SOL     OW30286   2.878   0.387   3.657
 6075SOL    HW130287   2.941   0.392   3.734
 6075SOL    HW230288   2.786   0.365   3.690
 6076SOL     OW30289   3.619   0.634   2.115
 6076SOL    HW130290   3.640   0.553   2.061
 6076SOL    HW230291   3.636   0.615   2.212
 6077SOL     OW30292   2.913   1.772   2.023
 6077SOL    HW130293   2.947   1.685   1.988
 6077SOL    HW230294   2.881   1.760   2.117
 6078SOL     OW30295   2.594   0.039   3.555
 6078SOL    HW130296   2.601  -0.055   3.522
 6078SOL    HW230297   2.651   0.049   3.637
 6079SOL     OW30298   3.517   0.640   2.823
 6079SOL    HW130299   3.502   0.731   2.860
 6079SOL    HW230300   3.587   0.593   2.877
 6080SOL     OW30301   2.927   1.306   3.589
 6080SOL    HW130302   2.949   1.216   3.551
 6080SOL    HW230303   2.862   1.353   3.530
 6081SOL     OW30304   2.582   1.148   3.593
 6081SOL    HW130305   2.553   1.225   3.650
 6081SOL    HW230306   2.592   1.067   3.651
 6082SOL     OW30307   3.217   0.012   2.699
 6082SOL    HW130308   3.166   0.096   2.681
 6082SOL    HW230309   3.303   0.014   2.648
 6083SOL     OW30310   3.572   0.218   3.628
 6083SOL    HW130311   3.549   0.239   3.723
 6083SOL    HW230312   3.548   0.123   3.608
 6084SOL     OW30313   1.875   0.622   2.372
 6084SOL    HW130314   1.877   0.573   2.459
 6084SOL    HW230315   1.877   0.721   2.390
 6085SOL     OW30316   2.196   0.210   2.693
 6085SOL    HW130317   2.248   0.250   2.768
 6085SOL    HW230318   2.249   0.137   2.650
 6086SOL     OW30319   2.180   0.258   3.027
 6086SOL    HW130320   2.145   0.165   3.027
 6086SOL    HW230321   2.267   0.261   2.978
 6087SOL     OW30322   2.847   0.880   2.767
 6087SOL    HW130323   2.873   0.960   2.713
 6087SOL    HW230324   2.841   0.800   2.707
 6088SOL     OW30325   2.048   1.507   2.226
 6088SOL    HW130326   2.075   1.413   2.246
 6088SOL    HW230327   2.073   1.529   2.132
 6089SOL     OW30328   3.330   1.376   3.100
 6089SOL    HW130329   3.301   1.413   3.011
 6089SOL    HW230330   3.252   1.376   3.162
 6090SOL     OW30331   2.062   1.650   2.463
 6090SOL    HW130332   1.978   1.701   2.481
 6090SOL    HW230333   2.053   1.599   2.378
 6091SOL     OW30334   3.583   1.447   3.138
 6091SOL    HW130335   3.614   1.461   3.232
 6091SOL    HW230336   3.484   1.434   3.137
 6092SOL     OW30337   2.335   0.947   1.865
 6092SOL    HW130338   2.304   0.981   1.777
 6092SOL    HW230339   2.339   1.022   1.931
 6093SOL     OW30340   2.852   1.134   3.164
 6093SOL    HW130341   2.902   1.049   3.148
 6093SOL    HW230342   2.806   1.161   3.079
 6094SOL     OW30343   1.939   0.839   2.038
 6094SOL    HW130344   1.999   0.786   2.098
 6094SOL    HW230345   1.845   0.807   2.050
 6095SOL     OW30346   3.459   0.837   2.238
 6095SOL    HW130347   3.527   0.771   2.205
 6095SOL    HW230348   3.474   0.925   2.194
 6096SOL     OW30349   2.707   1.824   2.886
 6096SOL    HW130350   2.753   1.757   2.828
 6096SOL    HW230351   2.633   1.780   2.936
 6097SOL     OW30352   2.614   0.893   1.922
 6097SOL    HW130353   2.643   0.812   1.973
 6097SOL    HW230354   2.514   0.892   1.913
 6098SOL     OW30355   3.210   0.425   2.268
 6098SOL    HW130356   3.147   0.483   2.216
 6098SOL    HW230357   3.303   0.459   2.256
 6099SOL     OW30358   2.887   0.902   3.023
 6099SOL    HW130359   2.881   0.888   2.924
 6099SOL    HW230360   2.806   0.863   3.067
 6100SOL     OW30361   3.478   0.436   2.338
 6100SOL    HW130362   3.574   0.407   2.335
 6100SOL    HW230363   3.439   0.414   2.427
 6101SOL     OW30364   2.762   1.511   2.775
 6101SOL    HW130365   2.820   1.522   2.694
 6101SOL    HW230366   2.668   1.535   2.753
 6102SOL     OW30367   2.712   0.377   2.060
 6102SOL    HW130368   2.621   0.390   2.098
 6102SOL    HW230369   2.772   0.337   2.130
 6103SOL     OW30370   2.823   1.322   1.995
 6103SOL    HW130371   2.876   1.262   2.055
 6103SOL    HW230372   2.862   1.323   1.904
 6104SOL     OW30373   3.574   1.617   2.480
 6104SOL    HW130374   3.541   1.710   2.499
 6104SOL    HW230375   3.572   1.601   2.381
 6105SOL     OW30376   2.989   0.890   2.469
 6105SOL    HW130377   3.054   0.918   2.540
 6105SOL    HW230378   2.910   0.951   2.471
 6106SOL     OW30379   2.737   1.616   3.493
 6106SOL    HW130380   2.725   1.547   3.422
 6106SOL    HW230381   2.700   1.581   3.580
 6107SOL     OW30382   3.181   0.930   2.672
 6107SOL    HW130383   3.202   0.872   2.750
 6107SOL    HW230384   3.190   1.026   2.698
 6108SOL     OW30385   2.770   1.007   2.417
 6108SOL    HW130386   2.757   0.918   2.374
 6108SOL    HW230387   2.701   1.021   2.488
 6109SOL     OW30388   3.074   1.395   3.256
 6109SOL    HW130389   3.107   1.480   3.297
 6109SOL    HW230390   2.975   1.391   3.263
 6110SOL     OW30391   1.881   0.312   2.320
 6110SOL    HW130392   1.941   0.263   2.258
 6110SOL    HW230393   1.936   0.364   2.385
 6111SOL     OW30394   3.504   1.810   2.011
 6111SOL    HW130395   3.594   1.854   2.013
 6111SOL    HW230396   3.503   1.741   1.939
 6112SOL     OW30397   2.668   0.777   3.169
 6112SOL    HW130398   2.670   0.863   3.220
 6112SOL    HW230399   2.725   0.709   3.216
 6113SOL     OW30400   1.905   1.804   3.240
 6113SOL    HW130401   1.913   1.904   3.238
 6113SOL    HW230402   1.881   1.775   3.333
 6114SOL     OW30403   2.686   0.823   2.234
 6114SOL    HW130404   2.597   0.851   2.199
 6114SOL    HW230405   2.727   0.757   2.170
 6115SOL     OW30406   2.208   0.541   2.773
 6115SOL    HW130407   2.264   0.534   2.690
 6115SOL    HW230408   2.265   0.519   2.853
 6116SOL     OW30409   2.205   1.739   2.044
 6116SOL    HW130410   2.297   1.769   2.019
 6116SOL    HW230411   2.180   1.778   2.133
 6117SOL     OW30412   3.181   1.761   2.981
 6117SOL    HW130413   3.200   1.824   2.907
 6117SOL    HW230414   3.189   1.667   2.948
 6118SOL     OW30415   2.637   0.061   2.243
 6118SOL    HW130416   2.598   0.050   2.152
 6118SOL    HW230417   2.593   0.137   2.290
 6119SOL     OW30418   1.882   1.197   2.337
 6119SOL    HW130419   1.960   1.255   2.361
 6119SOL    HW230420   1.901   1.148   2.252
 6120SOL     OW30421   3.412   0.325   3.421
 6120SOL    HW130422   3.351   0.403   3.418
 6120SOL    HW230423   3.467   0.329   3.504
 6121SOL     OW30424   3.128   0.271   2.712
 6121SOL    HW130425   3.127   0.349   2.649
 6121SOL    HW230426   3.171   0.298   2.798
 6122SOL     OW30427   3.248   0.077   2.008
 6122SOL    HW130428   3.328   0.017   2.005
 6122SOL    HW230429   3.174   0.030   2.056
 6123SOL     OW30430   3.461   0.049   3.442
 6123SOL    HW130431   3.487   0.006   3.356
 6123SOL    HW230432   3.411   0.133   3.424
 6124SOL     OW30433   2.563   0.308   2.574
 6124SOL    HW130434   2.552   0.250   2.655
 6124SOL    HW230435   2.648   0.360   2.582
 6125SOL     OW30436   3.143   0.659   2.966
 6125SOL    HW130437   3.197   0.699   2.892
 6125SOL    HW230438   3.181   0.688   3.054
 6126SOL     OW30439   3.436   0.065   2.282
 6126SOL    HW130440   3.443   0.019   2.194
 6126SOL    HW230441   3.340   0.075   2.307
 6127SOL     OW30442   2.412   1.380   3.645
 6127SOL    HW130443   2.373   1.443   3.578
 6127SOL    HW230444   2.495   1.420   3.685
 6128SOL     OW30445   1.949   1.402   2.951
 6128SOL    HW130446   1.918   1.328   2.892
 6128SOL    HW230447   1.881   1.420   3.022
 6129SOL     OW30448   3.035   0.603   2.684
 6129SOL    HW130449   3.117   0.580   2.632
 6129SOL    HW230450   3.030   0.544   2.765
 6130SOL     OW30451   3.206   0.403   2.939
 6130SOL    HW130452   3.180   0.500   2.945
 6130SOL    HW230453   3.206   0.363   3.031
 6131SOL     OW30454   3.436   0.535   3.690
 6131SOL    HW130455   3.516   0.560   3.634
 6131SOL    HW230456   3.467   0.500   3.778
 6132SOL     OW30457   3.147   0.838   2.270
 6132SOL    HW130458   3.093   0.836   2.354
 6132SOL    HW230459   3.224   0.901   2.281
 6133SOL     OW30460   3.444   0.934   2.490
 6133SOL    HW130461   3.458   0.897   2.397
 6133SOL    HW230462   3.355   0.904   2.524
 6134SOL     OW30463   3.600   0.871   3.385
 6134SOL    HW130464   3.502   0.892   3.387
 6134SOL    HW230465   3.649   0.947   3.344
 6135SOL     OW30466   3.454   0.291   2.064
 6135SOL    HW130467   3.459   0.333   2.155
 6135SOL    HW230468   3.387   0.216   2.066
 6136SOL     OW30469   2.601   1.506   3.284
 6136SOL    HW130470   2.538   1.584   3.291
 6136SOL    HW230471   2.569   1.444   3.212
 6137SOL     OW30472   1.872   1.715   3.493
 6137SOL    HW130473   1.944   1.701   3.561
 6137SOL    HW230474   1.783   1.718   3.538
 6138SOL     OW30475   2.040   0.371   2.517
 6138SOL    HW130476   1.983   0.426   2.578
 6138SOL    HW230477   2.110   0.323   2.570
 6139SOL     OW30478   3.212   1.603   3.380
 6139SOL    HW130479   3.165   1.671   3.435
 6139SOL    HW230480   3.279   1.649   3.321
 6140SOL     OW30481   2.177   0.562   2.115
 6140SOL    HW130482   2.249   0.591   2.052
 6140SOL    HW230483   2.133   0.642   2.155
 6141SOL     OW30484   3.563   0.224   3.218
 6141SOL    HW130485   3.519   0.272   3.294
 6141SOL    HW230486   3.541   0.270   3.132
 6142SOL     OW30487   2.292   1.825   2.581
 6142SOL    HW130488   2.216   1.791   2.526
 6142SOL    HW230489   2.378   1.788   2.546
 6143SOL     OW30490   3.101   1.538   3.672
 6143SOL    HW130491   3.060   1.453   3.638
 6143SOL    HW230492   3.081   1.612   3.608
 6144SOL     OW30493   2.591   1.258   2.362
 6144SOL    HW130494   2.634   1.189   2.304
 6144SOL    HW230495   2.555   1.215   2.445
 6145SOL     OW30496   2.069   0.289   2.079
 6145SOL    HW130497   2.113   0.258   1.996
 6145SOL    HW230498   2.070   0.389   2.083
 6146SOL     OW30499   1.922   0.541   2.690
 6146SOL    HW130500   1.886   0.634   2.682
 6146SOL    HW230501   2.005   0.542   2.746
 6147SOL     OW30502   2.357   1.128   2.076
 6147SOL    HW130503   2.457   1.128   2.087
 6147SOL    HW230504   2.326   1.221   2.055
 6148SOL     OW30505   2.983   0.720   1.892
 6148SOL    HW130506   2.914   0.777   1.848
 6148SOL    HW230507   3.064   0.714   1.833
 6149SOL     OW30508   2.718   0.639   2.035
 6149SOL    HW130509   2.808   0.640   1.990
 6149SOL    HW230510   2.695   0.545   2.060
 6150SOL     OW30511   3.169   0.156   2.329
 6150SOL    HW130512   3.079   0.140   2.370
 6150SOL    HW230513   3.177   0.252   2.303
 6151SOL     OW30514   3.283   0.556   3.345
 6151SOL    HW130515   3.235   0.579   3.429
 6151SOL    HW230516   3.217   0.526   3.276
 6152SOL     OW30517   1.918   0.071   1.989
 6152SOL    HW130518   1.981  -0.006   1.997
 6152SOL    HW230519   1.938   0.139   2.060
 6153SOL     OW30520   3.490   1.058   2.090
 6153SOL    HW130521   3.561   1.128   2.092
 6153SOL    HW230522   3.477   1.028   1.995
 6154SOL     OW30523   2.472   0.659   3.012
 6154SOL    HW130524   2.547   0.702   3.061
 6154SOL    HW230525   2.405   0.624   3.078
 6155SOL     OW30526   2.615   1.028   3.329
 6155SOL    HW130527   2.684   1.080   3.279
 6155SOL    HW230528   2.610   1.061   3.424
 6156SOL     OW30529   3.007   1.049   3.489
 6156SOL    HW130530   2.929   0.995   3.522
 6156SOL    HW230531   3.088   1.027   3.544
 6157SOL     OW30532   2.936   0.231   2.485
 6157SOL    HW130533   2.995   0.291   2.540
 6157SOL    HW230534   2.863   0.195   2.542
 6158SOL     OW30535   3.046   1.763   3.525
 6158SOL    HW130536   2.951   1.761   3.493
 6158SOL    HW230537   3.067   1.854   3.562
 6159SOL     OW30538   2.464   0.108   2.756
 6159SOL    HW130539   2.392   0.041   2.742
 6159SOL    HW230540   2.546   0.062   2.791
 6160SOL     OW30541   2.164   1.773   3.123
 6160SOL    HW130542   2.144   1.755   3.027
 6160SOL    HW230543   2.091   1.735   3.180
 6161SOL     OW30544   2.857   1.237   2.668
 6161SOL    HW130545   2.896   1.280   2.587
 6161SOL    HW230546   2.930   1.220   2.735
 6162SOL     OW30547   2.551   0.965   2.870
 6162SOL    HW130548   2.549   0.881   2.815
 6162SOL    HW230549   2.500   0.951   2.955
 6163SOL     OW30550   2.118   0.020   2.276
 6163SOL    HW130551   2.156   0.108   2.303
 6163SOL    HW230552   2.041  -0.004   2.336
 6164SOL     OW30553   2.534   0.637   3.604
 6164SOL    HW130554   2.486   0.688   3.533
 6164SOL    HW230555   2.627   0.616   3.574
 6165SOL     OW30556   1.940   1.107   2.096
 6165SOL    HW130557   1.930   1.010   2.075
 6165SOL    HW230558   1.993   1.152   2.024
 6166SOL     OW30559   3.637   0.219   2.697
 6166SOL    HW130560   3.592   0.201   2.784
 6166SOL    HW230561   3.735   0.236   2.713
 6167SOL     OW30562   2.685   1.195   2.949
 6167SOL    HW130563   2.636   1.110   2.930
 6167SOL    HW230564   2.755   1.210   2.880
 6168SOL     OW30565   3.023   0.618   2.158
 6168SOL    HW130566   3.075   0.690   2.204
 6168SOL    HW230567   3.036   0.625   2.060
 6169SOL     OW30568   3.384   1.433   3.485
 6169SOL    HW130569   3.369   1.335   3.499
 6169SOL    HW230570   3.301   1.475   3.449
 6170SOL     OW30571   2.643   1.501   1.883
 6170SOL    HW130572   2.618   1.578   1.942
 6170SOL    HW230573   2.707   1.441   1.931
 6171SOL     OW30574   2.461   1.708   2.917
 6171SOL    HW130575   2.481   1.678   2.824
 6171SOL    HW230576   2.386   1.653   2.954
 6172SOL     OW30577   2.604   1.119   2.634
 6172SOL    HW130578   2.693   1.165   2.634
 6172SOL    HW230579   2.597   1.059   2.713
 6173SOL     OW30580   2.782   1.466   2.303
 6173SOL    HW130581   2.832   1.454   2.218
 6173SOL    HW230582   2.728   1.383   2.322
 6174SOL     OW30583   1.972   0.813   2.703
 6174SOL    HW130584   2.067   0.804   2.671
 6174SOL    HW230585   1.938   0.905   2.682
 6175SOL     OW30586   1.909   0.930   3.630
 6175SOL    HW130587   1.824   0.881   3.611
 6175SOL    HW230588   1.936   0.917   3.725
 6176SOL     OW30589   2.806   1.839   3.336
 6176SOL    HW130590   2.778   1.752   3.377
 6176SOL    HW230591   2.750   1.913   3.373
 6177SOL     OW30592   3.035   1.186   2.866
 6177SOL    HW130593   3.019   1.280   2.897
 6177SOL    HW230594   3.038   1.125   2.946
 6178SOL     OW30595   2.309   0.457   3.630
 6178SOL    HW130596   2.345   0.404   3.553
 6178SOL    HW230597   2.370   0.534   3.648
 6179SOL     OW30598   3.454   0.905   2.900
 6179SOL    HW130599   3.473   0.944   2.809
 6179SOL    HW230600   3.408   0.974   2.956
 6180SOL     OW30601   3.146   0.348   3.196
 6180SOL    HW130602   3.217   0.320   3.260
 6180SOL    HW230603   3.093   0.268   3.168
 6181SOL     OW30604   1.847   0.047   2.397
 6181SOL    HW130605   1.760   0.034   2.350
 6181SOL    HW230606   1.855   0.142   2.427
 6182SOL     OW30607   3.068   0.148   3.638
 6182SOL    HW130608   3.127   0.164   3.718
 6182SOL    HW230609   3.015   0.231   3.619
 6183SOL     OW30610   2.284   1.567   3.463
 6183SOL    HW130611   2.226   1.632   3.512
 6183SOL    HW230612   2.346   1.617   3.403
 6184SOL     OW30613   3.640   1.454   3.404
 6184SOL    HW130614   3.668   1.547   3.426
 6184SOL    HW230615   3.547   1.438   3.437
 6185SOL     OW30616   2.890   0.567   2.954
 6185SOL    HW130617   2.976   0.618   2.953
 6185SOL    HW230618   2.896   0.493   3.021
 6186SOL     OW30619   2.294   1.513   2.526
 6186SOL    HW130620   2.292   1.414   2.539
 6186SOL    HW230621   2.203   1.546   2.503
 6187SOL     OW30622   2.935   1.630   3.114
 6187SOL    HW130623   2.861   1.694   3.132
 6187SOL    HW230624   3.014   1.679   3.076
 6188SOL     OW30625   2.144   1.760   3.613
 6188SOL    HW130626   2.187   1.844   3.579
 6188SOL    HW230627   2.169   1.747   3.709
 6189SOL     OW30628   2.004   1.296   3.484
 6189SOL    HW130629   1.983   1.201   3.457
 6189SOL    HW230630   1.935   1.357   3.446
 6190SOL     OW30631   2.093   1.661   2.888
 6190SOL    HW130632   2.035   1.581   2.902
 6190SOL    HW230633   2.117   1.668   2.791
 6191SOL     OW30634   2.839   0.182   2.743
 6191SOL    HW130635   2.935   0.183   2.771
 6191SOL    HW230636   2.784   0.139   2.815
 6192SOL     OW30637   2.901   1.188   2.259
 6192SOL    HW130638   2.981   1.224   2.307
 6192SOL    HW230639   2.859   1.115   2.315
 6193SOL     OW30640   3.492   0.455   2.623
 6193SOL    HW130641   3.511   0.541   2.670
 6193SOL    HW230642   3.560   0.386   2.651
 6194SOL     OW30643   2.635   1.127   2.109
 6194SOL    HW130644   2.707   1.186   2.074
 6194SOL    HW230645   2.675   1.043   2.145
 6195SOL     OW30646   2.706   0.103   1.961
 6195SOL    HW130647   2.781   0.037   1.973
 6195SOL    HW230648   2.737   0.194   1.989
 6196SOL     OW30649   2.385   0.532   2.573
 6196SOL    HW130650   2.423   0.443   2.599
 6196SOL    HW230651   2.452   0.582   2.518
 6197SOL     OW30652   3.595   1.133   3.196
 6197SOL    HW130653   3.609   1.231   3.210
 6197SOL    HW230654   3.652   1.102   3.120
 6198SOL     OW30655   2.078   1.242   1.888
 6198SOL    HW130656   2.070   1.254   1.789
 6198SOL    HW230657   2.137   1.313   1.926
 6199SOL     OW30658   2.505   1.681   2.048
 6199SOL    HW130659   2.480   1.776   2.032
 6199SOL    HW230660   2.472   1.653   2.138
 6200SOL     OW30661   3.155   1.104   3.272
 6200SOL    HW130662   3.099   1.063   3.343
 6200SOL    HW230663   3.135   1.202   3.266
 6201SOL     OW30664   2.422   1.720   3.272
 6201SOL    HW130665   2.471   1.800   3.236
 6201SOL    HW230666   2.330   1.718   3.233
 6202SOL     OW30667   2.065   0.601   3.634
 6202SOL    HW130668   2.082   0.502   3.639
 6202SOL    HW230669   2.129   0.649   3.695
 6203SOL     OW30670   3.504   1.562   2.873
 6203SOL    HW130671   3.476   1.655   2.897
 6203SOL    HW230672   3.554   1.521   2.949
 6204SOL     OW30673   1.900   0.935   2.434
 6204SOL    HW130674   1.907   1.034   2.421
 6204SOL    HW230675   1.809   0.912   2.468
 6205SOL     OW30676   3.476   1.109   2.684
 6205SOL    HW130677   3.438   1.198   2.657
 6205SOL    HW230678   3.476   1.047   2.606
 6206SOL     OW30679   2.634   0.515   2.853
 6206SOL    HW130680   2.726   0.543   2.880
 6206SOL    HW230681   2.566   0.566   2.907
 6207SOL     OW30682   2.487   1.366   3.080
 6207SOL    HW130683   2.400   1.365   3.031
 6207SOL    HW230684   2.553   1.306   3.033
 6208SOL     OW30685   3.467   1.670   3.640
 6208SOL    HW130686   3.436   1.592   3.585
 6208SOL    HW230687   3.436   1.755   3.598
 6209SOL     OW30688   3.175   1.208   2.361
 6209SOL    HW130689   3.274   1.212   2.377
 6209SOL    HW230690   3.158   1.194   2.263
 6210SOL     OW30691   2.528   0.374   2.309
 6210SOL    HW130692   2.430   0.368   2.289
 6210SOL    HW230693   2.547   0.331   2.397
 6211SOL     OW30694   3.448   0.057   2.568
 6211SOL    HW130695   3.443   0.098   2.477
 6211SOL    HW230696   3.529   0.091   2.615
 6212SOL     OW30697   3.051   0.813   3.261
 6212SOL    HW130698   3.150   0.822   3.251
 6212SOL    HW230699   3.007   0.815   3.171
 6213SOL     OW30700   3.210   1.480   2.875
 6213SOL    HW130701   3.124   1.437   2.904
 6213SOL    HW230702   3.199   1.520   2.784
 6214SOL     OW30703   3.213   0.465   2.550
 6214SOL    HW130704   3.212   0.457   2.451
 6214SOL    HW230705   3.302   0.437   2.585
 6215SOL     OW30706   2.940   1.481   4.383
 6215SOL    HW130707   3.031   1.515   4.406
 6215SOL    HW230708   2.912   1.519   4.295
 6216SOL     OW30709   3.451   1.277   4.241
 6216SOL    HW130710   3.462   1.361   4.295
 6216SOL    HW230711   3.541   1.240   4.218
 6217SOL     OW30712   3.531   0.559   5.105
 6217SOL    HW130713   3.433   0.551   5.127
 6217SOL    HW230714   3.584   0.548   5.189
 6218SOL     OW30715   2.198   0.196   3.710
 6218SOL    HW130716   2.111   0.193   3.661
 6218SOL    HW230717   2.249   0.278   3.682
 6219SOL     OW30718   3.185   1.585   4.485
 6219SOL    HW130719   3.174   1.682   4.508
 6219SOL    HW230720   3.278   1.568   4.455
 6220SOL     OW30721   3.063   0.096   5.043
 6220SOL    HW130722   2.987   0.051   5.090
 6220SOL    HW230723   3.092   0.041   4.965
 6221SOL     OW30724   2.801   0.876   5.420
 6221SOL    HW130725   2.766   0.851   5.330
 6221SOL    HW230726   2.725   0.897   5.481
 6222SOL     OW30727   2.408   1.550   4.114
 6222SOL    HW130728   2.364   1.559   4.203
 6222SOL    HW230729   2.479   1.480   4.118
 6223SOL     OW30730   2.426   0.083   3.836
 6223SOL    HW130731   2.514   0.111   3.797
 6223SOL    HW230732   2.354   0.146   3.806
 6224SOL     OW30733   3.396   1.068   5.219
 6224SOL    HW130734   3.304   1.073   5.181
 6224SOL    HW230735   3.461   1.106   5.153
 6225SOL     OW30736   3.296   1.075   4.900
 6225SOL    HW130737   3.221   1.064   4.965
 6225SOL    HW230738   3.333   1.168   4.906
 6226SOL     OW30739   2.792   1.330   5.200
 6226SOL    HW130740   2.735   1.393   5.146
 6226SOL    HW230741   2.825   1.256   5.141
 6227SOL     OW30742   2.335   1.223   4.409
 6227SOL    HW130743   2.268   1.177   4.468
 6227SOL    HW230744   2.427   1.191   4.432
 6228SOL     OW30745   2.562   0.629   4.240
 6228SOL    HW130746   2.601   0.699   4.181
 6228SOL    HW230747   2.536   0.549   4.186
 6229SOL     OW30748   3.182   0.537   5.449
 6229SOL    HW130749   3.278   0.541   5.475
 6229SOL    HW230750   3.138   0.461   5.496
 6230SOL     OW30751   2.265   1.392   3.893
 6230SOL    HW130752   2.329   1.408   3.818
 6230SOL    HW230753   2.289   1.450   3.971
 6231SOL     OW30754   2.416   0.348   4.703
 6231SOL    HW130755   2.492   0.413   4.699
 6231SOL    HW230756   2.446   0.259   4.670
 6232SOL     OW30757   2.113   0.774   4.121
 6232SOL    HW130758   2.128   0.708   4.195
 6232SOL    HW230759   2.063   0.853   4.156
 6233SOL     OW30760   2.699   1.719   4.298
 6233SOL    HW130761   2.764   1.652   4.262
 6233SOL    HW230762   2.689   1.795   4.234
 6234SOL     OW30763   3.591   1.601   4.040
 6234SOL    HW130764   3.687   1.575   4.033
 6234SOL    HW230765   3.567   1.661   3.964
 6235SOL     OW30766   3.503   0.294   4.811
 6235SOL    HW130767   3.554   0.366   4.764
 6235SOL    HW230768   3.408   0.321   4.820
 6236SOL     OW30769   2.903   0.323   4.080
 6236SOL    HW130770   2.928   0.417   4.101
 6236SOL    HW230771   2.904   0.269   4.164
 6237SOL     OW30772   2.027   1.036   5.265
 6237SOL    HW130773   2.123   1.051   5.283
 6237SOL    HW230774   1.989   0.974   5.334
 6238SOL     OW30775   2.353   0.681   3.808
 6238SOL    HW130776   2.313   0.760   3.761
 6238SOL    HW230777   2.442   0.660   3.768
 6239SOL     OW30778   2.526   1.605   4.506
 6239SOL    HW130779   2.599   1.628   4.442
 6239SOL    HW230780   2.455   1.552   4.460
 6240SOL     OW30781   2.868   0.637   5.260
 6240SOL    HW130782   2.901   0.554   5.307
 6240SOL    HW230783   2.941   0.705   5.259
 6241SOL     OW30784   3.472   1.437   4.482
 6241SOL    HW130785   3.468   1.472   4.575
 6241SOL    HW230786   3.531   1.496   4.426
 6242SOL     OW30787   2.203   1.258   4.158
 6242SOL    HW130788   2.249   1.232   4.243
 6242SOL    HW230789   2.223   1.190   4.087
 6243SOL     OW30790   3.061   0.313   3.869
 6243SOL    HW130791   3.155   0.283   3.887
 6243SOL    HW230792   3.009   0.313   3.955
 6244SOL     OW30793   2.213   0.518   4.964
 6244SOL    HW130794   2.203   0.431   4.916
 6244SOL    HW230795   2.149   0.585   4.927
 6245SOL     OW30796   3.295   0.798   5.002
 6245SOL    HW130797   3.299   0.892   4.967
 6245SOL    HW230798   3.388   0.767   5.024
 6246SOL     OW30799   2.248   0.290   4.123
 6246SOL    HW130800   2.202   0.330   4.202
 6246SOL    HW230801   2.196   0.309   4.041
 6247SOL     OW30802   3.376   1.817   5.035
 6247SOL    HW130803   3.319   1.768   4.969
 6247SOL    HW230804   3.462   1.844   4.992
 6248SOL     OW30805   3.671   0.535   4.890
 6248SOL    HW130806   3.728   0.617   4.892
 6248SOL    HW230807   3.612   0.534   4.970
 6249SOL     OW30808   3.688   1.761   4.803
 6249SOL    HW130809   3.734   1.771   4.891
 6249SOL    HW230810   3.755   1.764   4.730
 6250SOL     OW30811   2.801   0.501   4.365
 6250SOL    HW130812   2.877   0.529   4.424
 6250SOL    HW230813   2.757   0.581   4.326
 6251SOL     OW30814   3.036   0.965   3.882
 6251SOL    HW130815   3.073   0.915   3.960
 6251SOL    HW230816   2.966   0.910   3.837
 6252SOL     OW30817   2.878   0.387   5.503
 6252SOL    HW130818   2.941   0.392   5.580
 6252SOL    HW230819   2.786   0.365   5.536
 6253SOL     OW30820   3.619   0.634   3.961
 6253SOL    HW130821   3.640   0.553   3.907
 6253SOL    HW230822   3.636   0.615   4.058
 6254SOL     OW30823   2.913   1.772   3.869
 6254SOL    HW130824   2.947   1.685   3.834
 6254SOL    HW230825   2.881   1.760   3.963
 6255SOL     OW30826   2.594   0.039   5.401
 6255SOL    HW130827   2.601  -0.055   5.368
 6255SOL    HW230828   2.651   0.049   5.483
 6256SOL     OW30829   2.927   1.306   5.435
 6256SOL    HW130830   2.949   1.216   5.397
 6256SOL    HW230831   2.862   1.353   5.376
 6257SOL     OW30832   2.582   1.148   5.439
 6257SOL    HW130833   2.553   1.225   5.496
 6257SOL    HW230834   2.592   1.067   5.497
 6258SOL     OW30835   3.217   0.012   4.545
 6258SOL    HW130836   3.166   0.096   4.527
 6258SOL    HW230837   3.303   0.014   4.494
 6259SOL     OW30838   3.572   0.218   5.474
 6259SOL    HW130839   3.549   0.239   5.569
 6259SOL    HW230840   3.548   0.123   5.454
 6260SOL     OW30841   1.875   0.622   4.218
 6260SOL    HW130842   1.877   0.573   4.305
 6260SOL    HW230843   1.877   0.721   4.236
 6261SOL     OW30844   2.196   0.210   4.539
 6261SOL    HW130845   2.248   0.250   4.614
 6261SOL    HW230846   2.249   0.137   4.496
 6262SOL     OW30847   2.180   0.258   4.873
 6262SOL    HW130848   2.145   0.165   4.873
 6262SOL    HW230849   2.267   0.261   4.824
 6263SOL     OW30850   2.847   0.880   4.613
 6263SOL    HW130851   2.873   0.960   4.559
 6263SOL    HW230852   2.841   0.800   4.553
 6264SOL     OW30853   2.048   1.507   4.072
 6264SOL    HW130854   2.075   1.413   4.092
 6264SOL    HW230855   2.073   1.529   3.978
 6265SOL     OW30856   3.330   1.376   4.946
 6265SOL    HW130857   3.301   1.413   4.857
 6265SOL    HW230858   3.252   1.376   5.008
 6266SOL     OW30859   2.062   1.650   4.309
 6266SOL    HW130860   1.978   1.701   4.327
 6266SOL    HW230861   2.053   1.599   4.224
 6267SOL     OW30862   3.583   1.447   4.984
 6267SOL    HW130863   3.614   1.461   5.078
 6267SOL    HW230864   3.484   1.434   4.983
 6268SOL     OW30865   2.335   0.947   3.711
 6268SOL    HW130866   2.304   0.981   3.623
 6268SOL    HW230867   2.339   1.022   3.777
 6269SOL     OW30868   2.852   1.134   5.010
 6269SOL    HW130869   2.902   1.049   4.994
 6269SOL    HW230870   2.806   1.161   4.925
 6270SOL     OW30871   1.939   0.839   3.884
 6270SOL    HW130872   1.999   0.786   3.944
 6270SOL    HW230873   1.845   0.807   3.896
 6271SOL     OW30874   3.459   0.837   4.084
 6271SOL    HW130875   3.527   0.771   4.051
 6271SOL    HW230876   3.474   0.925   4.040
 6272SOL     OW30877   2.707   1.824   4.732
 6272SOL    HW130878   2.753   1.757   4.674
 6272SOL    HW230879   2.633   1.780   4.782
 6273SOL     OW30880   2.614   0.893   3.768
 6273SOL    HW130881   2.643   0.812   3.819
 6273SOL    HW230882   2.514   0.892   3.759
 6274SOL     OW30883   3.210   0.425   4.114
 6274SOL    HW130884   3.147   0.483   4.062
 6274SOL    HW230885   3.303   0.459   4.102
 6275SOL     OW30886   2.107   0.626   5.214
 6275SOL    HW130887   2.127   0.531   5.189
 6275SOL    HW230888   2.070   0.629   5.307
 6276SOL     OW30889   1.989   0.281   5.104
 6276SOL    HW130890   2.061   0.291   5.035
 6276SOL    HW230891   1.900   0.280   5.059
 6277SOL     OW30892   2.887   0.902   4.869
 6277SOL    HW130893   2.881   0.888   4.770
 6277SOL    HW230894   2.806   0.863   4.913
 6278SOL     OW30895   3.478   0.436   4.184
 6278SOL    HW130896   3.574   0.407   4.181
 6278SOL    HW230897   3.439   0.414   4.273
 6279SOL     OW30898   2.762   1.511   4.621
 6279SOL    HW130899   2.820   1.522   4.540
 6279SOL    HW230900   2.668   1.535   4.599
 6280SOL     OW30901   2.712   0.377   3.906
 6280SOL    HW130902   2.621   0.390   3.944
 6280SOL    HW230903   2.772   0.337   3.976
 6281SOL     OW30904   2.823   1.322   3.841
 6281SOL    HW130905   2.876   1.262   3.901
 6281SOL    HW230906   2.862   1.323   3.750
 6282SOL     OW30907   3.574   1.617   4.326
 6282SOL    HW130908   3.541   1.710   4.345
 6282SOL    HW230909   3.572   1.601   4.227
 6283SOL     OW30910   2.989   0.890   4.315
 6283SOL    HW130911   3.054   0.918   4.386
 6283SOL    HW230912   2.910   0.951   4.317
 6284SOL     OW30913   2.737   1.616   5.339
 6284SOL    HW130914   2.725   1.547   5.268
 6284SOL    HW230915   2.700   1.581   5.426
 6285SOL     OW30916   3.181   0.930   4.518
 6285SOL    HW130917   3.202   0.872   4.596
 6285SOL    HW230918   3.190   1.026   4.544
 6286SOL     OW30919   2.137   1.059   4.564
 6286SOL    HW130920   2.060   1.121   4.557
 6286SOL    HW230921   2.174   1.060   4.657
 6287SOL     OW30922   2.770   1.007   4.263
 6287SOL    HW130923   2.757   0.918   4.220
 6287SOL    HW230924   2.701   1.021   4.334
 6288SOL     OW30925   3.074   1.395   5.102
 6288SOL    HW130926   3.107   1.480   5.143
 6288SOL    HW230927   2.975   1.391   5.109
 6289SOL     OW30928   1.881   0.312   4.166
 6289SOL    HW130929   1.941   0.263   4.104
 6289SOL    HW230930   1.936   0.364   4.231
 6290SOL     OW30931   3.504   1.810   3.857
 6290SOL    HW130932   3.594   1.854   3.859
 6290SOL    HW230933   3.503   1.741   3.785
 6291SOL     OW30934   2.668   0.777   5.015
 6291SOL    HW130935   2.670   0.863   5.066
 6291SOL    HW230936   2.725   0.709   5.062
 6292SOL     OW30937   1.905   1.804   5.086
 6292SOL    HW130938   1.913   1.904   5.084
 6292SOL    HW230939   1.881   1.775   5.179
 6293SOL     OW30940   2.686   0.823   4.080
 6293SOL    HW130941   2.597   0.851   4.045
 6293SOL    HW230942   2.727   0.757   4.016
 6294SOL     OW30943   2.208   0.541   4.619
 6294SOL    HW130944   2.264   0.534   4.536
 6294SOL    HW230945   2.265   0.519   4.699
 6295SOL     OW30946   2.205   1.739   3.890
 6295SOL    HW130947   2.297   1.769   3.865
 6295SOL    HW230948   2.180   1.778   3.979
 6296SOL     OW30949   3.181   1.761   4.827
 6296SOL    HW130950   3.200   1.824   4.753
 6296SOL    HW230951   3.189   1.667   4.794
 6297SOL     OW30952   1.886   1.156   4.639
 6297SOL    HW130953   1.796   1.172   4.600
 6297SOL    HW230954   1.884   1.072   4.694
 6298SOL     OW30955   2.637   0.061   4.089
 6298SOL    HW130956   2.598   0.050   3.998
 6298SOL    HW230957   2.593   0.137   4.136
 6299SOL     OW30958   1.882   1.197   4.183
 6299SOL    HW130959   1.960   1.255   4.207
 6299SOL    HW230960   1.901   1.148   4.098
 6300SOL     OW30961   3.412   0.325   5.267
 6300SOL    HW130962   3.351   0.403   5.264
 6300SOL    HW230963   3.467   0.329   5.350
 6301SOL     OW30964   3.128   0.271   4.558
 6301SOL    HW130965   3.127   0.349   4.495
 6301SOL    HW230966   3.171   0.298   4.644
 6302SOL     OW30967   3.248   0.077   3.854
 6302SOL    HW130968   3.328   0.017   3.851
 6302SOL    HW230969   3.174   0.030   3.902
 6303SOL     OW30970   3.461   0.049   5.288
 6303SOL    HW130971   3.487   0.006   5.202
 6303SOL    HW230972   3.411   0.133   5.270
 6304SOL     OW30973   2.563   0.308   4.420
 6304SOL    HW130974   2.552   0.250   4.501
 6304SOL    HW230975   2.648   0.360   4.428
 6305SOL     OW30976   3.143   0.659   4.812
 6305SOL    HW130977   3.197   0.699   4.738
 6305SOL    HW230978   3.181   0.688   4.900
 6306SOL     OW30979   3.436   0.065   4.128
 6306SOL    HW130980   3.443   0.019   4.040
 6306SOL    HW230981   3.340   0.075   4.153
 6307SOL     OW30982   2.412   1.380   5.491
 6307SOL    HW130983   2.373   1.443   5.424
 6307SOL    HW230984   2.495   1.420   5.531
 6308SOL     OW30985   2.288   1.112   5.323
 6308SOL    HW130986   2.307   1.136   5.228
 6308SOL    HW230987   2.281   1.195   5.378
 6309SOL     OW30988   1.949   1.402   4.797
 6309SOL    HW130989   1.918   1.328   4.738
 6309SOL    HW230990   1.881   1.420   4.868
 6310SOL     OW30991   3.035   0.603   4.530
 6310SOL    HW130992   3.117   0.580   4.478
 6310SOL    HW230993   3.030   0.544   4.611
 6311SOL     OW30994   3.635   0.630   5.366
 6311SOL    HW130995   3.624   0.716   5.315
 6311SOL    HW230996   3.729   0.621   5.396
 6312SOL     OW30997   3.206   0.403   4.785
 6312SOL    HW130998   3.180   0.500   4.791
 6312SOL    HW230999   3.206   0.363   4.877
 6313SOL     OW31000   3.436   0.535   5.536
 6313SOL    HW131001   3.516   0.560   5.480
 6313SOL    HW231002   3.467   0.500   5.624
 6314SOL     OW31003   3.147   0.838   4.116
 6314SOL    HW131004   3.093   0.836   4.200
 6314SOL    HW231005   3.224   0.901   4.127
 6315SOL     OW31006   3.444   0.934   4.336
 6315SOL    HW131007   3.458   0.897   4.243
 6315SOL    HW231008   3.355   0.904   4.370
 6316SOL     OW31009   3.600   0.871   5.231
 6316SOL    HW131010   3.502   0.892   5.233
 6316SOL    HW231011   3.649   0.947   5.190
 6317SOL     OW31012   3.454   0.291   3.910
 6317SOL    HW131013   3.459   0.333   4.001
 6317SOL    HW231014   3.387   0.216   3.912
 6318SOL     OW31015   2.601   1.506   5.130
 6318SOL    HW131016   2.538   1.584   5.137
 6318SOL    HW231017   2.569   1.444   5.058
 6319SOL     OW31018   1.992   0.301   5.395
 6319SOL    HW131019   2.010   0.290   5.297
 6319SOL    HW231020   1.894   0.297   5.412
 6320SOL     OW31021   1.872   1.715   5.339
 6320SOL    HW131022   1.944   1.701   5.407
 6320SOL    HW231023   1.783   1.718   5.384
 6321SOL     OW31024   2.040   0.371   4.363
 6321SOL    HW131025   1.983   0.426   4.424
 6321SOL    HW231026   2.110   0.323   4.416
 6322SOL     OW31027   3.212   1.603   5.226
 6322SOL    HW131028   3.165   1.671   5.281
 6322SOL    HW231029   3.279   1.649   5.167
 6323SOL     OW31030   2.177   0.562   3.961
 6323SOL    HW131031   2.249   0.591   3.898
 6323SOL    HW231032   2.133   0.642   4.001
 6324SOL     OW31033   3.563   0.224   5.064
 6324SOL    HW131034   3.519   0.272   5.140
 6324SOL    HW231035   3.541   0.270   4.978
 6325SOL     OW31036   2.292   1.825   4.427
 6325SOL    HW131037   2.216   1.791   4.372
 6325SOL    HW231038   2.378   1.788   4.392
 6326SOL     OW31039   2.217   1.334   4.872
 6326SOL    HW131040   2.229   1.350   4.969
 6326SOL    HW231041   2.130   1.374   4.842
 6327SOL     OW31042   3.101   1.538   5.518
 6327SOL    HW131043   3.060   1.453   5.484
 6327SOL    HW231044   3.081   1.612   5.454
 6328SOL     OW31045   2.591   1.258   4.208
 6328SOL    HW131046   2.634   1.189   4.150
 6328SOL    HW231047   2.555   1.215   4.291
 6329SOL     OW31048   2.223   0.809   4.410
 6329SOL    HW131049   2.215   0.907   4.428
 6329SOL    HW231050   2.307   0.775   4.451
 6330SOL     OW31051   2.069   0.289   3.925
 6330SOL    HW131052   2.113   0.258   3.842
 6330SOL    HW231053   2.070   0.389   3.929
 6331SOL     OW31054   1.922   0.541   4.536
 6331SOL    HW131055   1.886   0.634   4.528
 6331SOL    HW231056   2.005   0.542   4.592
 6332SOL     OW31057   2.357   1.128   3.922
 6332SOL    HW131058   2.457   1.128   3.933
 6332SOL    HW231059   2.326   1.221   3.901
 6333SOL     OW31060   2.983   0.720   3.738
 6333SOL    HW131061   2.914   0.777   3.694
 6333SOL    HW231062   3.064   0.714   3.679
 6334SOL     OW31063   2.718   0.639   3.881
 6334SOL    HW131064   2.808   0.640   3.836
 6334SOL    HW231065   2.695   0.545   3.906
 6335SOL     OW31066   3.169   0.156   4.175
 6335SOL    HW131067   3.079   0.140   4.216
 6335SOL    HW231068   3.177   0.252   4.149
 6336SOL     OW31069   3.283   0.556   5.191
 6336SOL    HW131070   3.235   0.579   5.275
 6336SOL    HW231071   3.217   0.526   5.122
 6337SOL     OW31072   1.918   0.071   3.835
 6337SOL    HW131073   1.981  -0.006   3.843
 6337SOL    HW231074   1.938   0.139   3.906
 6338SOL     OW31075   2.191   1.046   4.836
 6338SOL    HW131076   2.202   1.001   4.925
 6338SOL    HW231077   2.218   1.142   4.843
 6339SOL     OW31078   3.490   1.058   3.936
 6339SOL    HW131079   3.561   1.128   3.938
 6339SOL    HW231080   3.477   1.028   3.841
 6340SOL     OW31081   2.472   0.659   4.858
 6340SOL    HW131082   2.547   0.702   4.907
 6340SOL    HW231083   2.405   0.624   4.924
 6341SOL     OW31084   2.615   1.028   5.175
 6341SOL    HW131085   2.684   1.080   5.125
 6341SOL    HW231086   2.610   1.061   5.270
 6342SOL     OW31087   3.007   1.049   5.335
 6342SOL    HW131088   2.929   0.995   5.368
 6342SOL    HW231089   3.088   1.027   5.390
 6343SOL     OW31090   2.936   0.231   4.331
 6343SOL    HW131091   2.995   0.291   4.386
 6343SOL    HW231092   2.863   0.195   4.388
 6344SOL     OW31093   3.046   1.763   5.371
 6344SOL    HW131094   2.951   1.761   5.339
 6344SOL    HW231095   3.067   1.854   5.408
 6345SOL     OW31096   2.464   0.108   4.602
 6345SOL    HW131097   2.392   0.041   4.588
 6345SOL    HW231098   2.546   0.062   4.637
 6346SOL     OW31099   2.164   1.773   4.969
 6346SOL    HW131100   2.144   1.755   4.873
 6346SOL    HW231101   2.091   1.735   5.026
 6347SOL     OW31102   2.857   1.237   4.514
 6347SOL    HW131103   2.896   1.280   4.433
 6347SOL    HW231104   2.930   1.220   4.581
 6348SOL     OW31105   2.551   0.965   4.716
 6348SOL    HW131106   2.549   0.881   4.661
 6348SOL    HW231107   2.500   0.951   4.801
 6349SOL     OW31108   1.890   0.975   4.842
 6349SOL    HW131109   1.979   0.953   4.882
 6349SOL    HW231110   1.835   0.891   4.838
 6350SOL     OW31111   2.118   0.020   4.122
 6350SOL    HW131112   2.156   0.108   4.149
 6350SOL    HW231113   2.041  -0.004   4.182
 6351SOL     OW31114   2.534   0.637   5.450
 6351SOL    HW131115   2.486   0.688   5.379
 6351SOL    HW231116   2.627   0.616   5.420
 6352SOL     OW31117   1.940   1.107   3.942
 6352SOL    HW131118   1.930   1.010   3.921
 6352SOL    HW231119   1.993   1.152   3.870
 6353SOL     OW31120   2.685   1.195   4.795
 6353SOL    HW131121   2.636   1.110   4.776
 6353SOL    HW231122   2.755   1.210   4.726
 6354SOL     OW31123   3.023   0.618   4.004
 6354SOL    HW131124   3.075   0.690   4.050
 6354SOL    HW231125   3.036   0.625   3.906
 6355SOL     OW31126   3.384   1.433   5.331
 6355SOL    HW131127   3.369   1.335   5.345
 6355SOL    HW231128   3.301   1.475   5.295
 6356SOL     OW31129   2.141   0.875   5.071
 6356SOL    HW131130   2.105   0.785   5.097
 6356SOL    HW231131   2.102   0.945   5.131
 6357SOL     OW31132   2.643   1.501   3.729
 6357SOL    HW131133   2.618   1.578   3.788
 6357SOL    HW231134   2.707   1.441   3.777
 6358SOL     OW31135   2.461   1.708   4.763
 6358SOL    HW131136   2.481   1.678   4.670
 6358SOL    HW231137   2.386   1.653   4.800
 6359SOL     OW31138   2.604   1.119   4.480
 6359SOL    HW131139   2.693   1.165   4.480
 6359SOL    HW231140   2.597   1.059   4.559
 6360SOL     OW31141   2.782   1.466   4.149
 6360SOL    HW131142   2.832   1.454   4.064
 6360SOL    HW231143   2.728   1.383   4.168
 6361SOL     OW31144   1.972   0.813   4.549
 6361SOL    HW131145   2.067   0.804   4.517
 6361SOL    HW231146   1.938   0.905   4.528
 6362SOL     OW31147   1.909   0.930   5.476
 6362SOL    HW131148   1.824   0.881   5.457
 6362SOL    HW231149   1.936   0.917   5.571
 6363SOL     OW31150   2.806   1.839   5.182
 6363SOL    HW131151   2.778   1.752   5.223
 6363SOL    HW231152   2.750   1.913   5.219
 6364SOL     OW31153   3.035   1.186   4.712
 6364SOL    HW131154   3.019   1.280   4.743
 6364SOL    HW231155   3.038   1.125   4.792
 6365SOL     OW31156   2.309   0.457   5.476
 6365SOL    HW131157   2.345   0.404   5.399
 6365SOL    HW231158   2.370   0.534   5.494
 6366SOL     OW31159   2.373   0.874   4.048
 6366SOL    HW131160   2.323   0.939   3.992
 6366SOL    HW231161   2.315   0.795   4.067
 6367SOL     OW31162   3.454   0.905   4.746
 6367SOL    HW131163   3.473   0.944   4.655
 6367SOL    HW231164   3.408   0.974   4.802
 6368SOL     OW31165   3.146   0.348   5.042
 6368SOL    HW131166   3.217   0.320   5.106
 6368SOL    HW231167   3.093   0.268   5.014
 6369SOL     OW31168   1.847   0.047   4.243
 6369SOL    HW131169   1.760   0.034   4.196
 6369SOL    HW231170   1.855   0.142   4.273
 6370SOL     OW31171   3.068   0.148   5.484
 6370SOL    HW131172   3.127   0.164   5.564
 6370SOL    HW231173   3.015   0.231   5.465
 6371SOL     OW31174   2.284   1.567   5.309
 6371SOL    HW131175   2.226   1.632   5.358
 6371SOL    HW231176   2.346   1.617   5.249
 6372SOL     OW31177   3.640   1.454   5.250
 6372SOL    HW131178   3.668   1.547   5.272
 6372SOL    HW231179   3.547   1.438   5.283
 6373SOL     OW31180   2.890   0.567   4.800
 6373SOL    HW131181   2.976   0.618   4.799
 6373SOL    HW231182   2.896   0.493   4.867
 6374SOL     OW31183   2.294   1.513   4.372
 6374SOL    HW131184   2.292   1.414   4.385
 6374SOL    HW231185   2.203   1.546   4.349
 6375SOL     OW31186   2.935   1.630   4.960
 6375SOL    HW131187   2.861   1.694   4.978
 6375SOL    HW231188   3.014   1.679   4.922
 6376SOL     OW31189   2.144   1.760   5.459
 6376SOL    HW131190   2.187   1.844   5.425
 6376SOL    HW231191   2.169   1.747   5.555
 6377SOL     OW31192   2.004   1.296   5.330
 6377SOL    HW131193   1.983   1.201   5.303
 6377SOL    HW231194   1.935   1.357   5.292
 6378SOL     OW31195   2.093   1.661   4.734
 6378SOL    HW131196   2.035   1.581   4.748
 6378SOL    HW231197   2.117   1.668   4.637
 6379SOL     OW31198   2.839   0.182   4.589
 6379SOL    HW131199   2.935   0.183   4.617
 6379SOL    HW231200   2.784   0.139   4.661
 6380SOL     OW31201   2.901   1.188   4.105
 6380SOL    HW131202   2.981   1.224   4.153
 6380SOL    HW231203   2.859   1.115   4.161
 6381SOL     OW31204   2.635   1.127   3.955
 6381SOL    HW131205   2.707   1.186   3.920
 6381SOL    HW231206   2.675   1.043   3.991
 6382SOL     OW31207   2.706   0.103   3.807
 6382SOL    HW131208   2.781   0.037   3.819
 6382SOL    HW231209   2.737   0.194   3.835
 6383SOL     OW31210   2.385   0.532   4.419
 6383SOL    HW131211   2.423   0.443   4.445
 6383SOL    HW231212   2.452   0.582   4.364
 6384SOL     OW31213   2.373   1.090   5.073
 6384SOL    HW131214   2.469   1.070   5.093
 6384SOL    HW231215   2.362   1.188   5.055
 6385SOL     OW31216   3.595   1.133   5.042
 6385SOL    HW131217   3.609   1.231   5.056
 6385SOL    HW231218   3.652   1.102   4.966
 6386SOL     OW31219   2.078   1.242   3.734
 6386SOL    HW131220   2.070   1.254   3.635
 6386SOL    HW231221   2.137   1.313   3.772
 6387SOL     OW31222   2.505   1.681   3.894
 6387SOL    HW131223   2.480   1.776   3.878
 6387SOL    HW231224   2.472   1.653   3.984
 6388SOL     OW31225   3.155   1.104   5.118
 6388SOL    HW131226   3.099   1.063   5.189
 6388SOL    HW231227   3.135   1.202   5.112
 6389SOL     OW31228   2.422   1.720   5.118
 6389SOL    HW131229   2.471   1.800   5.082
 6389SOL    HW231230   2.330   1.718   5.079
 6390SOL     OW31231   2.065   0.601   5.480
 6390SOL    HW131232   2.082   0.502   5.485
 6390SOL    HW231233   2.129   0.649   5.541
 6391SOL     OW31234   3.504   1.562   4.719
 6391SOL    HW131235   3.476   1.655   4.743
 6391SOL    HW231236   3.554   1.521   4.795
 6392SOL     OW31237   1.900   0.935   4.280
 6392SOL    HW131238   1.907   1.034   4.267
 6392SOL    HW231239   1.809   0.912   4.314
 6393SOL     OW31240   2.409   0.733   5.218
 6393SOL    HW131241   2.315   0.703   5.199
 6393SOL    HW231242   2.418   0.830   5.195
 6394SOL     OW31243   3.476   1.109   4.530
 6394SOL    HW131244   3.438   1.198   4.503
 6394SOL    HW231245   3.476   1.047   4.452
 6395SOL     OW31246   2.634   0.515   4.699
 6395SOL    HW131247   2.726   0.543   4.726
 6395SOL    HW231248   2.566   0.566   4.753
 6396SOL     OW31249   2.487   1.366   4.926
 6396SOL    HW131250   2.400   1.365   4.877
 6396SOL    HW231251   2.553   1.306   4.879
 6397SOL     OW31252   2.053   0.708   4.840
 6397SOL    HW131253   2.091   0.767   4.911
 6397SOL    HW231254   2.036   0.761   4.758
 6398SOL     OW31255   2.224   1.354   5.138
 6398SOL    HW131256   2.243   1.442   5.182
 6398SOL    HW231257   2.129   1.328   5.156
 6399SOL     OW31258   3.467   1.670   5.486
 6399SOL    HW131259   3.436   1.592   5.431
 6399SOL    HW231260   3.436   1.755   5.444
 6400SOL     OW31261   3.175   1.208   4.207
 6400SOL    HW131262   3.274   1.212   4.223
 6400SOL    HW231263   3.158   1.194   4.109
 6401SOL     OW31264   2.528   0.374   4.155
 6401SOL    HW131265   2.430   0.368   4.135
 6401SOL    HW231266   2.547   0.331   4.243
 6402SOL     OW31267   3.051   0.813   5.107
 6402SOL    HW131268   3.150   0.822   5.097
 6402SOL    HW231269   3.007   0.815   5.017
 6403SOL     OW31270   2.545   0.773   4.509
 6403SOL    HW131271   2.567   0.695   4.567
 6403SOL    HW231272   2.554   0.747   4.413
 6404SOL     OW31273   3.210   1.480   4.721
 6404SOL    HW131274   3.124   1.437   4.750
 6404SOL    HW231275   3.199   1.520   4.630
 6405SOL     OW31276   3.213   0.465   4.396
 6405SOL    HW131277   3.212   0.457   4.297
 6405SOL    HW231278   3.302   0.437   4.431
 6406SOL     OW31279   2.940   1.481   6.228
 6406SOL    HW131280   3.031   1.515   6.251
 6406SOL    HW231281   2.912   1.519   6.140
 6407SOL     OW31282   3.451   1.277   6.086
 6407SOL    HW131283   3.462   1.361   6.140
 6407SOL    HW231284   3.541   1.240   6.063
 6408SOL     OW31285   3.531   0.559   6.950
 6408SOL    HW131286   3.433   0.551   6.972
 6408SOL    HW231287   3.584   0.548   7.034
 6409SOL     OW31288   2.198   0.196   5.555
 6409SOL    HW131289   2.111   0.193   5.506
 6409SOL    HW231290   2.249   0.278   5.527
 6410SOL     OW31291   3.185   1.585   6.330
 6410SOL    HW131292   3.174   1.682   6.353
 6410SOL    HW231293   3.278   1.568   6.300
 6411SOL     OW31294   3.063   0.096   6.888
 6411SOL    HW131295   2.987   0.051   6.935
 6411SOL    HW231296   3.092   0.041   6.810
 6412SOL     OW31297   2.801   0.876   7.265
 6412SOL    HW131298   2.766   0.851   7.175
 6412SOL    HW231299   2.725   0.897   7.326
 6413SOL     OW31300   2.408   1.550   5.959
 6413SOL    HW131301   2.364   1.559   6.048
 6413SOL    HW231302   2.479   1.480   5.963
 6414SOL     OW31303   2.426   0.083   5.681
 6414SOL    HW131304   2.514   0.111   5.642
 6414SOL    HW231305   2.354   0.146   5.651
 6415SOL     OW31306   3.396   1.068   7.064
 6415SOL    HW131307   3.304   1.073   7.026
 6415SOL    HW231308   3.461   1.106   6.998
 6416SOL     OW31309   3.296   1.075   6.745
 6416SOL    HW131310   3.221   1.064   6.810
 6416SOL    HW231311   3.333   1.168   6.751
 6417SOL     OW31312   2.792   1.330   7.045
 6417SOL    HW131313   2.735   1.393   6.991
 6417SOL    HW231314   2.825   1.256   6.986
 6418SOL     OW31315   2.335   1.223   6.254
 6418SOL    HW131316   2.268   1.177   6.313
 6418SOL    HW231317   2.427   1.191   6.277
 6419SOL     OW31318   2.562   0.629   6.085
 6419SOL    HW131319   2.601   0.699   6.026
 6419SOL    HW231320   2.536   0.549   6.031
 6420SOL     OW31321   2.265   1.392   5.738
 6420SOL    HW131322   2.329   1.408   5.663
 6420SOL    HW231323   2.289   1.450   5.816
 6421SOL     OW31324   2.416   0.348   6.548
 6421SOL    HW131325   2.492   0.413   6.544
 6421SOL    HW231326   2.446   0.259   6.515
 6422SOL     OW31327   2.113   0.774   5.966
 6422SOL    HW131328   2.128   0.708   6.040
 6422SOL    HW231329   2.063   0.853   6.001
 6423SOL     OW31330   2.699   1.719   6.143
 6423SOL    HW131331   2.764   1.652   6.107
 6423SOL    HW231332   2.689   1.795   6.079
 6424SOL     OW31333   3.591   1.601   5.885
 6424SOL    HW131334   3.687   1.575   5.878
 6424SOL    HW231335   3.567   1.661   5.809
 6425SOL     OW31336   3.503   0.294   6.656
 6425SOL    HW131337   3.554   0.366   6.609
 6425SOL    HW231338   3.408   0.321   6.665
 6426SOL     OW31339   2.903   0.323   5.925
 6426SOL    HW131340   2.928   0.417   5.946
 6426SOL    HW231341   2.904   0.269   6.009
 6427SOL     OW31342   2.027   1.036   7.110
 6427SOL    HW131343   2.123   1.051   7.128
 6427SOL    HW231344   1.989   0.974   7.179
 6428SOL     OW31345   2.353   0.681   5.653
 6428SOL    HW131346   2.313   0.760   5.606
 6428SOL    HW231347   2.442   0.660   5.613
 6429SOL     OW31348   2.526   1.605   6.351
 6429SOL    HW131349   2.599   1.628   6.287
 6429SOL    HW231350   2.455   1.552   6.305
 6430SOL     OW31351   2.868   0.637   7.105
 6430SOL    HW131352   2.901   0.554   7.152
 6430SOL    HW231353   2.941   0.705   7.104
 6431SOL     OW31354   3.472   1.437   6.327
 6431SOL    HW131355   3.468   1.472   6.420
 6431SOL    HW231356   3.531   1.496   6.271
 6432SOL     OW31357   2.203   1.258   6.003
 6432SOL    HW131358   2.249   1.232   6.088
 6432SOL    HW231359   2.223   1.190   5.932
 6433SOL     OW31360   3.061   0.313   5.714
 6433SOL    HW131361   3.155   0.283   5.732
 6433SOL    HW231362   3.009   0.313   5.800
 6434SOL     OW31363   2.213   0.518   6.809
 6434SOL    HW131364   2.203   0.431   6.761
 6434SOL    HW231365   2.149   0.585   6.772
 6435SOL     OW31366   3.295   0.798   6.847
 6435SOL    HW131367   3.299   0.892   6.812
 6435SOL    HW231368   3.388   0.767   6.869
 6436SOL     OW31369   2.248   0.290   5.968
 6436SOL    HW131370   2.202   0.330   6.047
 6436SOL    HW231371   2.196   0.309   5.886
 6437SOL     OW31372   3.376   1.817   6.880
 6437SOL    HW131373   3.319   1.768   6.814
 6437SOL    HW231374   3.462   1.844   6.837
 6438SOL     OW31375   3.671   0.535   6.735
 6438SOL    HW131376   3.728   0.617   6.737
 6438SOL    HW231377   3.612   0.534   6.815
 6439SOL     OW31378   3.688   1.761   6.648
 6439SOL    HW131379   3.734   1.771   6.736
 6439SOL    HW231380   3.755   1.764   6.575
 6440SOL     OW31381   2.801   0.501   6.210
 6440SOL    HW131382   2.877   0.529   6.269
 6440SOL    HW231383   2.757   0.581   6.171
 6441SOL     OW31384   3.036   0.965   5.727
 6441SOL    HW131385   3.073   0.915   5.805
 6441SOL    HW231386   2.966   0.910   5.682
 6442SOL     OW31387   2.878   0.387   7.348
 6442SOL    HW131388   2.941   0.392   7.425
 6442SOL    HW231389   2.786   0.365   7.381
 6443SOL     OW31390   3.619   0.634   5.806
 6443SOL    HW131391   3.640   0.553   5.752
 6443SOL    HW231392   3.636   0.615   5.903
 6444SOL     OW31393   2.913   1.772   5.714
 6444SOL    HW131394   2.947   1.685   5.679
 6444SOL    HW231395   2.881   1.760   5.808
 6445SOL     OW31396   2.594   0.039   7.246
 6445SOL    HW131397   2.601  -0.055   7.213
 6445SOL    HW231398   2.651   0.049   7.328
 6446SOL     OW31399   3.517   0.640   6.514
 6446SOL    HW131400   3.502   0.731   6.551
 6446SOL    HW231401   3.587   0.593   6.568
 6447SOL     OW31402   2.927   1.306   7.280
 6447SOL    HW131403   2.949   1.216   7.242
 6447SOL    HW231404   2.862   1.353   7.221
 6448SOL     OW31405   2.582   1.148   7.284
 6448SOL    HW131406   2.553   1.225   7.341
 6448SOL    HW231407   2.592   1.067   7.342
 6449SOL     OW31408   3.217   0.012   6.390
 6449SOL    HW131409   3.166   0.096   6.372
 6449SOL    HW231410   3.303   0.014   6.339
 6450SOL     OW31411   1.875   0.622   6.063
 6450SOL    HW131412   1.877   0.573   6.150
 6450SOL    HW231413   1.877   0.721   6.081
 6451SOL     OW31414   2.196   0.210   6.384
 6451SOL    HW131415   2.248   0.250   6.459
 6451SOL    HW231416   2.249   0.137   6.341
 6452SOL     OW31417   2.180   0.258   6.718
 6452SOL    HW131418   2.145   0.165   6.718
 6452SOL    HW231419   2.267   0.261   6.669
 6453SOL     OW31420   2.847   0.880   6.458
 6453SOL    HW131421   2.873   0.960   6.404
 6453SOL    HW231422   2.841   0.800   6.398
 6454SOL     OW31423   2.048   1.507   5.917
 6454SOL    HW131424   2.075   1.413   5.937
 6454SOL    HW231425   2.073   1.529   5.823
 6455SOL     OW31426   3.330   1.376   6.791
 6455SOL    HW131427   3.301   1.413   6.702
 6455SOL    HW231428   3.252   1.376   6.853
 6456SOL     OW31429   2.062   1.650   6.154
 6456SOL    HW131430   1.978   1.701   6.172
 6456SOL    HW231431   2.053   1.599   6.069
 6457SOL     OW31432   3.583   1.447   6.829
 6457SOL    HW131433   3.614   1.461   6.923
 6457SOL    HW231434   3.484   1.434   6.828
 6458SOL     OW31435   2.335   0.947   5.556
 6458SOL    HW131436   2.304   0.981   5.468
 6458SOL    HW231437   2.339   1.022   5.622
 6459SOL     OW31438   2.852   1.134   6.855
 6459SOL    HW131439   2.902   1.049   6.839
 6459SOL    HW231440   2.806   1.161   6.770
 6460SOL     OW31441   1.939   0.839   5.729
 6460SOL    HW131442   1.999   0.786   5.789
 6460SOL    HW231443   1.845   0.807   5.741
 6461SOL     OW31444   3.459   0.837   5.929
 6461SOL    HW131445   3.527   0.771   5.896
 6461SOL    HW231446   3.474   0.925   5.885
 6462SOL     OW31447   2.707   1.824   6.577
 6462SOL    HW131448   2.753   1.757   6.519
 6462SOL    HW231449   2.633   1.780   6.627
 6463SOL     OW31450   2.614   0.893   5.613
 6463SOL    HW131451   2.643   0.812   5.664
 6463SOL    HW231452   2.514   0.892   5.604
 6464SOL     OW31453   3.210   0.425   5.959
 6464SOL    HW131454   3.147   0.483   5.907
 6464SOL    HW231455   3.303   0.459   5.947
 6465SOL     OW31456   2.107   0.626   7.059
 6465SOL    HW131457   2.127   0.531   7.034
 6465SOL    HW231458   2.070   0.629   7.152
 6466SOL     OW31459   1.989   0.281   6.949
 6466SOL    HW131460   2.061   0.291   6.880
 6466SOL    HW231461   1.900   0.280   6.904
 6467SOL     OW31462   2.887   0.902   6.714
 6467SOL    HW131463   2.881   0.888   6.615
 6467SOL    HW231464   2.806   0.863   6.758
 6468SOL     OW31465   3.478   0.436   6.029
 6468SOL    HW131466   3.574   0.407   6.026
 6468SOL    HW231467   3.439   0.414   6.118
 6469SOL     OW31468   2.762   1.511   6.466
 6469SOL    HW131469   2.820   1.522   6.385
 6469SOL    HW231470   2.668   1.535   6.444
 6470SOL     OW31471   2.712   0.377   5.751
 6470SOL    HW131472   2.621   0.390   5.789
 6470SOL    HW231473   2.772   0.337   5.821
 6471SOL     OW31474   2.823   1.322   5.686
 6471SOL    HW131475   2.876   1.262   5.746
 6471SOL    HW231476   2.862   1.323   5.595
 6472SOL     OW31477   3.574   1.617   6.171
 6472SOL    HW131478   3.541   1.710   6.190
 6472SOL    HW231479   3.572   1.601   6.072
 6473SOL     OW31480   2.989   0.890   6.160
 6473SOL    HW131481   3.054   0.918   6.231
 6473SOL    HW231482   2.910   0.951   6.162
 6474SOL     OW31483   2.737   1.616   7.184
 6474SOL    HW131484   2.725   1.547   7.113
 6474SOL    HW231485   2.700   1.581   7.271
 6475SOL     OW31486   3.181   0.930   6.363
 6475SOL    HW131487   3.202   0.872   6.441
 6475SOL    HW231488   3.190   1.026   6.389
 6476SOL     OW31489   2.137   1.059   6.409
 6476SOL    HW131490   2.060   1.121   6.402
 6476SOL    HW231491   2.174   1.060   6.502
 6477SOL     OW31492   2.770   1.007   6.108
 6477SOL    HW131493   2.757   0.918   6.065
 6477SOL    HW231494   2.701   1.021   6.179
 6478SOL     OW31495   3.074   1.395   6.947
 6478SOL    HW131496   3.107   1.480   6.988
 6478SOL    HW231497   2.975   1.391   6.954
 6479SOL     OW31498   1.881   0.312   6.011
 6479SOL    HW131499   1.941   0.263   5.949
 6479SOL    HW231500   1.936   0.364   6.076
 6480SOL     OW31501   3.504   1.810   5.702
 6480SOL    HW131502   3.594   1.854   5.704
 6480SOL    HW231503   3.503   1.741   5.630
 6481SOL     OW31504   2.668   0.777   6.860
 6481SOL    HW131505   2.670   0.863   6.911
 6481SOL    HW231506   2.725   0.709   6.907
 6482SOL     OW31507   1.905   1.804   6.931
 6482SOL    HW131508   1.913   1.904   6.929
 6482SOL    HW231509   1.881   1.775   7.024
 6483SOL     OW31510   2.686   0.823   5.925
 6483SOL    HW131511   2.597   0.851   5.890
 6483SOL    HW231512   2.727   0.757   5.861
 6484SOL     OW31513   2.208   0.541   6.464
 6484SOL    HW131514   2.264   0.534   6.381
 6484SOL    HW231515   2.265   0.519   6.544
 6485SOL     OW31516   2.205   1.739   5.735
 6485SOL    HW131517   2.297   1.769   5.710
 6485SOL    HW231518   2.180   1.778   5.824
 6486SOL     OW31519   3.181   1.761   6.672
 6486SOL    HW131520   3.200   1.824   6.598
 6486SOL    HW231521   3.189   1.667   6.639
 6487SOL     OW31522   1.886   1.156   6.484
 6487SOL    HW131523   1.796   1.172   6.445
 6487SOL    HW231524   1.884   1.072   6.539
 6488SOL     OW31525   2.637   0.061   5.934
 6488SOL    HW131526   2.598   0.050   5.843
 6488SOL    HW231527   2.593   0.137   5.981
 6489SOL     OW31528   1.882   1.197   6.028
 6489SOL    HW131529   1.960   1.255   6.052
 6489SOL    HW231530   1.901   1.148   5.943
 6490SOL     OW31531   3.128   0.271   6.403
 6490SOL    HW131532   3.127   0.349   6.340
 6490SOL    HW231533   3.171   0.298   6.489
 6491SOL     OW31534   3.248   0.077   5.699
 6491SOL    HW131535   3.328   0.017   5.696
 6491SOL    HW231536   3.174   0.030   5.747
 6492SOL     OW31537   3.461   0.049   7.133
 6492SOL    HW131538   3.487   0.006   7.047
 6492SOL    HW231539   3.411   0.133   7.115
 6493SOL     OW31540   2.563   0.308   6.265
 6493SOL    HW131541   2.552   0.250   6.346
 6493SOL    HW231542   2.648   0.360   6.273
 6494SOL     OW31543   3.143   0.659   6.657
 6494SOL    HW131544   3.197   0.699   6.583
 6494SOL    HW231545   3.181   0.688   6.745
 6495SOL     OW31546   3.436   0.065   5.973
 6495SOL    HW131547   3.443   0.019   5.885
 6495SOL    HW231548   3.340   0.075   5.998
 6496SOL     OW31549   2.412   1.380   7.336
 6496SOL    HW131550   2.373   1.443   7.269
 6496SOL    HW231551   2.495   1.420   7.376
 6497SOL     OW31552   2.288   1.112   7.168
 6497SOL    HW131553   2.307   1.136   7.073
 6497SOL    HW231554   2.281   1.195   7.223
 6498SOL     OW31555   1.949   1.402   6.642
 6498SOL    HW131556   1.918   1.328   6.583
 6498SOL    HW231557   1.881   1.420   6.713
 6499SOL     OW31558   3.035   0.603   6.375
 6499SOL    HW131559   3.117   0.580   6.323
 6499SOL    HW231560   3.030   0.544   6.456
 6500SOL     OW31561   3.206   0.403   6.630
 6500SOL    HW131562   3.180   0.500   6.636
 6500SOL    HW231563   3.206   0.363   6.722
 6501SOL     OW31564   3.147   0.838   5.961
 6501SOL    HW131565   3.093   0.836   6.045
 6501SOL    HW231566   3.224   0.901   5.972
 6502SOL     OW31567   3.444   0.934   6.181
 6502SOL    HW131568   3.458   0.897   6.088
 6502SOL    HW231569   3.355   0.904   6.215
 6503SOL     OW31570   3.600   0.871   7.076
 6503SOL    HW131571   3.502   0.892   7.078
 6503SOL    HW231572   3.649   0.947   7.035
 6504SOL     OW31573   3.454   0.291   5.755
 6504SOL    HW131574   3.459   0.333   5.846
 6504SOL    HW231575   3.387   0.216   5.757
 6505SOL     OW31576   2.601   1.506   6.975
 6505SOL    HW131577   2.538   1.584   6.982
 6505SOL    HW231578   2.569   1.444   6.903
 6506SOL     OW31579   1.992   0.301   7.240
 6506SOL    HW131580   2.010   0.290   7.142
 6506SOL    HW231581   1.894   0.297   7.257
 6507SOL     OW31582   1.872   1.715   7.184
 6507SOL    HW131583   1.944   1.701   7.252
 6507SOL    HW231584   1.783   1.718   7.229
 6508SOL     OW31585   2.040   0.371   6.208
 6508SOL    HW131586   1.983   0.426   6.269
 6508SOL    HW231587   2.110   0.323   6.261
 6509SOL     OW31588   3.212   1.603   7.071
 6509SOL    HW131589   3.165   1.671   7.126
 6509SOL    HW231590   3.279   1.649   7.012
 6510SOL     OW31591   2.177   0.562   5.806
 6510SOL    HW131592   2.249   0.591   5.743
 6510SOL    HW231593   2.133   0.642   5.846
 6511SOL     OW31594   3.563   0.224   6.909
 6511SOL    HW131595   3.519   0.272   6.985
 6511SOL    HW231596   3.541   0.270   6.823
 6512SOL     OW31597   2.292   1.825   6.272
 6512SOL    HW131598   2.216   1.791   6.217
 6512SOL    HW231599   2.378   1.788   6.237
 6513SOL     OW31600   2.217   1.334   6.717
 6513SOL    HW131601   2.229   1.350   6.814
 6513SOL    HW231602   2.130   1.374   6.687
 6514SOL     OW31603   3.101   1.538   7.363
 6514SOL    HW131604   3.060   1.453   7.329
 6514SOL    HW231605   3.081   1.612   7.299
 6515SOL     OW31606   2.591   1.258   6.053
 6515SOL    HW131607   2.634   1.189   5.995
 6515SOL    HW231608   2.555   1.215   6.136
 6516SOL     OW31609   2.223   0.809   6.255
 6516SOL    HW131610   2.215   0.907   6.273
 6516SOL    HW231611   2.307   0.775   6.296
 6517SOL     OW31612   2.069   0.289   5.770
 6517SOL    HW131613   2.113   0.258   5.687
 6517SOL    HW231614   2.070   0.389   5.774
 6518SOL     OW31615   1.922   0.541   6.381
 6518SOL    HW131616   1.886   0.634   6.373
 6518SOL    HW231617   2.005   0.542   6.437
 6519SOL     OW31618   2.357   1.128   5.767
 6519SOL    HW131619   2.457   1.128   5.778
 6519SOL    HW231620   2.326   1.221   5.746
 6520SOL     OW31621   2.983   0.720   5.583
 6520SOL    HW131622   2.914   0.777   5.539
 6520SOL    HW231623   3.064   0.714   5.524
 6521SOL     OW31624   2.718   0.639   5.726
 6521SOL    HW131625   2.808   0.640   5.681
 6521SOL    HW231626   2.695   0.545   5.751
 6522SOL     OW31627   3.169   0.156   6.020
 6522SOL    HW131628   3.079   0.140   6.061
 6522SOL    HW231629   3.177   0.252   5.994
 6523SOL     OW31630   3.283   0.556   7.036
 6523SOL    HW131631   3.235   0.579   7.120
 6523SOL    HW231632   3.217   0.526   6.967
 6524SOL     OW31633   1.918   0.071   5.680
 6524SOL    HW131634   1.981  -0.006   5.688
 6524SOL    HW231635   1.938   0.139   5.751
 6525SOL     OW31636   2.191   1.046   6.681
 6525SOL    HW131637   2.202   1.001   6.770
 6525SOL    HW231638   2.218   1.142   6.688
 6526SOL     OW31639   3.490   1.058   5.781
 6526SOL    HW131640   3.561   1.128   5.783
 6526SOL    HW231641   3.477   1.028   5.686
 6527SOL     OW31642   2.472   0.659   6.703
 6527SOL    HW131643   2.547   0.702   6.752
 6527SOL    HW231644   2.405   0.624   6.769
 6528SOL     OW31645   2.615   1.028   7.020
 6528SOL    HW131646   2.684   1.080   6.970
 6528SOL    HW231647   2.610   1.061   7.115
 6529SOL     OW31648   3.007   1.049   7.180
 6529SOL    HW131649   2.929   0.995   7.213
 6529SOL    HW231650   3.088   1.027   7.235
 6530SOL     OW31651   2.936   0.231   6.176
 6530SOL    HW131652   2.995   0.291   6.231
 6530SOL    HW231653   2.863   0.195   6.233
 6531SOL     OW31654   3.046   1.763   7.216
 6531SOL    HW131655   2.951   1.761   7.184
 6531SOL    HW231656   3.067   1.854   7.253
 6532SOL     OW31657   2.464   0.108   6.447
 6532SOL    HW131658   2.392   0.041   6.433
 6532SOL    HW231659   2.546   0.062   6.482
 6533SOL     OW31660   2.164   1.773   6.814
 6533SOL    HW131661   2.144   1.755   6.718
 6533SOL    HW231662   2.091   1.735   6.871
 6534SOL     OW31663   2.857   1.237   6.359
 6534SOL    HW131664   2.896   1.280   6.278
 6534SOL    HW231665   2.930   1.220   6.426
 6535SOL     OW31666   2.551   0.965   6.561
 6535SOL    HW131667   2.549   0.881   6.506
 6535SOL    HW231668   2.500   0.951   6.646
 6536SOL     OW31669   1.890   0.975   6.687
 6536SOL    HW131670   1.979   0.953   6.727
 6536SOL    HW231671   1.835   0.891   6.683
 6537SOL     OW31672   2.118   0.020   5.967
 6537SOL    HW131673   2.156   0.108   5.994
 6537SOL    HW231674   2.041  -0.004   6.027
 6538SOL     OW31675   2.534   0.637   7.295
 6538SOL    HW131676   2.486   0.688   7.224
 6538SOL    HW231677   2.627   0.616   7.265
 6539SOL     OW31678   1.940   1.107   5.787
 6539SOL    HW131679   1.930   1.010   5.766
 6539SOL    HW231680   1.993   1.152   5.715
 6540SOL     OW31681   3.637   0.219   6.388
 6540SOL    HW131682   3.592   0.201   6.475
 6540SOL    HW231683   3.735   0.236   6.404
 6541SOL     OW31684   2.685   1.195   6.640
 6541SOL    HW131685   2.636   1.110   6.621
 6541SOL    HW231686   2.755   1.210   6.571
 6542SOL     OW31687   3.023   0.618   5.849
 6542SOL    HW131688   3.075   0.690   5.895
 6542SOL    HW231689   3.036   0.625   5.751
 6543SOL     OW31690   3.384   1.433   7.176
 6543SOL    HW131691   3.369   1.335   7.190
 6543SOL    HW231692   3.301   1.475   7.140
 6544SOL     OW31693   2.141   0.875   6.916
 6544SOL    HW131694   2.105   0.785   6.942
 6544SOL    HW231695   2.102   0.945   6.976
 6545SOL     OW31696   2.643   1.501   5.574
 6545SOL    HW131697   2.618   1.578   5.633
 6545SOL    HW231698   2.707   1.441   5.622
 6546SOL     OW31699   2.461   1.708   6.608
 6546SOL    HW131700   2.481   1.678   6.515
 6546SOL    HW231701   2.386   1.653   6.645
 6547SOL     OW31702   2.604   1.119   6.325
 6547SOL    HW131703   2.693   1.165   6.325
 6547SOL    HW231704   2.597   1.059   6.404
 6548SOL     OW31705   2.782   1.466   5.994
 6548SOL    HW131706   2.832   1.454   5.909
 6548SOL    HW231707   2.728   1.383   6.013
 6549SOL     OW31708   1.972   0.813   6.394
 6549SOL    HW131709   2.067   0.804   6.362
 6549SOL    HW231710   1.938   0.905   6.373
 6550SOL     OW31711   1.909   0.930   7.321
 6550SOL    HW131712   1.824   0.881   7.302
 6550SOL    HW231713   1.936   0.917   7.416
 6551SOL     OW31714   2.806   1.839   7.027
 6551SOL    HW131715   2.778   1.752   7.068
 6551SOL    HW231716   2.750   1.913   7.064
 6552SOL     OW31717   3.035   1.186   6.557
 6552SOL    HW131718   3.019   1.280   6.588
 6552SOL    HW231719   3.038   1.125   6.637
 6553SOL     OW31720   2.309   0.457   7.321
 6553SOL    HW131721   2.345   0.404   7.244
 6553SOL    HW231722   2.370   0.534   7.339
 6554SOL     OW31723   2.373   0.874   5.893
 6554SOL    HW131724   2.323   0.939   5.837
 6554SOL    HW231725   2.315   0.795   5.912
 6555SOL     OW31726   3.454   0.905   6.591
 6555SOL    HW131727   3.473   0.944   6.500
 6555SOL    HW231728   3.408   0.974   6.647
 6556SOL     OW31729   3.146   0.348   6.887
 6556SOL    HW131730   3.217   0.320   6.951
 6556SOL    HW231731   3.093   0.268   6.859
 6557SOL     OW31732   1.847   0.047   6.088
 6557SOL    HW131733   1.760   0.034   6.041
 6557SOL    HW231734   1.855   0.142   6.118
 6558SOL     OW31735   3.068   0.148   7.329
 6558SOL    HW131736   3.127   0.164   7.409
 6558SOL    HW231737   3.015   0.231   7.310
 6559SOL     OW31738   2.284   1.567   7.154
 6559SOL    HW131739   2.226   1.632   7.203
 6559SOL    HW231740   2.346   1.617   7.094
 6560SOL     OW31741   3.640   1.454   7.095
 6560SOL    HW131742   3.668   1.547   7.117
 6560SOL    HW231743   3.547   1.438   7.128
 6561SOL     OW31744   2.890   0.567   6.645
 6561SOL    HW131745   2.976   0.618   6.644
 6561SOL    HW231746   2.896   0.493   6.712
 6562SOL     OW31747   2.294   1.513   6.217
 6562SOL    HW131748   2.292   1.414   6.230
 6562SOL    HW231749   2.203   1.546   6.194
 6563SOL     OW31750   2.935   1.630   6.805
 6563SOL    HW131751   2.861   1.694   6.823
 6563SOL    HW231752   3.014   1.679   6.767
 6564SOL     OW31753   2.144   1.760   7.304
 6564SOL    HW131754   2.187   1.844   7.270
 6564SOL    HW231755   2.169   1.747   7.400
 6565SOL     OW31756   2.004   1.296   7.175
 6565SOL    HW131757   1.983   1.201   7.148
 6565SOL    HW231758   1.935   1.357   7.137
 6566SOL     OW31759   2.093   1.661   6.579
 6566SOL    HW131760   2.035   1.581   6.593
 6566SOL    HW231761   2.117   1.668   6.482
 6567SOL     OW31762   2.839   0.182   6.434
 6567SOL    HW131763   2.935   0.183   6.462
 6567SOL    HW231764   2.784   0.139   6.506
 6568SOL     OW31765   2.901   1.188   5.950
 6568SOL    HW131766   2.981   1.224   5.998
 6568SOL    HW231767   2.859   1.115   6.006
 6569SOL     OW31768   3.492   0.455   6.314
 6569SOL    HW131769   3.511   0.541   6.361
 6569SOL    HW231770   3.560   0.386   6.342
 6570SOL     OW31771   2.635   1.127   5.800
 6570SOL    HW131772   2.707   1.186   5.765
 6570SOL    HW231773   2.675   1.043   5.836
 6571SOL     OW31774   2.706   0.103   5.652
 6571SOL    HW131775   2.781   0.037   5.664
 6571SOL    HW231776   2.737   0.194   5.680
 6572SOL     OW31777   2.385   0.532   6.264
 6572SOL    HW131778   2.423   0.443   6.290
 6572SOL    HW231779   2.452   0.582   6.209
 6573SOL     OW31780   2.373   1.090   6.918
 6573SOL    HW131781   2.469   1.070   6.938
 6573SOL    HW231782   2.362   1.188   6.900
 6574SOL     OW31783   3.595   1.133   6.887
 6574SOL    HW131784   3.609   1.231   6.901
 6574SOL    HW231785   3.652   1.102   6.811
 6575SOL     OW31786   2.078   1.242   5.579
 6575SOL    HW131787   2.070   1.254   5.480
 6575SOL    HW231788   2.137   1.313   5.617
 6576SOL     OW31789   2.505   1.681   5.739
 6576SOL    HW131790   2.480   1.776   5.723
 6576SOL    HW231791   2.472   1.653   5.829
 6577SOL     OW31792   3.155   1.104   6.963
 6577SOL    HW131793   3.099   1.063   7.034
 6577SOL    HW231794   3.135   1.202   6.957
 6578SOL     OW31795   2.422   1.720   6.963
 6578SOL    HW131796   2.471   1.800   6.927
 6578SOL    HW231797   2.330   1.718   6.924
 6579SOL     OW31798   2.065   0.601   7.325
 6579SOL    HW131799   2.082   0.502   7.330
 6579SOL    HW231800   2.129   0.649   7.386
 6580SOL     OW31801   3.504   1.562   6.564
 6580SOL    HW131802   3.476   1.655   6.588
 6580SOL    HW231803   3.554   1.521   6.640
 6581SOL     OW31804   1.900   0.935   6.125
 6581SOL    HW131805   1.907   1.034   6.112
 6581SOL    HW231806   1.809   0.912   6.159
 6582SOL     OW31807   2.409   0.733   7.063
 6582SOL    HW131808   2.315   0.703   7.044
 6582SOL    HW231809   2.418   0.830   7.040
 6583SOL     OW31810   3.476   1.109   6.375
 6583SOL    HW131811   3.438   1.198   6.348
 6583SOL    HW231812   3.476   1.047   6.297
 6584SOL     OW31813   2.634   0.515   6.544
 6584SOL    HW131814   2.726   0.543   6.571
 6584SOL    HW231815   2.566   0.566   6.598
 6585SOL     OW31816   2.487   1.366   6.771
 6585SOL    HW131817   2.400   1.365   6.722
 6585SOL    HW231818   2.553   1.306   6.724
 6586SOL     OW31819   2.053   0.708   6.685
 6586SOL    HW131820   2.091   0.767   6.756
 6586SOL    HW231821   2.036   0.761   6.603
 6587SOL     OW31822   2.224   1.354   6.983
 6587SOL    HW131823   2.243   1.442   7.027
 6587SOL    HW231824   2.129   1.328   7.001
 6588SOL     OW31825   3.467   1.670   7.331
 6588SOL    HW131826   3.436   1.592   7.276
 6588SOL    HW231827   3.436   1.755   7.289
 6589SOL     OW31828   3.175   1.208   6.052
 6589SOL    HW131829   3.274   1.212   6.068
 6589SOL    HW231830   3.158   1.194   5.954
 6590SOL     OW31831   2.528   0.374   6.000
 6590SOL    HW131832   2.430   0.368   5.980
 6590SOL    HW231833   2.547   0.331   6.088
 6591SOL     OW31834   3.448   0.057   6.259
 6591SOL    HW131835   3.443   0.098   6.168
 6591SOL    HW231836   3.529   0.091   6.306
 6592SOL     OW31837   3.051   0.813   6.952
 6592SOL    HW131838   3.150   0.822   6.942
 6592SOL    HW231839   3.007   0.815   6.862
 6593SOL     OW31840   2.545   0.773   6.354
 6593SOL    HW131841   2.567   0.695   6.412
 6593SOL    HW231842   2.554   0.747   6.258
 6594SOL     OW31843   3.210   1.480   6.566
 6594SOL    HW131844   3.124   1.437   6.595
 6594SOL    HW231845   3.199   1.520   6.475
 6595SOL     OW31846   3.213   0.465   6.241
 6595SOL    HW131847   3.212   0.457   6.142
 6595SOL    HW231848   3.302   0.437   6.276
 6596SOL     OW31849   2.940   1.481   8.074
 6596SOL    HW131850   3.031   1.515   8.097
 6596SOL    HW231851   2.912   1.519   7.986
 6597SOL     OW31852   3.451   1.277   7.932
 6597SOL    HW131853   3.462   1.361   7.986
 6597SOL    HW231854   3.541   1.240   7.909
 6598SOL     OW31855   3.531   0.559   8.796
 6598SOL    HW131856   3.433   0.551   8.818
 6598SOL    HW231857   3.584   0.548   8.880
 6599SOL     OW31858   2.198   0.196   7.401
 6599SOL    HW131859   2.111   0.193   7.352
 6599SOL    HW231860   2.249   0.278   7.373
 6600SOL     OW31861   3.063   0.096   8.734
 6600SOL    HW131862   2.987   0.051   8.781
 6600SOL    HW231863   3.092   0.041   8.656
 6601SOL     OW31864   2.801   0.876   9.111
 6601SOL    HW131865   2.766   0.851   9.021
 6601SOL    HW231866   2.725   0.897   9.172
 6602SOL     OW31867   2.408   1.550   7.805
 6602SOL    HW131868   2.364   1.559   7.894
 6602SOL    HW231869   2.479   1.480   7.809
 6603SOL     OW31870   2.426   0.083   7.527
 6603SOL    HW131871   2.514   0.111   7.488
 6603SOL    HW231872   2.354   0.146   7.497
 6604SOL     OW31873   3.396   1.068   8.910
 6604SOL    HW131874   3.304   1.073   8.872
 6604SOL    HW231875   3.461   1.106   8.844
 6605SOL     OW31876   3.296   1.075   8.591
 6605SOL    HW131877   3.221   1.064   8.656
 6605SOL    HW231878   3.333   1.168   8.597
 6606SOL     OW31879   2.792   1.330   8.891
 6606SOL    HW131880   2.735   1.393   8.837
 6606SOL    HW231881   2.825   1.256   8.832
 6607SOL     OW31882   2.335   1.223   8.100
 6607SOL    HW131883   2.268   1.177   8.159
 6607SOL    HW231884   2.427   1.191   8.123
 6608SOL     OW31885   3.182   0.537   9.140
 6608SOL    HW131886   3.278   0.541   9.166
 6608SOL    HW231887   3.138   0.461   9.187
 6609SOL     OW31888   2.265   1.392   7.584
 6609SOL    HW131889   2.329   1.408   7.509
 6609SOL    HW231890   2.289   1.450   7.662
 6610SOL     OW31891   2.416   0.348   8.394
 6610SOL    HW131892   2.492   0.413   8.390
 6610SOL    HW231893   2.446   0.259   8.361
 6611SOL     OW31894   2.113   0.774   7.812
 6611SOL    HW131895   2.128   0.708   7.886
 6611SOL    HW231896   2.063   0.853   7.847
 6612SOL     OW31897   2.699   1.719   7.989
 6612SOL    HW131898   2.764   1.652   7.953
 6612SOL    HW231899   2.689   1.795   7.925
 6613SOL     OW31900   3.591   1.601   7.731
 6613SOL    HW131901   3.687   1.575   7.724
 6613SOL    HW231902   3.567   1.661   7.655
 6614SOL     OW31903   3.503   0.294   8.502
 6614SOL    HW131904   3.554   0.366   8.455
 6614SOL    HW231905   3.408   0.321   8.511
 6615SOL     OW31906   2.903   0.323   7.771
 6615SOL    HW131907   2.928   0.417   7.792
 6615SOL    HW231908   2.904   0.269   7.855
 6616SOL     OW31909   2.027   1.036   8.956
 6616SOL    HW131910   2.123   1.051   8.974
 6616SOL    HW231911   1.989   0.974   9.025
 6617SOL     OW31912   2.353   0.681   7.499
 6617SOL    HW131913   2.313   0.760   7.452
 6617SOL    HW231914   2.442   0.660   7.459
 6618SOL     OW31915   2.526   1.605   8.197
 6618SOL    HW131916   2.599   1.628   8.133
 6618SOL    HW231917   2.455   1.552   8.151
 6619SOL     OW31918   2.868   0.637   8.951
 6619SOL    HW131919   2.901   0.554   8.998
 6619SOL    HW231920   2.941   0.705   8.950
 6620SOL     OW31921   3.472   1.437   8.173
 6620SOL    HW131922   3.468   1.472   8.266
 6620SOL    HW231923   3.531   1.496   8.117
 6621SOL     OW31924   2.203   1.258   7.849
 6621SOL    HW131925   2.249   1.232   7.934
 6621SOL    HW231926   2.223   1.190   7.778
 6622SOL     OW31927   3.061   0.313   7.560
 6622SOL    HW131928   3.155   0.283   7.578
 6622SOL    HW231929   3.009   0.313   7.646
 6623SOL     OW31930   2.213   0.518   8.655
 6623SOL    HW131931   2.203   0.431   8.607
 6623SOL    HW231932   2.149   0.585   8.618
 6624SOL     OW31933   3.295   0.798   8.693
 6624SOL    HW131934   3.299   0.892   8.658
 6624SOL    HW231935   3.388   0.767   8.715
 6625SOL     OW31936   2.248   0.290   7.814
 6625SOL    HW131937   2.202   0.330   7.893
 6625SOL    HW231938   2.196   0.309   7.732
 6626SOL     OW31939   3.376   1.817   8.726
 6626SOL    HW131940   3.319   1.768   8.660
 6626SOL    HW231941   3.462   1.844   8.683
 6627SOL     OW31942   3.671   0.535   8.581
 6627SOL    HW131943   3.728   0.617   8.583
 6627SOL    HW231944   3.612   0.534   8.661
 6628SOL     OW31945   3.688   1.761   8.494
 6628SOL    HW131946   3.734   1.771   8.582
 6628SOL    HW231947   3.755   1.764   8.421
 6629SOL     OW31948   2.801   0.501   8.056
 6629SOL    HW131949   2.877   0.529   8.115
 6629SOL    HW231950   2.757   0.581   8.017
 6630SOL     OW31951   3.036   0.965   7.573
 6630SOL    HW131952   3.073   0.915   7.651
 6630SOL    HW231953   2.966   0.910   7.528
 6631SOL     OW31954   2.878   0.387   9.194
 6631SOL    HW131955   2.941   0.392   9.271
 6631SOL    HW231956   2.786   0.365   9.227
 6632SOL     OW31957   2.913   1.772   7.560
 6632SOL    HW131958   2.947   1.685   7.525
 6632SOL    HW231959   2.881   1.760   7.654
 6633SOL     OW31960   2.594   0.039   9.092
 6633SOL    HW131961   2.601  -0.055   9.059
 6633SOL    HW231962   2.651   0.049   9.174
 6634SOL     OW31963   3.517   0.640   8.360
 6634SOL    HW131964   3.502   0.731   8.397
 6634SOL    HW231965   3.587   0.593   8.414
 6635SOL     OW31966   2.927   1.306   9.126
 6635SOL    HW131967   2.949   1.216   9.088
 6635SOL    HW231968   2.862   1.353   9.067
 6636SOL     OW31969   2.582   1.148   9.130
 6636SOL    HW131970   2.553   1.225   9.187
 6636SOL    HW231971   2.592   1.067   9.188
 6637SOL     OW31972   3.217   0.012   8.236
 6637SOL    HW131973   3.166   0.096   8.218
 6637SOL    HW231974   3.303   0.014   8.185
 6638SOL     OW31975   3.572   0.218   9.165
 6638SOL    HW131976   3.549   0.239   9.260
 6638SOL    HW231977   3.548   0.123   9.145
 6639SOL     OW31978   1.875   0.622   7.909
 6639SOL    HW131979   1.877   0.573   7.996
 6639SOL    HW231980   1.877   0.721   7.927
 6640SOL     OW31981   2.196   0.210   8.230
 6640SOL    HW131982   2.248   0.250   8.305
 6640SOL    HW231983   2.249   0.137   8.187
 6641SOL     OW31984   2.180   0.258   8.564
 6641SOL    HW131985   2.145   0.165   8.564
 6641SOL    HW231986   2.267   0.261   8.515
 6642SOL     OW31987   2.847   0.880   8.304
 6642SOL    HW131988   2.873   0.960   8.250
 6642SOL    HW231989   2.841   0.800   8.244
 6643SOL     OW31990   2.048   1.507   7.763
 6643SOL    HW131991   2.075   1.413   7.783
 6643SOL    HW231992   2.073   1.529   7.669
 6644SOL     OW31993   3.330   1.376   8.637
 6644SOL    HW131994   3.301   1.413   8.548
 6644SOL    HW231995   3.252   1.376   8.699
 6645SOL     OW31996   2.062   1.650   8.000
 6645SOL    HW131997   1.978   1.701   8.018
 6645SOL    HW231998   2.053   1.599   7.915
 6646SOL     OW31999   3.583   1.447   8.675
 6646SOL    HW132000   3.614   1.461   8.769
 6646SOL    HW232001   3.484   1.434   8.674
 6647SOL     OW32002   2.335   0.947   7.402
 6647SOL    HW132003   2.304   0.981   7.314
 6647SOL    HW232004   2.339   1.022   7.468
 6648SOL     OW32005   2.852   1.134   8.701
 6648SOL    HW132006   2.902   1.049   8.685
 6648SOL    HW232007   2.806   1.161   8.616
 6649SOL     OW32008   1.939   0.839   7.575
 6649SOL    HW132009   1.999   0.786   7.635
 6649SOL    HW232010   1.845   0.807   7.587
 6650SOL     OW32011   3.459   0.837   7.775
 6650SOL    HW132012   3.527   0.771   7.742
 6650SOL    HW232013   3.474   0.925   7.731
 6651SOL     OW32014   2.707   1.824   8.423
 6651SOL    HW132015   2.753   1.757   8.365
 6651SOL    HW232016   2.633   1.780   8.473
 6652SOL     OW32017   2.614   0.893   7.459
 6652SOL    HW132018   2.643   0.812   7.510
 6652SOL    HW232019   2.514   0.892   7.450
 6653SOL     OW32020   2.107   0.626   8.905
 6653SOL    HW132021   2.127   0.531   8.880
 6653SOL    HW232022   2.070   0.629   8.998
 6654SOL     OW32023   1.989   0.281   8.795
 6654SOL    HW132024   2.061   0.291   8.726
 6654SOL    HW232025   1.900   0.280   8.750
 6655SOL     OW32026   2.887   0.902   8.560
 6655SOL    HW132027   2.881   0.888   8.461
 6655SOL    HW232028   2.806   0.863   8.604
 6656SOL     OW32029   2.762   1.511   8.312
 6656SOL    HW132030   2.820   1.522   8.231
 6656SOL    HW232031   2.668   1.535   8.290
 6657SOL     OW32032   2.712   0.377   7.597
 6657SOL    HW132033   2.621   0.390   7.635
 6657SOL    HW232034   2.772   0.337   7.667
 6658SOL     OW32035   2.823   1.322   7.532
 6658SOL    HW132036   2.876   1.262   7.592
 6658SOL    HW232037   2.862   1.323   7.441
 6659SOL     OW32038   3.574   1.617   8.017
 6659SOL    HW132039   3.541   1.710   8.036
 6659SOL    HW232040   3.572   1.601   7.918
 6660SOL     OW32041   2.989   0.890   8.006
 6660SOL    HW132042   3.054   0.918   8.077
 6660SOL    HW232043   2.910   0.951   8.008
 6661SOL     OW32044   2.737   1.616   9.030
 6661SOL    HW132045   2.725   1.547   8.959
 6661SOL    HW232046   2.700   1.581   9.117
 6662SOL     OW32047   3.181   0.930   8.209
 6662SOL    HW132048   3.202   0.872   8.287
 6662SOL    HW232049   3.190   1.026   8.235
 6663SOL     OW32050   2.137   1.059   8.255
 6663SOL    HW132051   2.060   1.121   8.248
 6663SOL    HW232052   2.174   1.060   8.348
 6664SOL     OW32053   2.770   1.007   7.954
 6664SOL    HW132054   2.757   0.918   7.911
 6664SOL    HW232055   2.701   1.021   8.025
 6665SOL     OW32056   3.074   1.395   8.793
 6665SOL    HW132057   3.107   1.480   8.834
 6665SOL    HW232058   2.975   1.391   8.800
 6666SOL     OW32059   1.881   0.312   7.857
 6666SOL    HW132060   1.941   0.263   7.795
 6666SOL    HW232061   1.936   0.364   7.922
 6667SOL     OW32062   3.504   1.810   7.548
 6667SOL    HW132063   3.594   1.854   7.550
 6667SOL    HW232064   3.503   1.741   7.476
 6668SOL     OW32065   2.668   0.777   8.706
 6668SOL    HW132066   2.670   0.863   8.757
 6668SOL    HW232067   2.725   0.709   8.753
 6669SOL     OW32068   1.905   1.804   8.777
 6669SOL    HW132069   1.913   1.904   8.775
 6669SOL    HW232070   1.881   1.775   8.870
 6670SOL     OW32071   2.208   0.541   8.310
 6670SOL    HW132072   2.264   0.534   8.227
 6670SOL    HW232073   2.265   0.519   8.390
 6671SOL     OW32074   2.205   1.739   7.581
 6671SOL    HW132075   2.297   1.769   7.556
 6671SOL    HW232076   2.180   1.778   7.670
 6672SOL     OW32077   3.181   1.761   8.518
 6672SOL    HW132078   3.200   1.824   8.444
 6672SOL    HW232079   3.189   1.667   8.485
 6673SOL     OW32080   1.886   1.156   8.330
 6673SOL    HW132081   1.796   1.172   8.291
 6673SOL    HW232082   1.884   1.072   8.385
 6674SOL     OW32083   2.637   0.061   7.780
 6674SOL    HW132084   2.598   0.050   7.689
 6674SOL    HW232085   2.593   0.137   7.827
 6675SOL     OW32086   1.882   1.197   7.874
 6675SOL    HW132087   1.960   1.255   7.898
 6675SOL    HW232088   1.901   1.148   7.789
 6676SOL     OW32089   3.412   0.325   8.958
 6676SOL    HW132090   3.351   0.403   8.955
 6676SOL    HW232091   3.467   0.329   9.041
 6677SOL     OW32092   3.128   0.271   8.249
 6677SOL    HW132093   3.127   0.349   8.186
 6677SOL    HW232094   3.171   0.298   8.335
 6678SOL     OW32095   3.248   0.077   7.545
 6678SOL    HW132096   3.328   0.017   7.542
 6678SOL    HW232097   3.174   0.030   7.593
 6679SOL     OW32098   3.461   0.049   8.979
 6679SOL    HW132099   3.487   0.006   8.893
 6679SOL    HW232100   3.411   0.133   8.961
 6680SOL     OW32101   2.563   0.308   8.111
 6680SOL    HW132102   2.552   0.250   8.192
 6680SOL    HW232103   2.648   0.360   8.119
 6681SOL     OW32104   3.143   0.659   8.503
 6681SOL    HW132105   3.197   0.699   8.429
 6681SOL    HW232106   3.181   0.688   8.591
 6682SOL     OW32107   3.436   0.065   7.819
 6682SOL    HW132108   3.443   0.019   7.731
 6682SOL    HW232109   3.340   0.075   7.844
 6683SOL     OW32110   2.412   1.380   9.182
 6683SOL    HW132111   2.373   1.443   9.115
 6683SOL    HW232112   2.495   1.420   9.222
 6684SOL     OW32113   2.288   1.112   9.014
 6684SOL    HW132114   2.307   1.136   8.919
 6684SOL    HW232115   2.281   1.195   9.069
 6685SOL     OW32116   1.949   1.402   8.488
 6685SOL    HW132117   1.918   1.328   8.429
 6685SOL    HW232118   1.881   1.420   8.559
 6686SOL     OW32119   3.035   0.603   8.221
 6686SOL    HW132120   3.117   0.580   8.169
 6686SOL    HW232121   3.030   0.544   8.302
 6687SOL     OW32122   3.635   0.630   9.057
 6687SOL    HW132123   3.624   0.716   9.006
 6687SOL    HW232124   3.729   0.621   9.087
 6688SOL     OW32125   3.206   0.403   8.476
 6688SOL    HW132126   3.180   0.500   8.482
 6688SOL    HW232127   3.206   0.363   8.568
 6689SOL     OW32128   3.436   0.535   9.227
 6689SOL    HW132129   3.516   0.560   9.171
 6689SOL    HW232130   3.467   0.500   9.315
 6690SOL     OW32131   3.147   0.838   7.807
 6690SOL    HW132132   3.093   0.836   7.891
 6690SOL    HW232133   3.224   0.901   7.818
 6691SOL     OW32134   3.444   0.934   8.027
 6691SOL    HW132135   3.458   0.897   7.934
 6691SOL    HW232136   3.355   0.904   8.061
 6692SOL     OW32137   3.600   0.871   8.922
 6692SOL    HW132138   3.502   0.892   8.924
 6692SOL    HW232139   3.649   0.947   8.881
 6693SOL     OW32140   2.601   1.506   8.821
 6693SOL    HW132141   2.538   1.584   8.828
 6693SOL    HW232142   2.569   1.444   8.749
 6694SOL     OW32143   1.992   0.301   9.086
 6694SOL    HW132144   2.010   0.290   8.988
 6694SOL    HW232145   1.894   0.297   9.103
 6695SOL     OW32146   1.872   1.715   9.030
 6695SOL    HW132147   1.944   1.701   9.098
 6695SOL    HW232148   1.783   1.718   9.075
 6696SOL     OW32149   2.040   0.371   8.054
 6696SOL    HW132150   1.983   0.426   8.115
 6696SOL    HW232151   2.110   0.323   8.107
 6697SOL     OW32152   3.212   1.603   8.917
 6697SOL    HW132153   3.165   1.671   8.972
 6697SOL    HW232154   3.279   1.649   8.858
 6698SOL     OW32155   2.177   0.562   7.652
 6698SOL    HW132156   2.249   0.591   7.589
 6698SOL    HW232157   2.133   0.642   7.692
 6699SOL     OW32158   3.563   0.224   8.755
 6699SOL    HW132159   3.519   0.272   8.831
 6699SOL    HW232160   3.541   0.270   8.669
 6700SOL     OW32161   2.292   1.825   8.118
 6700SOL    HW132162   2.216   1.791   8.063
 6700SOL    HW232163   2.378   1.788   8.083
 6701SOL     OW32164   2.217   1.334   8.563
 6701SOL    HW132165   2.229   1.350   8.660
 6701SOL    HW232166   2.130   1.374   8.533
 6702SOL     OW32167   3.101   1.538   9.209
 6702SOL    HW132168   3.060   1.453   9.175
 6702SOL    HW232169   3.081   1.612   9.145
 6703SOL     OW32170   2.591   1.258   7.899
 6703SOL    HW132171   2.634   1.189   7.841
 6703SOL    HW232172   2.555   1.215   7.982
 6704SOL     OW32173   2.069   0.289   7.616
 6704SOL    HW132174   2.113   0.258   7.533
 6704SOL    HW232175   2.070   0.389   7.620
 6705SOL     OW32176   1.922   0.541   8.227
 6705SOL    HW132177   1.886   0.634   8.219
 6705SOL    HW232178   2.005   0.542   8.283
 6706SOL     OW32179   2.357   1.128   7.613
 6706SOL    HW132180   2.457   1.128   7.624
 6706SOL    HW232181   2.326   1.221   7.592
 6707SOL     OW32182   2.983   0.720   7.429
 6707SOL    HW132183   2.914   0.777   7.385
 6707SOL    HW232184   3.064   0.714   7.370
 6708SOL     OW32185   2.718   0.639   7.572
 6708SOL    HW132186   2.808   0.640   7.527
 6708SOL    HW232187   2.695   0.545   7.597
 6709SOL     OW32188   3.169   0.156   7.866
 6709SOL    HW132189   3.079   0.140   7.907
 6709SOL    HW232190   3.177   0.252   7.840
 6710SOL     OW32191   3.283   0.556   8.882
 6710SOL    HW132192   3.235   0.579   8.966
 6710SOL    HW232193   3.217   0.526   8.813
 6711SOL     OW32194   1.918   0.071   7.526
 6711SOL    HW132195   1.981  -0.006   7.534
 6711SOL    HW232196   1.938   0.139   7.597
 6712SOL     OW32197   2.191   1.046   8.527
 6712SOL    HW132198   2.202   1.001   8.616
 6712SOL    HW232199   2.218   1.142   8.534
 6713SOL     OW32200   3.490   1.058   7.627
 6713SOL    HW132201   3.561   1.128   7.629
 6713SOL    HW232202   3.477   1.028   7.532
 6714SOL     OW32203   2.472   0.659   8.549
 6714SOL    HW132204   2.547   0.702   8.598
 6714SOL    HW232205   2.405   0.624   8.615
 6715SOL     OW32206   2.615   1.028   8.866
 6715SOL    HW132207   2.684   1.080   8.816
 6715SOL    HW232208   2.610   1.061   8.961
 6716SOL     OW32209   3.007   1.049   9.026
 6716SOL    HW132210   2.929   0.995   9.059
 6716SOL    HW232211   3.088   1.027   9.081
 6717SOL     OW32212   2.936   0.231   8.022
 6717SOL    HW132213   2.995   0.291   8.077
 6717SOL    HW232214   2.863   0.195   8.079
 6718SOL     OW32215   3.046   1.763   9.062
 6718SOL    HW132216   2.951   1.761   9.030
 6718SOL    HW232217   3.067   1.854   9.099
 6719SOL     OW32218   2.464   0.108   8.293
 6719SOL    HW132219   2.392   0.041   8.279
 6719SOL    HW232220   2.546   0.062   8.328
 6720SOL     OW32221   2.164   1.773   8.660
 6720SOL    HW132222   2.144   1.755   8.564
 6720SOL    HW232223   2.091   1.735   8.717
 6721SOL     OW32224   2.857   1.237   8.205
 6721SOL    HW132225   2.896   1.280   8.124
 6721SOL    HW232226   2.930   1.220   8.272
 6722SOL     OW32227   2.551   0.965   8.407
 6722SOL    HW132228   2.549   0.881   8.352
 6722SOL    HW232229   2.500   0.951   8.492
 6723SOL     OW32230   1.890   0.975   8.533
 6723SOL    HW132231   1.979   0.953   8.573
 6723SOL    HW232232   1.835   0.891   8.529
 6724SOL     OW32233   2.118   0.020   7.813
 6724SOL    HW132234   2.156   0.108   7.840
 6724SOL    HW232235   2.041  -0.004   7.873
 6725SOL     OW32236   2.534   0.637   9.141
 6725SOL    HW132237   2.486   0.688   9.070
 6725SOL    HW232238   2.627   0.616   9.111
 6726SOL     OW32239   1.940   1.107   7.633
 6726SOL    HW132240   1.930   1.010   7.612
 6726SOL    HW232241   1.993   1.152   7.561
 6727SOL     OW32242   3.637   0.219   8.234
 6727SOL    HW132243   3.592   0.201   8.321
 6727SOL    HW232244   3.735   0.236   8.250
 6728SOL     OW32245   2.685   1.195   8.486
 6728SOL    HW132246   2.636   1.110   8.467
 6728SOL    HW232247   2.755   1.210   8.417
 6729SOL     OW32248   3.023   0.618   7.695
 6729SOL    HW132249   3.075   0.690   7.741
 6729SOL    HW232250   3.036   0.625   7.597
 6730SOL     OW32251   3.384   1.433   9.022
 6730SOL    HW132252   3.369   1.335   9.036
 6730SOL    HW232253   3.301   1.475   8.986
 6731SOL     OW32254   2.141   0.875   8.762
 6731SOL    HW132255   2.105   0.785   8.788
 6731SOL    HW232256   2.102   0.945   8.822
 6732SOL     OW32257   2.643   1.501   7.420
 6732SOL    HW132258   2.618   1.578   7.479
 6732SOL    HW232259   2.707   1.441   7.468
 6733SOL     OW32260   2.461   1.708   8.454
 6733SOL    HW132261   2.481   1.678   8.361
 6733SOL    HW232262   2.386   1.653   8.491
 6734SOL     OW32263   2.604   1.119   8.171
 6734SOL    HW132264   2.693   1.165   8.171
 6734SOL    HW232265   2.597   1.059   8.250
 6735SOL     OW32266   2.782   1.466   7.840
 6735SOL    HW132267   2.832   1.454   7.755
 6735SOL    HW232268   2.728   1.383   7.859
 6736SOL     OW32269   1.972   0.813   8.240
 6736SOL    HW132270   2.067   0.804   8.208
 6736SOL    HW232271   1.938   0.905   8.219
 6737SOL     OW32272   1.909   0.930   9.167
 6737SOL    HW132273   1.824   0.881   9.148
 6737SOL    HW232274   1.936   0.917   9.262
 6738SOL     OW32275   2.806   1.839   8.873
 6738SOL    HW132276   2.778   1.752   8.914
 6738SOL    HW232277   2.750   1.913   8.910
 6739SOL     OW32278   3.035   1.186   8.403
 6739SOL    HW132279   3.019   1.280   8.434
 6739SOL    HW232280   3.038   1.125   8.483
 6740SOL     OW32281   2.309   0.457   9.167
 6740SOL    HW132282   2.345   0.404   9.090
 6740SOL    HW232283   2.370   0.534   9.185
 6741SOL     OW32284   3.454   0.905   8.437
 6741SOL    HW132285   3.473   0.944   8.346
 6741SOL    HW232286   3.408   0.974   8.493
 6742SOL     OW32287   3.146   0.348   8.733
 6742SOL    HW132288   3.217   0.320   8.797
 6742SOL    HW232289   3.093   0.268   8.705
 6743SOL     OW32290   1.847   0.047   7.934
 6743SOL    HW132291   1.760   0.034   7.887
 6743SOL    HW232292   1.855   0.142   7.964
 6744SOL     OW32293   3.068   0.148   9.175
 6744SOL    HW132294   3.127   0.164   9.255
 6744SOL    HW232295   3.015   0.231   9.156
 6745SOL     OW32296   2.284   1.567   9.000
 6745SOL    HW132297   2.226   1.632   9.049
 6745SOL    HW232298   2.346   1.617   8.940
 6746SOL     OW32299   3.640   1.454   8.941
 6746SOL    HW132300   3.668   1.547   8.963
 6746SOL    HW232301   3.547   1.438   8.974
 6747SOL     OW32302   2.890   0.567   8.491
 6747SOL    HW132303   2.976   0.618   8.490
 6747SOL    HW232304   2.896   0.493   8.558
 6748SOL     OW32305   2.294   1.513   8.063
 6748SOL    HW132306   2.292   1.414   8.076
 6748SOL    HW232307   2.203   1.546   8.040
 6749SOL     OW32308   2.935   1.630   8.651
 6749SOL    HW132309   2.861   1.694   8.669
 6749SOL    HW232310   3.014   1.679   8.613
 6750SOL     OW32311   2.144   1.760   9.150
 6750SOL    HW132312   2.187   1.844   9.116
 6750SOL    HW232313   2.169   1.747   9.246
 6751SOL     OW32314   2.004   1.296   9.021
 6751SOL    HW132315   1.983   1.201   8.994
 6751SOL    HW232316   1.935   1.357   8.983
 6752SOL     OW32317   2.093   1.661   8.425
 6752SOL    HW132318   2.035   1.581   8.439
 6752SOL    HW232319   2.117   1.668   8.328
 6753SOL     OW32320   2.839   0.182   8.280
 6753SOL    HW132321   2.935   0.183   8.308
 6753SOL    HW232322   2.784   0.139   8.352
 6754SOL     OW32323   2.901   1.188   7.796
 6754SOL    HW132324   2.981   1.224   7.844
 6754SOL    HW232325   2.859   1.115   7.852
 6755SOL     OW32326   3.492   0.455   8.160
 6755SOL    HW132327   3.511   0.541   8.207
 6755SOL    HW232328   3.560   0.386   8.188
 6756SOL     OW32329   2.635   1.127   7.646
 6756SOL    HW132330   2.707   1.186   7.611
 6756SOL    HW232331   2.675   1.043   7.682
 6757SOL     OW32332   2.706   0.103   7.498
 6757SOL    HW132333   2.781   0.037   7.510
 6757SOL    HW232334   2.737   0.194   7.526
 6758SOL     OW32335   2.385   0.532   8.110
 6758SOL    HW132336   2.423   0.443   8.136
 6758SOL    HW232337   2.452   0.582   8.055
 6759SOL     OW32338   2.373   1.090   8.764
 6759SOL    HW132339   2.469   1.070   8.784
 6759SOL    HW232340   2.362   1.188   8.746
 6760SOL     OW32341   3.595   1.133   8.733
 6760SOL    HW132342   3.609   1.231   8.747
 6760SOL    HW232343   3.652   1.102   8.657
 6761SOL     OW32344   2.078   1.242   7.425
 6761SOL    HW132345   2.070   1.254   7.326
 6761SOL    HW232346   2.137   1.313   7.463
 6762SOL     OW32347   2.505   1.681   7.585
 6762SOL    HW132348   2.480   1.776   7.569
 6762SOL    HW232349   2.472   1.653   7.675
 6763SOL     OW32350   3.155   1.104   8.809
 6763SOL    HW132351   3.099   1.063   8.880
 6763SOL    HW232352   3.135   1.202   8.803
 6764SOL     OW32353   2.422   1.720   8.809
 6764SOL    HW132354   2.471   1.800   8.773
 6764SOL    HW232355   2.330   1.718   8.770
 6765SOL     OW32356   2.065   0.601   9.171
 6765SOL    HW132357   2.082   0.502   9.176
 6765SOL    HW232358   2.129   0.649   9.232
 6766SOL     OW32359   3.504   1.562   8.410
 6766SOL    HW132360   3.476   1.655   8.434
 6766SOL    HW232361   3.554   1.521   8.486
 6767SOL     OW32362   1.900   0.935   7.971
 6767SOL    HW132363   1.907   1.034   7.958
 6767SOL    HW232364   1.809   0.912   8.005
 6768SOL     OW32365   2.409   0.733   8.909
 6768SOL    HW132366   2.315   0.703   8.890
 6768SOL    HW232367   2.418   0.830   8.886
 6769SOL     OW32368   3.476   1.109   8.221
 6769SOL    HW132369   3.438   1.198   8.194
 6769SOL    HW232370   3.476   1.047   8.143
 6770SOL     OW32371   2.634   0.515   8.390
 6770SOL    HW132372   2.726   0.543   8.417
 6770SOL    HW232373   2.566   0.566   8.444
 6771SOL     OW32374   2.487   1.366   8.617
 6771SOL    HW132375   2.400   1.365   8.568
 6771SOL    HW232376   2.553   1.306   8.570
 6772SOL     OW32377   2.053   0.708   8.531
 6772SOL    HW132378   2.091   0.767   8.602
 6772SOL    HW232379   2.036   0.761   8.449
 6773SOL     OW32380   2.224   1.354   8.829
 6773SOL    HW132381   2.243   1.442   8.873
 6773SOL    HW232382   2.129   1.328   8.847
 6774SOL     OW32383   3.467   1.670   9.177
 6774SOL    HW132384   3.436   1.592   9.122
 6774SOL    HW232385   3.436   1.755   9.135
 6775SOL     OW32386   3.175   1.208   7.898
 6775SOL    HW132387   3.274   1.212   7.914
 6775SOL    HW232388   3.158   1.194   7.800
 6776SOL     OW32389   2.528   0.374   7.846
 6776SOL    HW132390   2.430   0.368   7.826
 6776SOL    HW232391   2.547   0.331   7.934
 6777SOL     OW32392   3.448   0.057   8.105
 6777SOL    HW132393   3.443   0.098   8.014
 6777SOL    HW232394   3.529   0.091   8.152
 6778SOL     OW32395   3.051   0.813   8.798
 6778SOL    HW132396   3.150   0.822   8.788
 6778SOL    HW232397   3.007   0.815   8.708
 6779SOL     OW32398   3.210   1.480   8.412
 6779SOL    HW132399   3.124   1.437   8.441
 6779SOL    HW232400   3.199   1.520   8.321
 6780SOL     OW32401   3.213   0.465   8.087
 6780SOL    HW132402   3.212   0.457   7.988
 6780SOL    HW232403   3.302   0.437   8.122
 6781SOL     OW32404   2.940   1.481   9.919
 6781SOL    HW132405   3.031   1.515   9.942
 6781SOL    HW232406   2.912   1.519   9.831
 6782SOL     OW32407   3.451   1.277   9.777
 6782SOL    HW132408   3.462   1.361   9.831
 6782SOL    HW232409   3.541   1.240   9.754
 6783SOL     OW32410   2.198   0.196   9.246
 6783SOL    HW132411   2.111   0.193   9.197
 6783SOL    HW232412   2.249   0.278   9.218
 6784SOL     OW32413   2.408   1.550   9.650
 6784SOL    HW132414   2.364   1.559   9.739
 6784SOL    HW232415   2.479   1.480   9.654
 6785SOL     OW32416   2.426   0.083   9.372
 6785SOL    HW132417   2.514   0.111   9.333
 6785SOL    HW232418   2.354   0.146   9.342
 6786SOL     OW32419   2.335   1.223   9.945
 6786SOL    HW132420   2.268   1.177  10.004
 6786SOL    HW232421   2.427   1.191   9.968
 6787SOL     OW32422   2.562   0.629   9.776
 6787SOL    HW132423   2.601   0.699   9.717
 6787SOL    HW232424   2.536   0.549   9.722
 6788SOL     OW32425   2.265   1.392   9.429
 6788SOL    HW132426   2.329   1.408   9.354
 6788SOL    HW232427   2.289   1.450   9.507
 6789SOL     OW32428   2.113   0.774   9.657
 6789SOL    HW132429   2.128   0.708   9.731
 6789SOL    HW232430   2.063   0.853   9.692
 6790SOL     OW32431   2.699   1.719   9.834
 6790SOL    HW132432   2.764   1.652   9.798
 6790SOL    HW232433   2.689   1.795   9.770
 6791SOL     OW32434   3.591   1.601   9.576
 6791SOL    HW132435   3.687   1.575   9.569
 6791SOL    HW232436   3.567   1.661   9.500
 6792SOL     OW32437   2.903   0.323   9.616
 6792SOL    HW132438   2.928   0.417   9.637
 6792SOL    HW232439   2.904   0.269   9.700
 6793SOL     OW32440   2.353   0.681   9.344
 6793SOL    HW132441   2.313   0.760   9.297
 6793SOL    HW232442   2.442   0.660   9.304
 6794SOL     OW32443   3.472   1.437  10.018
 6794SOL    HW132444   3.468   1.472  10.111
 6794SOL    HW232445   3.531   1.496   9.962
 6795SOL     OW32446   2.203   1.258   9.694
 6795SOL    HW132447   2.249   1.232   9.779
 6795SOL    HW232448   2.223   1.190   9.623
 6796SOL     OW32449   3.061   0.313   9.405
 6796SOL    HW132450   3.155   0.283   9.423
 6796SOL    HW232451   3.009   0.313   9.491
 6797SOL     OW32452   2.248   0.290   9.659
 6797SOL    HW132453   2.202   0.330   9.738
 6797SOL    HW232454   2.196   0.309   9.577
 6798SOL     OW32455   3.688   1.761  10.339
 6798SOL    HW132456   3.734   1.771  10.427
 6798SOL    HW232457   3.755   1.764  10.266
 6799SOL     OW32458   2.801   0.501   9.901
 6799SOL    HW132459   2.877   0.529   9.960
 6799SOL    HW232460   2.757   0.581   9.862
 6800SOL     OW32461   3.036   0.965   9.418
 6800SOL    HW132462   3.073   0.915   9.496
 6800SOL    HW232463   2.966   0.910   9.373
 6801SOL     OW32464   3.619   0.634   9.497
 6801SOL    HW132465   3.640   0.553   9.443
 6801SOL    HW232466   3.636   0.615   9.594
 6802SOL     OW32467   2.913   1.772   9.405
 6802SOL    HW132468   2.947   1.685   9.370
 6802SOL    HW232469   2.881   1.760   9.499
 6803SOL     OW32470   1.875   0.622   9.754
 6803SOL    HW132471   1.877   0.573   9.841
 6803SOL    HW232472   1.877   0.721   9.772
 6804SOL     OW32473   2.048   1.507   9.608
 6804SOL    HW132474   2.075   1.413   9.628
 6804SOL    HW232475   2.073   1.529   9.514
 6805SOL     OW32476   2.062   1.650   9.845
 6805SOL    HW132477   1.978   1.701   9.863
 6805SOL    HW232478   2.053   1.599   9.760
 6806SOL     OW32479   2.335   0.947   9.247
 6806SOL    HW132480   2.304   0.981   9.159
 6806SOL    HW232481   2.339   1.022   9.313
 6807SOL     OW32482   1.939   0.839   9.420
 6807SOL    HW132483   1.999   0.786   9.480
 6807SOL    HW232484   1.845   0.807   9.432
 6808SOL     OW32485   3.459   0.837   9.620
 6808SOL    HW132486   3.527   0.771   9.587
 6808SOL    HW232487   3.474   0.925   9.576
 6809SOL     OW32488   2.614   0.893   9.304
 6809SOL    HW132489   2.643   0.812   9.355
 6809SOL    HW232490   2.514   0.892   9.295
 6810SOL     OW32491   3.210   0.425   9.650
 6810SOL    HW132492   3.147   0.483   9.598
 6810SOL    HW232493   3.303   0.459   9.638
 6811SOL     OW32494   3.478   0.436   9.720
 6811SOL    HW132495   3.574   0.407   9.717
 6811SOL    HW232496   3.439   0.414   9.809
 6812SOL     OW32497   2.712   0.377   9.442
 6812SOL    HW132498   2.621   0.390   9.480
 6812SOL    HW232499   2.772   0.337   9.512
 6813SOL     OW32500   2.823   1.322   9.377
 6813SOL    HW132501   2.876   1.262   9.437
 6813SOL    HW232502   2.862   1.323   9.286
 6814SOL     OW32503   3.574   1.617   9.862
 6814SOL    HW132504   3.541   1.710   9.881
 6814SOL    HW232505   3.572   1.601   9.763
 6815SOL     OW32506   2.989   0.890   9.851
 6815SOL    HW132507   3.054   0.918   9.922
 6815SOL    HW232508   2.910   0.951   9.853
 6816SOL     OW32509   3.181   0.930  10.054
 6816SOL    HW132510   3.202   0.872  10.132
 6816SOL    HW232511   3.190   1.026  10.080
 6817SOL     OW32512   2.770   1.007   9.799
 6817SOL    HW132513   2.757   0.918   9.756
 6817SOL    HW232514   2.701   1.021   9.870
 6818SOL     OW32515   1.881   0.312   9.702
 6818SOL    HW132516   1.941   0.263   9.640
 6818SOL    HW232517   1.936   0.364   9.767
 6819SOL     OW32518   3.504   1.810   9.393
 6819SOL    HW132519   3.594   1.854   9.395
 6819SOL    HW232520   3.503   1.741   9.321
 6820SOL     OW32521   2.686   0.823   9.616
 6820SOL    HW132522   2.597   0.851   9.581
 6820SOL    HW232523   2.727   0.757   9.552
 6821SOL     OW32524   2.205   1.739   9.426
 6821SOL    HW132525   2.297   1.769   9.401
 6821SOL    HW232526   2.180   1.778   9.515
 6822SOL     OW32527   2.637   0.061   9.625
 6822SOL    HW132528   2.598   0.050   9.534
 6822SOL    HW232529   2.593   0.137   9.672
 6823SOL     OW32530   1.882   1.197   9.719
 6823SOL    HW132531   1.960   1.255   9.743
 6823SOL    HW232532   1.901   1.148   9.634
 6824SOL     OW32533   2.563   0.308   9.956
 6824SOL    HW132534   2.552   0.250  10.037
 6824SOL    HW232535   2.648   0.360   9.964
 6825SOL     OW32536   3.147   0.838   9.652
 6825SOL    HW132537   3.093   0.836   9.736
 6825SOL    HW232538   3.224   0.901   9.663
 6826SOL     OW32539   3.444   0.934   9.872
 6826SOL    HW132540   3.458   0.897   9.779
 6826SOL    HW232541   3.355   0.904   9.906
 6827SOL     OW32542   3.454   0.291   9.446
 6827SOL    HW132543   3.459   0.333   9.537
 6827SOL    HW232544   3.387   0.216   9.448
 6828SOL     OW32545   2.177   0.562   9.497
 6828SOL    HW132546   2.249   0.591   9.434
 6828SOL    HW232547   2.133   0.642   9.537
 6829SOL     OW32548   2.292   1.825   9.963
 6829SOL    HW132549   2.216   1.791   9.908
 6829SOL    HW232550   2.378   1.788   9.928
 6830SOL     OW32551   2.591   1.258   9.744
 6830SOL    HW132552   2.634   1.189   9.686
 6830SOL    HW232553   2.555   1.215   9.827
 6831SOL     OW32554   2.069   0.289   9.461
 6831SOL    HW132555   2.113   0.258   9.378
 6831SOL    HW232556   2.070   0.389   9.465
 6832SOL     OW32557   1.922   0.541  10.072
 6832SOL    HW132558   1.886   0.634  10.064
 6832SOL    HW232559   2.005   0.542  10.128
 6833SOL     OW32560   2.357   1.128   9.458
 6833SOL    HW132561   2.457   1.128   9.469
 6833SOL    HW232562   2.326   1.221   9.437
 6834SOL     OW32563   2.983   0.720   9.274
 6834SOL    HW132564   2.914   0.777   9.230
 6834SOL    HW232565   3.064   0.714   9.215
 6835SOL     OW32566   2.718   0.639   9.417
 6835SOL    HW132567   2.808   0.640   9.372
 6835SOL    HW232568   2.695   0.545   9.442
 6836SOL     OW32569   3.169   0.156   9.711
 6836SOL    HW132570   3.079   0.140   9.752
 6836SOL    HW232571   3.177   0.252   9.685
 6837SOL     OW32572   1.918   0.071   9.371
 6837SOL    HW132573   1.981  -0.006   9.379
 6837SOL    HW232574   1.938   0.139   9.442
 6838SOL     OW32575   3.490   1.058   9.472
 6838SOL    HW132576   3.561   1.128   9.474
 6838SOL    HW232577   3.477   1.028   9.377
 6839SOL     OW32578   2.936   0.231   9.867
 6839SOL    HW132579   2.995   0.291   9.922
 6839SOL    HW232580   2.863   0.195   9.924
 6840SOL     OW32581   2.118   0.020   9.658
 6840SOL    HW132582   2.156   0.108   9.685
 6840SOL    HW232583   2.041  -0.004   9.718
 6841SOL     OW32584   1.940   1.107   9.478
 6841SOL    HW132585   1.930   1.010   9.457
 6841SOL    HW232586   1.993   1.152   9.406
 6842SOL     OW32587   3.637   0.219  10.079
 6842SOL    HW132588   3.592   0.201  10.166
 6842SOL    HW232589   3.735   0.236  10.095
 6843SOL     OW32590   3.023   0.618   9.540
 6843SOL    HW132591   3.075   0.690   9.586
 6843SOL    HW232592   3.036   0.625   9.442
 6844SOL     OW32593   2.643   1.501   9.265
 6844SOL    HW132594   2.618   1.578   9.324
 6844SOL    HW232595   2.707   1.441   9.313
 6845SOL     OW32596   2.604   1.119  10.016
 6845SOL    HW132597   2.693   1.165  10.016
 6845SOL    HW232598   2.597   1.059  10.095
 6846SOL     OW32599   2.782   1.466   9.685
 6846SOL    HW132600   2.832   1.454   9.600
 6846SOL    HW232601   2.728   1.383   9.704
 6847SOL     OW32602   2.373   0.874   9.584
 6847SOL    HW132603   2.323   0.939   9.528
 6847SOL    HW232604   2.315   0.795   9.603
 6848SOL     OW32605   1.847   0.047   9.779
 6848SOL    HW132606   1.760   0.034   9.732
 6848SOL    HW232607   1.855   0.142   9.809
 6849SOL     OW32608   2.294   1.513   9.908
 6849SOL    HW132609   2.292   1.414   9.921
 6849SOL    HW232610   2.203   1.546   9.885
 6850SOL     OW32611   2.901   1.188   9.641
 6850SOL    HW132612   2.981   1.224   9.689
 6850SOL    HW232613   2.859   1.115   9.697
 6851SOL     OW32614   3.492   0.455  10.005
 6851SOL    HW132615   3.511   0.541  10.052
 6851SOL    HW232616   3.560   0.386  10.033
 6852SOL     OW32617   2.635   1.127   9.491
 6852SOL    HW132618   2.707   1.186   9.456
 6852SOL    HW232619   2.675   1.043   9.527
 6853SOL     OW32620   2.706   0.103   9.343
 6853SOL    HW132621   2.781   0.037   9.355
 6853SOL    HW232622   2.737   0.194   9.371
 6854SOL     OW32623   2.385   0.532   9.955
 6854SOL    HW132624   2.423   0.443   9.981
 6854SOL    HW232625   2.452   0.582   9.900
 6855SOL     OW32626   2.078   1.242   9.270
 6855SOL    HW132627   2.070   1.254   9.171
 6855SOL    HW232628   2.137   1.313   9.308
 6856SOL     OW32629   2.505   1.681   9.430
 6856SOL    HW132630   2.480   1.776   9.414
 6856SOL    HW232631   2.472   1.653   9.520
 6857SOL     OW32632   1.900   0.935   9.816
 6857SOL    HW132633   1.907   1.034   9.803
 6857SOL    HW232634   1.809   0.912   9.850
 6858SOL     OW32635   3.175   1.208   9.743
 6858SOL    HW132636   3.274   1.212   9.759
 6858SOL    HW232637   3.158   1.194   9.645
 6859SOL     OW32638   2.528   0.374   9.691
 6859SOL    HW132639   2.430   0.368   9.671
 6859SOL    HW232640   2.547   0.331   9.779
 6860SOL     OW32641   3.213   0.465   9.932
 6860SOL    HW132642   3.212   0.457   9.833
 6860SOL    HW232643   3.302   0.437   9.967
 6861SOL     OW32644   2.940   3.326   0.692
 6861SOL    HW132645   3.031   3.360   0.715
 6861SOL    HW232646   2.912   3.364   0.604
 6862SOL     OW32647   3.451   3.122   0.550
 6862SOL    HW132648   3.462   3.206   0.604
 6862SOL    HW232649   3.541   3.085   0.527
 6863SOL     OW32650   2.198   2.041   0.019
 6863SOL    HW132651   2.111   2.038  -0.030
 6863SOL    HW232652   2.249   2.123  -0.009
 6864SOL     OW32653   3.185   3.430   0.794
 6864SOL    HW132654   3.174   3.527   0.817
 6864SOL    HW232655   3.278   3.413   0.764
 6865SOL     OW32656   3.063   1.941   1.352
 6865SOL    HW132657   2.987   1.896   1.399
 6865SOL    HW232658   3.092   1.886   1.274
 6866SOL     OW32659   2.801   2.721   1.729
 6866SOL    HW132660   2.766   2.696   1.639
 6866SOL    HW232661   2.725   2.742   1.790
 6867SOL     OW32662   2.426   1.928   0.145
 6867SOL    HW132663   2.514   1.956   0.106
 6867SOL    HW232664   2.354   1.991   0.115
 6868SOL     OW32665   3.396   2.913   1.528
 6868SOL    HW132666   3.304   2.918   1.490
 6868SOL    HW232667   3.461   2.951   1.462
 6869SOL     OW32668   3.296   2.920   1.209
 6869SOL    HW132669   3.221   2.909   1.274
 6869SOL    HW232670   3.333   3.013   1.215
 6870SOL     OW32671   2.335   3.068   0.718
 6870SOL    HW132672   2.268   3.022   0.777
 6870SOL    HW232673   2.427   3.036   0.741
 6871SOL     OW32674   2.562   2.474   0.549
 6871SOL    HW132675   2.601   2.544   0.490
 6871SOL    HW232676   2.536   2.394   0.495
 6872SOL     OW32677   3.182   2.382   1.758
 6872SOL    HW132678   3.278   2.386   1.784
 6872SOL    HW232679   3.138   2.306   1.805
 6873SOL     OW32680   2.265   3.237   0.202
 6873SOL    HW132681   2.329   3.253   0.127
 6873SOL    HW232682   2.289   3.295   0.280
 6874SOL     OW32683   2.416   2.193   1.012
 6874SOL    HW132684   2.492   2.258   1.008
 6874SOL    HW232685   2.446   2.104   0.979
 6875SOL     OW32686   2.113   2.619   0.430
 6875SOL    HW132687   2.128   2.553   0.504
 6875SOL    HW232688   2.063   2.698   0.465
 6876SOL     OW32689   2.699   3.564   0.607
 6876SOL    HW132690   2.764   3.497   0.571
 6876SOL    HW232691   2.689   3.640   0.543
 6877SOL     OW32692   3.591   3.446   0.349
 6877SOL    HW132693   3.687   3.420   0.342
 6877SOL    HW232694   3.567   3.506   0.273
 6878SOL     OW32695   2.903   2.168   0.389
 6878SOL    HW132696   2.928   2.262   0.410
 6878SOL    HW232697   2.904   2.114   0.473
 6879SOL     OW32698   2.353   2.526   0.117
 6879SOL    HW132699   2.313   2.605   0.070
 6879SOL    HW232700   2.442   2.505   0.077
 6880SOL     OW32701   2.868   2.482   1.569
 6880SOL    HW132702   2.901   2.399   1.616
 6880SOL    HW232703   2.941   2.550   1.568
 6881SOL     OW32704   3.472   3.282   0.791
 6881SOL    HW132705   3.468   3.317   0.884
 6881SOL    HW232706   3.531   3.341   0.735
 6882SOL     OW32707   2.203   3.103   0.467
 6882SOL    HW132708   2.249   3.077   0.552
 6882SOL    HW232709   2.223   3.035   0.396
 6883SOL     OW32710   2.213   2.363   1.273
 6883SOL    HW132711   2.203   2.276   1.225
 6883SOL    HW232712   2.149   2.430   1.236
 6884SOL     OW32713   3.295   2.643   1.311
 6884SOL    HW132714   3.299   2.737   1.276
 6884SOL    HW232715   3.388   2.612   1.333
 6885SOL     OW32716   2.248   2.135   0.432
 6885SOL    HW132717   2.202   2.175   0.511
 6885SOL    HW232718   2.196   2.154   0.350
 6886SOL     OW32719   3.376   3.662   1.344
 6886SOL    HW132720   3.319   3.613   1.278
 6886SOL    HW232721   3.462   3.689   1.301
 6887SOL     OW32722   3.688   3.606   1.112
 6887SOL    HW132723   3.734   3.616   1.200
 6887SOL    HW232724   3.755   3.609   1.039
 6888SOL     OW32725   2.801   2.346   0.674
 6888SOL    HW132726   2.877   2.374   0.733
 6888SOL    HW232727   2.757   2.426   0.635
 6889SOL     OW32728   3.036   2.810   0.191
 6889SOL    HW132729   3.073   2.760   0.269
 6889SOL    HW232730   2.966   2.755   0.146
 6890SOL     OW32731   2.878   2.232   1.812
 6890SOL    HW132732   2.941   2.237   1.889
 6890SOL    HW232733   2.786   2.210   1.845
 6891SOL     OW32734   2.913   3.617   0.178
 6891SOL    HW132735   2.947   3.530   0.143
 6891SOL    HW232736   2.881   3.605   0.272
 6892SOL     OW32737   2.594   1.884   1.710
 6892SOL    HW132738   2.601   1.790   1.677
 6892SOL    HW232739   2.651   1.894   1.792
 6893SOL     OW32740   2.927   3.151   1.744
 6893SOL    HW132741   2.949   3.061   1.706
 6893SOL    HW232742   2.862   3.198   1.685
 6894SOL     OW32743   2.582   2.993   1.748
 6894SOL    HW132744   2.553   3.070   1.805
 6894SOL    HW232745   2.592   2.912   1.806
 6895SOL     OW32746   3.217   1.857   0.854
 6895SOL    HW132747   3.166   1.941   0.836
 6895SOL    HW232748   3.303   1.859   0.803
 6896SOL     OW32749   3.572   2.063   1.783
 6896SOL    HW132750   3.549   2.084   1.878
 6896SOL    HW232751   3.548   1.968   1.763
 6897SOL     OW32752   1.875   2.467   0.527
 6897SOL    HW132753   1.877   2.418   0.614
 6897SOL    HW232754   1.877   2.566   0.545
 6898SOL     OW32755   2.196   2.055   0.848
 6898SOL    HW132756   2.248   2.095   0.923
 6898SOL    HW232757   2.249   1.982   0.805
 6899SOL     OW32758   2.180   2.103   1.182
 6899SOL    HW132759   2.145   2.010   1.182
 6899SOL    HW232760   2.267   2.106   1.133
 6900SOL     OW32761   2.847   2.725   0.922
 6900SOL    HW132762   2.873   2.805   0.868
 6900SOL    HW232763   2.841   2.645   0.862
 6901SOL     OW32764   3.330   3.221   1.255
 6901SOL    HW132765   3.301   3.258   1.166
 6901SOL    HW232766   3.252   3.221   1.317
 6902SOL     OW32767   3.583   3.292   1.293
 6902SOL    HW132768   3.614   3.306   1.387
 6902SOL    HW232769   3.484   3.279   1.292
 6903SOL     OW32770   2.335   2.792   0.020
 6903SOL    HW132771   2.304   2.826  -0.068
 6903SOL    HW232772   2.339   2.867   0.086
 6904SOL     OW32773   2.852   2.979   1.319
 6904SOL    HW132774   2.902   2.894   1.303
 6904SOL    HW232775   2.806   3.006   1.234
 6905SOL     OW32776   1.939   2.684   0.193
 6905SOL    HW132777   1.999   2.631   0.253
 6905SOL    HW232778   1.845   2.652   0.205
 6906SOL     OW32779   3.459   2.682   0.393
 6906SOL    HW132780   3.527   2.616   0.360
 6906SOL    HW232781   3.474   2.770   0.349
 6907SOL     OW32782   2.707   3.669   1.041
 6907SOL    HW132783   2.753   3.602   0.983
 6907SOL    HW232784   2.633   3.625   1.091
 6908SOL     OW32785   2.614   2.738   0.077
 6908SOL    HW132786   2.643   2.657   0.128
 6908SOL    HW232787   2.514   2.737   0.068
 6909SOL     OW32788   1.989   2.126   1.413
 6909SOL    HW132789   2.061   2.136   1.344
 6909SOL    HW232790   1.900   2.125   1.368
 6910SOL     OW32791   2.887   2.747   1.178
 6910SOL    HW132792   2.881   2.733   1.079
 6910SOL    HW232793   2.806   2.708   1.222
 6911SOL     OW32794   2.762   3.356   0.930
 6911SOL    HW132795   2.820   3.367   0.849
 6911SOL    HW232796   2.668   3.380   0.908
 6912SOL     OW32797   2.712   2.222   0.215
 6912SOL    HW132798   2.621   2.235   0.253
 6912SOL    HW232799   2.772   2.182   0.285
 6913SOL     OW32800   2.823   3.167   0.150
 6913SOL    HW132801   2.876   3.107   0.210
 6913SOL    HW232802   2.862   3.168   0.059
 6914SOL     OW32803   3.574   3.462   0.635
 6914SOL    HW132804   3.541   3.555   0.654
 6914SOL    HW232805   3.572   3.446   0.536
 6915SOL     OW32806   2.989   2.735   0.624
 6915SOL    HW132807   3.054   2.763   0.695
 6915SOL    HW232808   2.910   2.796   0.626
 6916SOL     OW32809   2.737   3.461   1.648
 6916SOL    HW132810   2.725   3.392   1.577
 6916SOL    HW232811   2.700   3.426   1.735
 6917SOL     OW32812   3.181   2.775   0.827
 6917SOL    HW132813   3.202   2.717   0.905
 6917SOL    HW232814   3.190   2.871   0.853
 6918SOL     OW32815   2.770   2.852   0.572
 6918SOL    HW132816   2.757   2.763   0.529
 6918SOL    HW232817   2.701   2.866   0.643
 6919SOL     OW32818   3.074   3.240   1.411
 6919SOL    HW132819   3.107   3.325   1.452
 6919SOL    HW232820   2.975   3.236   1.418
 6920SOL     OW32821   3.504   3.655   0.166
 6920SOL    HW132822   3.594   3.699   0.168
 6920SOL    HW232823   3.503   3.586   0.094
 6921SOL     OW32824   2.668   2.622   1.324
 6921SOL    HW132825   2.670   2.708   1.375
 6921SOL    HW232826   2.725   2.554   1.371
 6922SOL     OW32827   1.905   3.649   1.395
 6922SOL    HW132828   1.913   3.749   1.393
 6922SOL    HW232829   1.881   3.620   1.488
 6923SOL     OW32830   2.686   2.668   0.389
 6923SOL    HW132831   2.597   2.696   0.354
 6923SOL    HW232832   2.727   2.602   0.325
 6924SOL     OW32833   2.208   2.386   0.928
 6924SOL    HW132834   2.264   2.379   0.845
 6924SOL    HW232835   2.265   2.364   1.008
 6925SOL     OW32836   3.181   3.606   1.136
 6925SOL    HW132837   3.200   3.669   1.062
 6925SOL    HW232838   3.189   3.512   1.103
 6926SOL     OW32839   1.886   3.001   0.948
 6926SOL    HW132840   1.796   3.017   0.909
 6926SOL    HW232841   1.884   2.917   1.003
 6927SOL     OW32842   2.637   1.906   0.398
 6927SOL    HW132843   2.598   1.895   0.307
 6927SOL    HW232844   2.593   1.982   0.445
 6928SOL     OW32845   1.882   3.042   0.492
 6928SOL    HW132846   1.960   3.100   0.516
 6928SOL    HW232847   1.901   2.993   0.407
 6929SOL     OW32848   3.412   2.170   1.576
 6929SOL    HW132849   3.351   2.248   1.573
 6929SOL    HW232850   3.467   2.174   1.659
 6930SOL     OW32851   3.461   1.894   1.597
 6930SOL    HW132852   3.487   1.851   1.511
 6930SOL    HW232853   3.411   1.978   1.579
 6931SOL     OW32854   2.563   2.153   0.729
 6931SOL    HW132855   2.552   2.095   0.810
 6931SOL    HW232856   2.648   2.205   0.737
 6932SOL     OW32857   3.143   2.504   1.121
 6932SOL    HW132858   3.197   2.544   1.047
 6932SOL    HW232859   3.181   2.533   1.209
 6933SOL     OW32860   3.436   1.910   0.437
 6933SOL    HW132861   3.443   1.864   0.349
 6933SOL    HW232862   3.340   1.920   0.462
 6934SOL     OW32863   2.412   3.225   1.800
 6934SOL    HW132864   2.373   3.288   1.733
 6934SOL    HW232865   2.495   3.265   1.840
 6935SOL     OW32866   1.949   3.247   1.106
 6935SOL    HW132867   1.918   3.173   1.047
 6935SOL    HW232868   1.881   3.265   1.177
 6936SOL     OW32869   3.035   2.448   0.839
 6936SOL    HW132870   3.117   2.425   0.787
 6936SOL    HW232871   3.030   2.389   0.920
 6937SOL     OW32872   3.436   2.380   1.845
 6937SOL    HW132873   3.516   2.405   1.789
 6937SOL    HW232874   3.467   2.345   1.933
 6938SOL     OW32875   3.147   2.683   0.425
 6938SOL    HW132876   3.093   2.681   0.509
 6938SOL    HW232877   3.224   2.746   0.436
 6939SOL     OW32878   3.444   2.779   0.645
 6939SOL    HW132879   3.458   2.742   0.552
 6939SOL    HW232880   3.355   2.749   0.679
 6940SOL     OW32881   1.992   2.146   1.704
 6940SOL    HW132882   2.010   2.135   1.606
 6940SOL    HW232883   1.894   2.142   1.721
 6941SOL     OW32884   1.872   3.560   1.648
 6941SOL    HW132885   1.944   3.546   1.716
 6941SOL    HW232886   1.783   3.563   1.693
 6942SOL     OW32887   3.212   3.448   1.535
 6942SOL    HW132888   3.165   3.516   1.590
 6942SOL    HW232889   3.279   3.494   1.476
 6943SOL     OW32890   2.177   2.407   0.270
 6943SOL    HW132891   2.249   2.436   0.207
 6943SOL    HW232892   2.133   2.487   0.310
 6944SOL     OW32893   3.101   3.383   1.827
 6944SOL    HW132894   3.060   3.298   1.793
 6944SOL    HW232895   3.081   3.457   1.763
 6945SOL     OW32896   2.591   3.103   0.517
 6945SOL    HW132897   2.634   3.034   0.459
 6945SOL    HW232898   2.555   3.060   0.600
 6946SOL     OW32899   2.223   2.654   0.719
 6946SOL    HW132900   2.215   2.752   0.737
 6946SOL    HW232901   2.307   2.620   0.760
 6947SOL     OW32902   2.069   2.134   0.234
 6947SOL    HW132903   2.113   2.103   0.151
 6947SOL    HW232904   2.070   2.234   0.238
 6948SOL     OW32905   2.357   2.973   0.231
 6948SOL    HW132906   2.457   2.973   0.242
 6948SOL    HW232907   2.326   3.066   0.210
 6949SOL     OW32908   2.983   2.565   0.047
 6949SOL    HW132909   2.914   2.622   0.003
 6949SOL    HW232910   3.064   2.559  -0.012
 6950SOL     OW32911   2.718   2.484   0.190
 6950SOL    HW132912   2.808   2.485   0.145
 6950SOL    HW232913   2.695   2.390   0.215
 6951SOL     OW32914   3.169   2.001   0.484
 6951SOL    HW132915   3.079   1.985   0.525
 6951SOL    HW232916   3.177   2.097   0.458
 6952SOL     OW32917   3.283   2.401   1.500
 6952SOL    HW132918   3.235   2.424   1.584
 6952SOL    HW232919   3.217   2.371   1.431
 6953SOL     OW32920   1.918   1.916   0.144
 6953SOL    HW132921   1.981   1.839   0.152
 6953SOL    HW232922   1.938   1.984   0.215
 6954SOL     OW32923   3.490   2.903   0.245
 6954SOL    HW132924   3.561   2.973   0.247
 6954SOL    HW232925   3.477   2.873   0.150
 6955SOL     OW32926   2.472   2.504   1.167
 6955SOL    HW132927   2.547   2.547   1.216
 6955SOL    HW232928   2.405   2.469   1.233
 6956SOL     OW32929   2.615   2.873   1.484
 6956SOL    HW132930   2.684   2.925   1.434
 6956SOL    HW232931   2.610   2.906   1.579
 6957SOL     OW32932   3.007   2.894   1.644
 6957SOL    HW132933   2.929   2.840   1.677
 6957SOL    HW232934   3.088   2.872   1.699
 6958SOL     OW32935   2.936   2.076   0.640
 6958SOL    HW132936   2.995   2.136   0.695
 6958SOL    HW232937   2.863   2.040   0.697
 6959SOL     OW32938   3.046   3.608   1.680
 6959SOL    HW132939   2.951   3.606   1.648
 6959SOL    HW232940   3.067   3.699   1.717
 6960SOL     OW32941   2.464   1.953   0.911
 6960SOL    HW132942   2.392   1.886   0.897
 6960SOL    HW232943   2.546   1.907   0.946
 6961SOL     OW32944   2.164   3.618   1.278
 6961SOL    HW132945   2.144   3.600   1.182
 6961SOL    HW232946   2.091   3.580   1.335
 6962SOL     OW32947   2.857   3.082   0.823
 6962SOL    HW132948   2.896   3.125   0.742
 6962SOL    HW232949   2.930   3.065   0.890
 6963SOL     OW32950   2.551   2.810   1.025
 6963SOL    HW132951   2.549   2.726   0.970
 6963SOL    HW232952   2.500   2.796   1.110
 6964SOL     OW32953   1.890   2.820   1.151
 6964SOL    HW132954   1.979   2.798   1.191
 6964SOL    HW232955   1.835   2.736   1.147
 6965SOL     OW32956   2.118   1.865   0.431
 6965SOL    HW132957   2.156   1.953   0.458
 6965SOL    HW232958   2.041   1.841   0.491
 6966SOL     OW32959   2.534   2.482   1.759
 6966SOL    HW132960   2.486   2.533   1.688
 6966SOL    HW232961   2.627   2.461   1.729
 6967SOL     OW32962   1.940   2.952   0.251
 6967SOL    HW132963   1.930   2.855   0.230
 6967SOL    HW232964   1.993   2.997   0.179
 6968SOL     OW32965   3.023   2.463   0.313
 6968SOL    HW132966   3.075   2.535   0.359
 6968SOL    HW232967   3.036   2.470   0.215
 6969SOL     OW32968   3.384   3.278   1.640
 6969SOL    HW132969   3.369   3.180   1.654
 6969SOL    HW232970   3.301   3.320   1.604
 6970SOL     OW32971   2.643   3.346   0.038
 6970SOL    HW132972   2.618   3.423   0.097
 6970SOL    HW232973   2.707   3.286   0.086
 6971SOL     OW32974   2.782   3.311   0.458
 6971SOL    HW132975   2.832   3.299   0.373
 6971SOL    HW232976   2.728   3.228   0.477
 6972SOL     OW32977   1.972   2.658   0.858
 6972SOL    HW132978   2.067   2.649   0.826
 6972SOL    HW232979   1.938   2.750   0.837
 6973SOL     OW32980   1.909   2.775   1.785
 6973SOL    HW132981   1.824   2.726   1.766
 6973SOL    HW232982   1.936   2.762   1.880
 6974SOL     OW32983   2.806   3.684   1.491
 6974SOL    HW132984   2.778   3.597   1.532
 6974SOL    HW232985   2.750   3.758   1.528
 6975SOL     OW32986   3.035   3.031   1.021
 6975SOL    HW132987   3.019   3.125   1.052
 6975SOL    HW232988   3.038   2.970   1.101
 6976SOL     OW32989   2.309   2.302   1.785
 6976SOL    HW132990   2.345   2.249   1.708
 6976SOL    HW232991   2.370   2.379   1.803
 6977SOL     OW32992   2.373   2.719   0.357
 6977SOL    HW132993   2.323   2.784   0.301
 6977SOL    HW232994   2.315   2.640   0.376
 6978SOL     OW32995   3.454   2.750   1.055
 6978SOL    HW132996   3.473   2.789   0.964
 6978SOL    HW232997   3.408   2.819   1.111
 6979SOL     OW32998   1.847   1.892   0.552
 6979SOL    HW132999   1.760   1.879   0.505
 6979SOL    HW233000   1.855   1.987   0.582
 6980SOL     OW33001   3.068   1.993   1.793
 6980SOL    HW133002   3.127   2.009   1.873
 6980SOL    HW233003   3.015   2.076   1.774
 6981SOL     OW33004   2.284   3.412   1.618
 6981SOL    HW133005   2.226   3.477   1.667
 6981SOL    HW233006   2.346   3.462   1.558
 6982SOL     OW33007   3.640   3.299   1.559
 6982SOL    HW133008   3.668   3.392   1.581
 6982SOL    HW233009   3.547   3.283   1.592
 6983SOL     OW33010   2.890   2.412   1.109
 6983SOL    HW133011   2.976   2.463   1.108
 6983SOL    HW233012   2.896   2.338   1.176
 6984SOL     OW33013   2.935   3.475   1.269
 6984SOL    HW133014   2.861   3.539   1.287
 6984SOL    HW233015   3.014   3.524   1.231
 6985SOL     OW33016   2.144   3.605   1.768
 6985SOL    HW133017   2.187   3.689   1.734
 6985SOL    HW233018   2.169   3.592   1.864
 6986SOL     OW33019   2.004   3.141   1.639
 6986SOL    HW133020   1.983   3.046   1.612
 6986SOL    HW233021   1.935   3.202   1.601
 6987SOL     OW33022   2.093   3.506   1.043
 6987SOL    HW133023   2.035   3.426   1.057
 6987SOL    HW233024   2.117   3.513   0.946
 6988SOL     OW33025   2.839   2.027   0.898
 6988SOL    HW133026   2.935   2.028   0.926
 6988SOL    HW233027   2.784   1.984   0.970
 6989SOL     OW33028   2.901   3.033   0.414
 6989SOL    HW133029   2.981   3.069   0.462
 6989SOL    HW233030   2.859   2.960   0.470
 6990SOL     OW33031   2.635   2.972   0.264
 6990SOL    HW133032   2.707   3.031   0.229
 6990SOL    HW233033   2.675   2.888   0.300
 6991SOL     OW33034   2.706   1.948   0.116
 6991SOL    HW133035   2.781   1.882   0.128
 6991SOL    HW233036   2.737   2.039   0.144
 6992SOL     OW33037   2.385   2.377   0.728
 6992SOL    HW133038   2.423   2.288   0.754
 6992SOL    HW233039   2.452   2.427   0.673
 6993SOL     OW33040   3.595   2.978   1.351
 6993SOL    HW133041   3.609   3.076   1.365
 6993SOL    HW233042   3.652   2.947   1.275
 6994SOL     OW33043   2.078   3.087   0.043
 6994SOL    HW133044   2.070   3.099  -0.056
 6994SOL    HW233045   2.137   3.158   0.081
 6995SOL     OW33046   2.505   3.526   0.203
 6995SOL    HW133047   2.480   3.621   0.187
 6995SOL    HW233048   2.472   3.498   0.293
 6996SOL     OW33049   3.155   2.949   1.427
 6996SOL    HW133050   3.099   2.908   1.498
 6996SOL    HW233051   3.135   3.047   1.421
 6997SOL     OW33052   2.422   3.565   1.427
 6997SOL    HW133053   2.471   3.645   1.391
 6997SOL    HW233054   2.330   3.563   1.388
 6998SOL     OW33055   2.065   2.446   1.789
 6998SOL    HW133056   2.082   2.347   1.794
 6998SOL    HW233057   2.129   2.494   1.850
 6999SOL     OW33058   3.504   3.407   1.028
 6999SOL    HW133059   3.476   3.500   1.052
 6999SOL    HW233060   3.554   3.366   1.104
 7000SOL     OW33061   1.900   2.780   0.589
 7000SOL    HW133062   1.907   2.879   0.576
 7000SOL    HW233063   1.809   2.757   0.623
 7001SOL     OW33064   2.409   2.578   1.527
 7001SOL    HW133065   2.315   2.548   1.508
 7001SOL    HW233066   2.418   2.675   1.504
 7002SOL     OW33067   3.476   2.954   0.839
 7002SOL    HW133068   3.438   3.043   0.812
 7002SOL    HW233069   3.476   2.892   0.761
 7003SOL     OW33070   2.634   2.360   1.008
 7003SOL    HW133071   2.726   2.388   1.035
 7003SOL    HW233072   2.566   2.411   1.062
 7004SOL     OW33073   2.053   2.553   1.149
 7004SOL    HW133074   2.091   2.612   1.220
 7004SOL    HW233075   2.036   2.606   1.067
 7005SOL     OW33076   3.467   3.515   1.795
 7005SOL    HW133077   3.436   3.437   1.740
 7005SOL    HW233078   3.436   3.600   1.753
 7006SOL     OW33079   3.175   3.053   0.516
 7006SOL    HW133080   3.274   3.057   0.532
 7006SOL    HW233081   3.158   3.039   0.418
 7007SOL     OW33082   2.528   2.219   0.464
 7007SOL    HW133083   2.430   2.213   0.444
 7007SOL    HW233084   2.547   2.176   0.552
 7008SOL     OW33085   3.051   2.658   1.416
 7008SOL    HW133086   3.150   2.667   1.406
 7008SOL    HW233087   3.007   2.660   1.326
 7009SOL     OW33088   2.545   2.618   0.818
 7009SOL    HW133089   2.567   2.540   0.876
 7009SOL    HW233090   2.554   2.592   0.722
 7010SOL     OW33091   3.210   3.325   1.030
 7010SOL    HW133092   3.124   3.282   1.059
 7010SOL    HW233093   3.199   3.365   0.939
 7011SOL     OW33094   2.940   3.326   2.537
 7011SOL    HW133095   3.031   3.360   2.560
 7011SOL    HW233096   2.912   3.364   2.449
 7012SOL     OW33097   3.451   3.122   2.395
 7012SOL    HW133098   3.462   3.206   2.449
 7012SOL    HW233099   3.541   3.085   2.372
 7013SOL     OW33100   3.531   2.404   3.259
 7013SOL    HW133101   3.433   2.396   3.281
 7013SOL    HW233102   3.584   2.393   3.343
 7014SOL     OW33103   2.198   2.041   1.864
 7014SOL    HW133104   2.111   2.038   1.815
 7014SOL    HW233105   2.249   2.123   1.836
 7015SOL     OW33106   3.185   3.430   2.639
 7015SOL    HW133107   3.174   3.527   2.662
 7015SOL    HW233108   3.278   3.413   2.609
 7016SOL     OW33109   3.063   1.941   3.197
 7016SOL    HW133110   2.987   1.896   3.244
 7016SOL    HW233111   3.092   1.886   3.119
 7017SOL     OW33112   2.801   2.721   3.574
 7017SOL    HW133113   2.766   2.696   3.484
 7017SOL    HW233114   2.725   2.742   3.635
 7018SOL     OW33115   2.408   3.395   2.268
 7018SOL    HW133116   2.364   3.404   2.357
 7018SOL    HW233117   2.479   3.325   2.272
 7019SOL     OW33118   2.426   1.928   1.990
 7019SOL    HW133119   2.514   1.956   1.951
 7019SOL    HW233120   2.354   1.991   1.960
 7020SOL     OW33121   3.396   2.913   3.373
 7020SOL    HW133122   3.304   2.918   3.335
 7020SOL    HW233123   3.461   2.951   3.307
 7021SOL     OW33124   3.296   2.920   3.054
 7021SOL    HW133125   3.221   2.909   3.119
 7021SOL    HW233126   3.333   3.013   3.060
 7022SOL     OW33127   2.792   3.175   3.354
 7022SOL    HW133128   2.735   3.238   3.300
 7022SOL    HW233129   2.825   3.101   3.295
 7023SOL     OW33130   2.335   3.068   2.563
 7023SOL    HW133131   2.268   3.022   2.622
 7023SOL    HW233132   2.427   3.036   2.586
 7024SOL     OW33133   2.562   2.474   2.394
 7024SOL    HW133134   2.601   2.544   2.335
 7024SOL    HW233135   2.536   2.394   2.340
 7025SOL     OW33136   3.182   2.382   3.603
 7025SOL    HW133137   3.278   2.386   3.629
 7025SOL    HW233138   3.138   2.306   3.650
 7026SOL     OW33139   2.265   3.237   2.047
 7026SOL    HW133140   2.329   3.253   1.972
 7026SOL    HW233141   2.289   3.295   2.125
 7027SOL     OW33142   2.416   2.193   2.857
 7027SOL    HW133143   2.492   2.258   2.853
 7027SOL    HW233144   2.446   2.104   2.824
 7028SOL     OW33145   2.113   2.619   2.275
 7028SOL    HW133146   2.128   2.553   2.349
 7028SOL    HW233147   2.063   2.698   2.310
 7029SOL     OW33148   2.699   3.564   2.452
 7029SOL    HW133149   2.764   3.497   2.416
 7029SOL    HW233150   2.689   3.640   2.388
 7030SOL     OW33151   3.591   3.446   2.194
 7030SOL    HW133152   3.687   3.420   2.187
 7030SOL    HW233153   3.567   3.506   2.118
 7031SOL     OW33154   3.503   2.139   2.965
 7031SOL    HW133155   3.554   2.211   2.918
 7031SOL    HW233156   3.408   2.166   2.974
 7032SOL     OW33157   2.903   2.168   2.234
 7032SOL    HW133158   2.928   2.262   2.255
 7032SOL    HW233159   2.904   2.114   2.318
 7033SOL     OW33160   2.027   2.881   3.419
 7033SOL    HW133161   2.123   2.896   3.437
 7033SOL    HW233162   1.989   2.819   3.488
 7034SOL     OW33163   2.353   2.526   1.962
 7034SOL    HW133164   2.313   2.605   1.915
 7034SOL    HW233165   2.442   2.505   1.922
 7035SOL     OW33166   2.526   3.450   2.660
 7035SOL    HW133167   2.599   3.473   2.596
 7035SOL    HW233168   2.455   3.397   2.614
 7036SOL     OW33169   2.868   2.482   3.414
 7036SOL    HW133170   2.901   2.399   3.461
 7036SOL    HW233171   2.941   2.550   3.413
 7037SOL     OW33172   3.472   3.282   2.636
 7037SOL    HW133173   3.468   3.317   2.729
 7037SOL    HW233174   3.531   3.341   2.580
 7038SOL     OW33175   2.203   3.103   2.312
 7038SOL    HW133176   2.249   3.077   2.397
 7038SOL    HW233177   2.223   3.035   2.241
 7039SOL     OW33178   3.061   2.158   2.023
 7039SOL    HW133179   3.155   2.128   2.041
 7039SOL    HW233180   3.009   2.158   2.109
 7040SOL     OW33181   2.213   2.363   3.118
 7040SOL    HW133182   2.203   2.276   3.070
 7040SOL    HW233183   2.149   2.430   3.081
 7041SOL     OW33184   3.295   2.643   3.156
 7041SOL    HW133185   3.299   2.737   3.121
 7041SOL    HW233186   3.388   2.612   3.178
 7042SOL     OW33187   2.248   2.135   2.277
 7042SOL    HW133188   2.202   2.175   2.356
 7042SOL    HW233189   2.196   2.154   2.195
 7043SOL     OW33190   3.376   3.662   3.189
 7043SOL    HW133191   3.319   3.613   3.123
 7043SOL    HW233192   3.462   3.689   3.146
 7044SOL     OW33193   3.671   2.380   3.044
 7044SOL    HW133194   3.728   2.462   3.046
 7044SOL    HW233195   3.612   2.379   3.124
 7045SOL     OW33196   3.688   3.606   2.957
 7045SOL    HW133197   3.734   3.616   3.045
 7045SOL    HW233198   3.755   3.609   2.884
 7046SOL     OW33199   2.801   2.346   2.519
 7046SOL    HW133200   2.877   2.374   2.578
 7046SOL    HW233201   2.757   2.426   2.480
 7047SOL     OW33202   3.036   2.810   2.036
 7047SOL    HW133203   3.073   2.760   2.114
 7047SOL    HW233204   2.966   2.755   1.991
 7048SOL     OW33205   2.878   2.232   3.657
 7048SOL    HW133206   2.941   2.237   3.734
 7048SOL    HW233207   2.786   2.210   3.690
 7049SOL     OW33208   3.619   2.479   2.115
 7049SOL    HW133209   3.640   2.398   2.061
 7049SOL    HW233210   3.636   2.460   2.212
 7050SOL     OW33211   2.913   3.617   2.023
 7050SOL    HW133212   2.947   3.530   1.988
 7050SOL    HW233213   2.881   3.605   2.117
 7051SOL     OW33214   2.594   1.884   3.555
 7051SOL    HW133215   2.601   1.790   3.522
 7051SOL    HW233216   2.651   1.894   3.637
 7052SOL     OW33217   3.517   2.485   2.823
 7052SOL    HW133218   3.502   2.576   2.860
 7052SOL    HW233219   3.587   2.438   2.877
 7053SOL     OW33220   2.927   3.151   3.589
 7053SOL    HW133221   2.949   3.061   3.551
 7053SOL    HW233222   2.862   3.198   3.530
 7054SOL     OW33223   2.582   2.993   3.593
 7054SOL    HW133224   2.553   3.070   3.650
 7054SOL    HW233225   2.592   2.912   3.651
 7055SOL     OW33226   3.217   1.857   2.699
 7055SOL    HW133227   3.166   1.941   2.681
 7055SOL    HW233228   3.303   1.859   2.648
 7056SOL     OW33229   3.572   2.063   3.628
 7056SOL    HW133230   3.549   2.084   3.723
 7056SOL    HW233231   3.548   1.968   3.608
 7057SOL     OW33232   1.875   2.467   2.372
 7057SOL    HW133233   1.877   2.418   2.459
 7057SOL    HW233234   1.877   2.566   2.390
 7058SOL     OW33235   2.196   2.055   2.693
 7058SOL    HW133236   2.248   2.095   2.768
 7058SOL    HW233237   2.249   1.982   2.650
 7059SOL     OW33238   2.180   2.103   3.027
 7059SOL    HW133239   2.145   2.010   3.027
 7059SOL    HW233240   2.267   2.106   2.978
 7060SOL     OW33241   2.847   2.725   2.767
 7060SOL    HW133242   2.873   2.805   2.713
 7060SOL    HW233243   2.841   2.645   2.707
 7061SOL     OW33244   2.048   3.352   2.226
 7061SOL    HW133245   2.075   3.258   2.246
 7061SOL    HW233246   2.073   3.374   2.132
 7062SOL     OW33247   3.330   3.221   3.100
 7062SOL    HW133248   3.301   3.258   3.011
 7062SOL    HW233249   3.252   3.221   3.162
 7063SOL     OW33250   2.062   3.495   2.463
 7063SOL    HW133251   1.978   3.546   2.481
 7063SOL    HW233252   2.053   3.444   2.378
 7064SOL     OW33253   3.583   3.292   3.138
 7064SOL    HW133254   3.614   3.306   3.232
 7064SOL    HW233255   3.484   3.279   3.137
 7065SOL     OW33256   2.335   2.792   1.865
 7065SOL    HW133257   2.304   2.826   1.777
 7065SOL    HW233258   2.339   2.867   1.931
 7066SOL     OW33259   2.852   2.979   3.164
 7066SOL    HW133260   2.902   2.894   3.148
 7066SOL    HW233261   2.806   3.006   3.079
 7067SOL     OW33262   1.939   2.684   2.038
 7067SOL    HW133263   1.999   2.631   2.098
 7067SOL    HW233264   1.845   2.652   2.050
 7068SOL     OW33265   3.459   2.682   2.238
 7068SOL    HW133266   3.527   2.616   2.205
 7068SOL    HW233267   3.474   2.770   2.194
 7069SOL     OW33268   2.707   3.669   2.886
 7069SOL    HW133269   2.753   3.602   2.828
 7069SOL    HW233270   2.633   3.625   2.936
 7070SOL     OW33271   2.614   2.738   1.922
 7070SOL    HW133272   2.643   2.657   1.973
 7070SOL    HW233273   2.514   2.737   1.913
 7071SOL     OW33274   3.210   2.270   2.268
 7071SOL    HW133275   3.147   2.328   2.216
 7071SOL    HW233276   3.303   2.304   2.256
 7072SOL     OW33277   1.989   2.126   3.258
 7072SOL    HW133278   2.061   2.136   3.189
 7072SOL    HW233279   1.900   2.125   3.213
 7073SOL     OW33280   2.887   2.747   3.023
 7073SOL    HW133281   2.881   2.733   2.924
 7073SOL    HW233282   2.806   2.708   3.067
 7074SOL     OW33283   3.478   2.281   2.338
 7074SOL    HW133284   3.574   2.252   2.335
 7074SOL    HW233285   3.439   2.259   2.427
 7075SOL     OW33286   2.762   3.356   2.775
 7075SOL    HW133287   2.820   3.367   2.694
 7075SOL    HW233288   2.668   3.380   2.753
 7076SOL     OW33289   2.712   2.222   2.060
 7076SOL    HW133290   2.621   2.235   2.098
 7076SOL    HW233291   2.772   2.182   2.130
 7077SOL     OW33292   2.823   3.167   1.995
 7077SOL    HW133293   2.876   3.107   2.055
 7077SOL    HW233294   2.862   3.168   1.904
 7078SOL     OW33295   3.574   3.462   2.480
 7078SOL    HW133296   3.541   3.555   2.499
 7078SOL    HW233297   3.572   3.446   2.381
 7079SOL     OW33298   2.989   2.735   2.469
 7079SOL    HW133299   3.054   2.763   2.540
 7079SOL    HW233300   2.910   2.796   2.471
 7080SOL     OW33301   2.737   3.461   3.493
 7080SOL    HW133302   2.725   3.392   3.422
 7080SOL    HW233303   2.700   3.426   3.580
 7081SOL     OW33304   3.181   2.775   2.672
 7081SOL    HW133305   3.202   2.717   2.750
 7081SOL    HW233306   3.190   2.871   2.698
 7082SOL     OW33307   2.137   2.904   2.718
 7082SOL    HW133308   2.060   2.966   2.711
 7082SOL    HW233309   2.174   2.905   2.811
 7083SOL     OW33310   2.770   2.852   2.417
 7083SOL    HW133311   2.757   2.763   2.374
 7083SOL    HW233312   2.701   2.866   2.488
 7084SOL     OW33313   3.074   3.240   3.256
 7084SOL    HW133314   3.107   3.325   3.297
 7084SOL    HW233315   2.975   3.236   3.263
 7085SOL     OW33316   1.881   2.157   2.320
 7085SOL    HW133317   1.941   2.108   2.258
 7085SOL    HW233318   1.936   2.209   2.385
 7086SOL     OW33319   3.504   3.655   2.011
 7086SOL    HW133320   3.594   3.699   2.013
 7086SOL    HW233321   3.503   3.586   1.939
 7087SOL     OW33322   2.668   2.622   3.169
 7087SOL    HW133323   2.670   2.708   3.220
 7087SOL    HW233324   2.725   2.554   3.216
 7088SOL     OW33325   1.905   3.649   3.240
 7088SOL    HW133326   1.913   3.749   3.238
 7088SOL    HW233327   1.881   3.620   3.333
 7089SOL     OW33328   2.686   2.668   2.234
 7089SOL    HW133329   2.597   2.696   2.199
 7089SOL    HW233330   2.727   2.602   2.170
 7090SOL     OW33331   2.208   2.386   2.773
 7090SOL    HW133332   2.264   2.379   2.690
 7090SOL    HW233333   2.265   2.364   2.853
 7091SOL     OW33334   2.205   3.584   2.044
 7091SOL    HW133335   2.297   3.614   2.019
 7091SOL    HW233336   2.180   3.623   2.133
 7092SOL     OW33337   3.181   3.606   2.981
 7092SOL    HW133338   3.200   3.669   2.907
 7092SOL    HW233339   3.189   3.512   2.948
 7093SOL     OW33340   1.886   3.001   2.793
 7093SOL    HW133341   1.796   3.017   2.754
 7093SOL    HW233342   1.884   2.917   2.848
 7094SOL     OW33343   2.637   1.906   2.243
 7094SOL    HW133344   2.598   1.895   2.152
 7094SOL    HW233345   2.593   1.982   2.290
 7095SOL     OW33346   1.882   3.042   2.337
 7095SOL    HW133347   1.960   3.100   2.361
 7095SOL    HW233348   1.901   2.993   2.252
 7096SOL     OW33349   3.412   2.170   3.421
 7096SOL    HW133350   3.351   2.248   3.418
 7096SOL    HW233351   3.467   2.174   3.504
 7097SOL     OW33352   3.128   2.116   2.712
 7097SOL    HW133353   3.127   2.194   2.649
 7097SOL    HW233354   3.171   2.143   2.798
 7098SOL     OW33355   3.248   1.922   2.008
 7098SOL    HW133356   3.328   1.862   2.005
 7098SOL    HW233357   3.174   1.875   2.056
 7099SOL     OW33358   3.461   1.894   3.442
 7099SOL    HW133359   3.487   1.851   3.356
 7099SOL    HW233360   3.411   1.978   3.424
 7100SOL     OW33361   2.563   2.153   2.574
 7100SOL    HW133362   2.552   2.095   2.655
 7100SOL    HW233363   2.648   2.205   2.582
 7101SOL     OW33364   3.143   2.504   2.966
 7101SOL    HW133365   3.197   2.544   2.892
 7101SOL    HW233366   3.181   2.533   3.054
 7102SOL     OW33367   3.436   1.910   2.282
 7102SOL    HW133368   3.443   1.864   2.194
 7102SOL    HW233369   3.340   1.920   2.307
 7103SOL     OW33370   2.412   3.225   3.645
 7103SOL    HW133371   2.373   3.288   3.578
 7103SOL    HW233372   2.495   3.265   3.685
 7104SOL     OW33373   2.288   2.957   3.477
 7104SOL    HW133374   2.307   2.981   3.382
 7104SOL    HW233375   2.281   3.040   3.532
 7105SOL     OW33376   1.949   3.247   2.951
 7105SOL    HW133377   1.918   3.173   2.892
 7105SOL    HW233378   1.881   3.265   3.022
 7106SOL     OW33379   3.035   2.448   2.684
 7106SOL    HW133380   3.117   2.425   2.632
 7106SOL    HW233381   3.030   2.389   2.765
 7107SOL     OW33382   3.635   2.475   3.520
 7107SOL    HW133383   3.624   2.561   3.469
 7107SOL    HW233384   3.729   2.466   3.550
 7108SOL     OW33385   3.206   2.248   2.939
 7108SOL    HW133386   3.180   2.345   2.945
 7108SOL    HW233387   3.206   2.208   3.031
 7109SOL     OW33388   3.436   2.380   3.690
 7109SOL    HW133389   3.516   2.405   3.634
 7109SOL    HW233390   3.467   2.345   3.778
 7110SOL     OW33391   3.147   2.683   2.270
 7110SOL    HW133392   3.093   2.681   2.354
 7110SOL    HW233393   3.224   2.746   2.281
 7111SOL     OW33394   3.444   2.779   2.490
 7111SOL    HW133395   3.458   2.742   2.397
 7111SOL    HW233396   3.355   2.749   2.524
 7112SOL     OW33397   3.600   2.716   3.385
 7112SOL    HW133398   3.502   2.737   3.387
 7112SOL    HW233399   3.649   2.792   3.344
 7113SOL     OW33400   3.454   2.136   2.064
 7113SOL    HW133401   3.459   2.178   2.155
 7113SOL    HW233402   3.387   2.061   2.066
 7114SOL     OW33403   2.601   3.351   3.284
 7114SOL    HW133404   2.538   3.429   3.291
 7114SOL    HW233405   2.569   3.289   3.212
 7115SOL     OW33406   1.992   2.146   3.549
 7115SOL    HW133407   2.010   2.135   3.451
 7115SOL    HW233408   1.894   2.142   3.566
 7116SOL     OW33409   1.872   3.560   3.493
 7116SOL    HW133410   1.944   3.546   3.561
 7116SOL    HW233411   1.783   3.563   3.538
 7117SOL     OW33412   2.040   2.216   2.517
 7117SOL    HW133413   1.983   2.271   2.578
 7117SOL    HW233414   2.110   2.168   2.570
 7118SOL     OW33415   3.212   3.448   3.380
 7118SOL    HW133416   3.165   3.516   3.435
 7118SOL    HW233417   3.279   3.494   3.321
 7119SOL     OW33418   2.177   2.407   2.115
 7119SOL    HW133419   2.249   2.436   2.052
 7119SOL    HW233420   2.133   2.487   2.155
 7120SOL     OW33421   3.563   2.069   3.218
 7120SOL    HW133422   3.519   2.117   3.294
 7120SOL    HW233423   3.541   2.115   3.132
 7121SOL     OW33424   2.292   3.670   2.581
 7121SOL    HW133425   2.216   3.636   2.526
 7121SOL    HW233426   2.378   3.633   2.546
 7122SOL     OW33427   2.217   3.179   3.026
 7122SOL    HW133428   2.229   3.195   3.123
 7122SOL    HW233429   2.130   3.219   2.996
 7123SOL     OW33430   3.101   3.383   3.672
 7123SOL    HW133431   3.060   3.298   3.638
 7123SOL    HW233432   3.081   3.457   3.608
 7124SOL     OW33433   2.591   3.103   2.362
 7124SOL    HW133434   2.634   3.034   2.304
 7124SOL    HW233435   2.555   3.060   2.445
 7125SOL     OW33436   2.223   2.654   2.564
 7125SOL    HW133437   2.215   2.752   2.582
 7125SOL    HW233438   2.307   2.620   2.605
 7126SOL     OW33439   2.069   2.134   2.079
 7126SOL    HW133440   2.113   2.103   1.996
 7126SOL    HW233441   2.070   2.234   2.083
 7127SOL     OW33442   1.922   2.386   2.690
 7127SOL    HW133443   1.886   2.479   2.682
 7127SOL    HW233444   2.005   2.387   2.746
 7128SOL     OW33445   2.357   2.973   2.076
 7128SOL    HW133446   2.457   2.973   2.087
 7128SOL    HW233447   2.326   3.066   2.055
 7129SOL     OW33448   2.983   2.565   1.892
 7129SOL    HW133449   2.914   2.622   1.848
 7129SOL    HW233450   3.064   2.559   1.833
 7130SOL     OW33451   2.718   2.484   2.035
 7130SOL    HW133452   2.808   2.485   1.990
 7130SOL    HW233453   2.695   2.390   2.060
 7131SOL     OW33454   3.169   2.001   2.329
 7131SOL    HW133455   3.079   1.985   2.370
 7131SOL    HW233456   3.177   2.097   2.303
 7132SOL     OW33457   3.283   2.401   3.345
 7132SOL    HW133458   3.235   2.424   3.429
 7132SOL    HW233459   3.217   2.371   3.276
 7133SOL     OW33460   1.918   1.916   1.989
 7133SOL    HW133461   1.981   1.839   1.997
 7133SOL    HW233462   1.938   1.984   2.060
 7134SOL     OW33463   2.191   2.891   2.990
 7134SOL    HW133464   2.202   2.846   3.079
 7134SOL    HW233465   2.218   2.987   2.997
 7135SOL     OW33466   3.490   2.903   2.090
 7135SOL    HW133467   3.561   2.973   2.092
 7135SOL    HW233468   3.477   2.873   1.995
 7136SOL     OW33469   2.472   2.504   3.012
 7136SOL    HW133470   2.547   2.547   3.061
 7136SOL    HW233471   2.405   2.469   3.078
 7137SOL     OW33472   2.615   2.873   3.329
 7137SOL    HW133473   2.684   2.925   3.279
 7137SOL    HW233474   2.610   2.906   3.424
 7138SOL     OW33475   3.007   2.894   3.489
 7138SOL    HW133476   2.929   2.840   3.522
 7138SOL    HW233477   3.088   2.872   3.544
 7139SOL     OW33478   2.936   2.076   2.485
 7139SOL    HW133479   2.995   2.136   2.540
 7139SOL    HW233480   2.863   2.040   2.542
 7140SOL     OW33481   3.046   3.608   3.525
 7140SOL    HW133482   2.951   3.606   3.493
 7140SOL    HW233483   3.067   3.699   3.562
 7141SOL     OW33484   2.464   1.953   2.756
 7141SOL    HW133485   2.392   1.886   2.742
 7141SOL    HW233486   2.546   1.907   2.791
 7142SOL     OW33487   2.164   3.618   3.123
 7142SOL    HW133488   2.144   3.600   3.027
 7142SOL    HW233489   2.091   3.580   3.180
 7143SOL     OW33490   2.857   3.082   2.668
 7143SOL    HW133491   2.896   3.125   2.587
 7143SOL    HW233492   2.930   3.065   2.735
 7144SOL     OW33493   2.551   2.810   2.870
 7144SOL    HW133494   2.549   2.726   2.815
 7144SOL    HW233495   2.500   2.796   2.955
 7145SOL     OW33496   1.890   2.820   2.996
 7145SOL    HW133497   1.979   2.798   3.036
 7145SOL    HW233498   1.835   2.736   2.992
 7146SOL     OW33499   2.118   1.865   2.276
 7146SOL    HW133500   2.156   1.953   2.303
 7146SOL    HW233501   2.041   1.841   2.336
 7147SOL     OW33502   1.940   2.952   2.096
 7147SOL    HW133503   1.930   2.855   2.075
 7147SOL    HW233504   1.993   2.997   2.024
 7148SOL     OW33505   3.637   2.064   2.697
 7148SOL    HW133506   3.592   2.046   2.784
 7148SOL    HW233507   3.735   2.081   2.713
 7149SOL     OW33508   2.685   3.040   2.949
 7149SOL    HW133509   2.636   2.955   2.930
 7149SOL    HW233510   2.755   3.055   2.880
 7150SOL     OW33511   3.023   2.463   2.158
 7150SOL    HW133512   3.075   2.535   2.204
 7150SOL    HW233513   3.036   2.470   2.060
 7151SOL     OW33514   3.384   3.278   3.485
 7151SOL    HW133515   3.369   3.180   3.499
 7151SOL    HW233516   3.301   3.320   3.449
 7152SOL     OW33517   2.141   2.720   3.225
 7152SOL    HW133518   2.105   2.630   3.251
 7152SOL    HW233519   2.102   2.790   3.285
 7153SOL     OW33520   2.643   3.346   1.883
 7153SOL    HW133521   2.618   3.423   1.942
 7153SOL    HW233522   2.707   3.286   1.931
 7154SOL     OW33523   2.461   3.553   2.917
 7154SOL    HW133524   2.481   3.523   2.824
 7154SOL    HW233525   2.386   3.498   2.954
 7155SOL     OW33526   2.604   2.964   2.634
 7155SOL    HW133527   2.693   3.010   2.634
 7155SOL    HW233528   2.597   2.904   2.713
 7156SOL     OW33529   2.782   3.311   2.303
 7156SOL    HW133530   2.832   3.299   2.218
 7156SOL    HW233531   2.728   3.228   2.322
 7157SOL     OW33532   1.972   2.658   2.703
 7157SOL    HW133533   2.067   2.649   2.671
 7157SOL    HW233534   1.938   2.750   2.682
 7158SOL     OW33535   1.909   2.775   3.630
 7158SOL    HW133536   1.824   2.726   3.611
 7158SOL    HW233537   1.936   2.762   3.725
 7159SOL     OW33538   2.806   3.684   3.336
 7159SOL    HW133539   2.778   3.597   3.377
 7159SOL    HW233540   2.750   3.758   3.373
 7160SOL     OW33541   3.035   3.031   2.866
 7160SOL    HW133542   3.019   3.125   2.897
 7160SOL    HW233543   3.038   2.970   2.946
 7161SOL     OW33544   2.373   2.719   2.202
 7161SOL    HW133545   2.323   2.784   2.146
 7161SOL    HW233546   2.315   2.640   2.221
 7162SOL     OW33547   3.454   2.750   2.900
 7162SOL    HW133548   3.473   2.789   2.809
 7162SOL    HW233549   3.408   2.819   2.956
 7163SOL     OW33550   3.146   2.193   3.196
 7163SOL    HW133551   3.217   2.165   3.260
 7163SOL    HW233552   3.093   2.113   3.168
 7164SOL     OW33553   1.847   1.892   2.397
 7164SOL    HW133554   1.760   1.879   2.350
 7164SOL    HW233555   1.855   1.987   2.427
 7165SOL     OW33556   3.068   1.993   3.638
 7165SOL    HW133557   3.127   2.009   3.718
 7165SOL    HW233558   3.015   2.076   3.619
 7166SOL     OW33559   2.284   3.412   3.463
 7166SOL    HW133560   2.226   3.477   3.512
 7166SOL    HW233561   2.346   3.462   3.403
 7167SOL     OW33562   3.640   3.299   3.404
 7167SOL    HW133563   3.668   3.392   3.426
 7167SOL    HW233564   3.547   3.283   3.437
 7168SOL     OW33565   2.890   2.412   2.954
 7168SOL    HW133566   2.976   2.463   2.953
 7168SOL    HW233567   2.896   2.338   3.021
 7169SOL     OW33568   2.294   3.358   2.526
 7169SOL    HW133569   2.292   3.259   2.539
 7169SOL    HW233570   2.203   3.391   2.503
 7170SOL     OW33571   2.935   3.475   3.114
 7170SOL    HW133572   2.861   3.539   3.132
 7170SOL    HW233573   3.014   3.524   3.076
 7171SOL     OW33574   2.144   3.605   3.613
 7171SOL    HW133575   2.187   3.689   3.579
 7171SOL    HW233576   2.169   3.592   3.709
 7172SOL     OW33577   2.004   3.141   3.484
 7172SOL    HW133578   1.983   3.046   3.457
 7172SOL    HW233579   1.935   3.202   3.446
 7173SOL     OW33580   2.093   3.506   2.888
 7173SOL    HW133581   2.035   3.426   2.902
 7173SOL    HW233582   2.117   3.513   2.791
 7174SOL     OW33583   2.839   2.027   2.743
 7174SOL    HW133584   2.935   2.028   2.771
 7174SOL    HW233585   2.784   1.984   2.815
 7175SOL     OW33586   2.901   3.033   2.259
 7175SOL    HW133587   2.981   3.069   2.307
 7175SOL    HW233588   2.859   2.960   2.315
 7176SOL     OW33589   3.492   2.300   2.623
 7176SOL    HW133590   3.511   2.386   2.670
 7176SOL    HW233591   3.560   2.231   2.651
 7177SOL     OW33592   2.635   2.972   2.109
 7177SOL    HW133593   2.707   3.031   2.074
 7177SOL    HW233594   2.675   2.888   2.145
 7178SOL     OW33595   2.706   1.948   1.961
 7178SOL    HW133596   2.781   1.882   1.973
 7178SOL    HW233597   2.737   2.039   1.989
 7179SOL     OW33598   2.385   2.377   2.573
 7179SOL    HW133599   2.423   2.288   2.599
 7179SOL    HW233600   2.452   2.427   2.518
 7180SOL     OW33601   2.373   2.935   3.227
 7180SOL    HW133602   2.469   2.915   3.247
 7180SOL    HW233603   2.362   3.033   3.209
 7181SOL     OW33604   3.595   2.978   3.196
 7181SOL    HW133605   3.609   3.076   3.210
 7181SOL    HW233606   3.652   2.947   3.120
 7182SOL     OW33607   2.078   3.087   1.888
 7182SOL    HW133608   2.070   3.099   1.789
 7182SOL    HW233609   2.137   3.158   1.926
 7183SOL     OW33610   2.505   3.526   2.048
 7183SOL    HW133611   2.480   3.621   2.032
 7183SOL    HW233612   2.472   3.498   2.138
 7184SOL     OW33613   3.155   2.949   3.272
 7184SOL    HW133614   3.099   2.908   3.343
 7184SOL    HW233615   3.135   3.047   3.266
 7185SOL     OW33616   2.422   3.565   3.272
 7185SOL    HW133617   2.471   3.645   3.236
 7185SOL    HW233618   2.330   3.563   3.233
 7186SOL     OW33619   2.065   2.446   3.634
 7186SOL    HW133620   2.082   2.347   3.639
 7186SOL    HW233621   2.129   2.494   3.695
 7187SOL     OW33622   3.504   3.407   2.873
 7187SOL    HW133623   3.476   3.500   2.897
 7187SOL    HW233624   3.554   3.366   2.949
 7188SOL     OW33625   1.900   2.780   2.434
 7188SOL    HW133626   1.907   2.879   2.421
 7188SOL    HW233627   1.809   2.757   2.468
 7189SOL     OW33628   3.476   2.954   2.684
 7189SOL    HW133629   3.438   3.043   2.657
 7189SOL    HW233630   3.476   2.892   2.606
 7190SOL     OW33631   2.634   2.360   2.853
 7190SOL    HW133632   2.726   2.388   2.880
 7190SOL    HW233633   2.566   2.411   2.907
 7191SOL     OW33634   2.487   3.211   3.080
 7191SOL    HW133635   2.400   3.210   3.031
 7191SOL    HW233636   2.553   3.151   3.033
 7192SOL     OW33637   2.053   2.553   2.994
 7192SOL    HW133638   2.091   2.612   3.065
 7192SOL    HW233639   2.036   2.606   2.912
 7193SOL     OW33640   2.224   3.199   3.292
 7193SOL    HW133641   2.243   3.287   3.336
 7193SOL    HW233642   2.129   3.173   3.310
 7194SOL     OW33643   3.467   3.515   3.640
 7194SOL    HW133644   3.436   3.437   3.585
 7194SOL    HW233645   3.436   3.600   3.598
 7195SOL     OW33646   3.175   3.053   2.361
 7195SOL    HW133647   3.274   3.057   2.377
 7195SOL    HW233648   3.158   3.039   2.263
 7196SOL     OW33649   2.528   2.219   2.309
 7196SOL    HW133650   2.430   2.213   2.289
 7196SOL    HW233651   2.547   2.176   2.397
 7197SOL     OW33652   3.448   1.902   2.568
 7197SOL    HW133653   3.443   1.943   2.477
 7197SOL    HW233654   3.529   1.936   2.615
 7198SOL     OW33655   3.051   2.658   3.261
 7198SOL    HW133656   3.150   2.667   3.251
 7198SOL    HW233657   3.007   2.660   3.171
 7199SOL     OW33658   2.545   2.618   2.663
 7199SOL    HW133659   2.567   2.540   2.721
 7199SOL    HW233660   2.554   2.592   2.567
 7200SOL     OW33661   3.210   3.325   2.875
 7200SOL    HW133662   3.124   3.282   2.904
 7200SOL    HW233663   3.199   3.365   2.784
 7201SOL     OW33664   3.213   2.310   2.550
 7201SOL    HW133665   3.212   2.302   2.451
 7201SOL    HW233666   3.302   2.282   2.585
 7202SOL     OW33667   2.940   3.326   4.383
 7202SOL    HW133668   3.031   3.360   4.406
 7202SOL    HW233669   2.912   3.364   4.295
 7203SOL     OW33670   3.451   3.122   4.241
 7203SOL    HW133671   3.462   3.206   4.295
 7203SOL    HW233672   3.541   3.085   4.218
 7204SOL     OW33673   3.531   2.404   5.105
 7204SOL    HW133674   3.433   2.396   5.127
 7204SOL    HW233675   3.584   2.393   5.189
 7205SOL     OW33676   2.198   2.041   3.710
 7205SOL    HW133677   2.111   2.038   3.661
 7205SOL    HW233678   2.249   2.123   3.682
 7206SOL     OW33679   3.185   3.430   4.485
 7206SOL    HW133680   3.174   3.527   4.508
 7206SOL    HW233681   3.278   3.413   4.455
 7207SOL     OW33682   3.063   1.941   5.043
 7207SOL    HW133683   2.987   1.896   5.090
 7207SOL    HW233684   3.092   1.886   4.965
 7208SOL     OW33685   2.801   2.721   5.420
 7208SOL    HW133686   2.766   2.696   5.330
 7208SOL    HW233687   2.725   2.742   5.481
 7209SOL     OW33688   2.408   3.395   4.114
 7209SOL    HW133689   2.364   3.404   4.203
 7209SOL    HW233690   2.479   3.325   4.118
 7210SOL     OW33691   2.426   1.928   3.836
 7210SOL    HW133692   2.514   1.956   3.797
 7210SOL    HW233693   2.354   1.991   3.806
 7211SOL     OW33694   3.396   2.913   5.219
 7211SOL    HW133695   3.304   2.918   5.181
 7211SOL    HW233696   3.461   2.951   5.153
 7212SOL     OW33697   3.296   2.920   4.900
 7212SOL    HW133698   3.221   2.909   4.965
 7212SOL    HW233699   3.333   3.013   4.906
 7213SOL     OW33700   2.792   3.175   5.200
 7213SOL    HW133701   2.735   3.238   5.146
 7213SOL    HW233702   2.825   3.101   5.141
 7214SOL     OW33703   2.335   3.068   4.409
 7214SOL    HW133704   2.268   3.022   4.468
 7214SOL    HW233705   2.427   3.036   4.432
 7215SOL     OW33706   2.562   2.474   4.240
 7215SOL    HW133707   2.601   2.544   4.181
 7215SOL    HW233708   2.536   2.394   4.186
 7216SOL     OW33709   3.182   2.382   5.449
 7216SOL    HW133710   3.278   2.386   5.475
 7216SOL    HW233711   3.138   2.306   5.496
 7217SOL     OW33712   2.265   3.237   3.893
 7217SOL    HW133713   2.329   3.253   3.818
 7217SOL    HW233714   2.289   3.295   3.971
 7218SOL     OW33715   2.416   2.193   4.703
 7218SOL    HW133716   2.492   2.258   4.699
 7218SOL    HW233717   2.446   2.104   4.670
 7219SOL     OW33718   2.113   2.619   4.121
 7219SOL    HW133719   2.128   2.553   4.195
 7219SOL    HW233720   2.063   2.698   4.156
 7220SOL     OW33721   2.699   3.564   4.298
 7220SOL    HW133722   2.764   3.497   4.262
 7220SOL    HW233723   2.689   3.640   4.234
 7221SOL     OW33724   3.591   3.446   4.040
 7221SOL    HW133725   3.687   3.420   4.033
 7221SOL    HW233726   3.567   3.506   3.964
 7222SOL     OW33727   3.503   2.139   4.811
 7222SOL    HW133728   3.554   2.211   4.764
 7222SOL    HW233729   3.408   2.166   4.820
 7223SOL     OW33730   2.903   2.168   4.080
 7223SOL    HW133731   2.928   2.262   4.101
 7223SOL    HW233732   2.904   2.114   4.164
 7224SOL     OW33733   2.027   2.881   5.265
 7224SOL    HW133734   2.123   2.896   5.283
 7224SOL    HW233735   1.989   2.819   5.334
 7225SOL     OW33736   2.353   2.526   3.808
 7225SOL    HW133737   2.313   2.605   3.761
 7225SOL    HW233738   2.442   2.505   3.768
 7226SOL     OW33739   2.526   3.450   4.506
 7226SOL    HW133740   2.599   3.473   4.442
 7226SOL    HW233741   2.455   3.397   4.460
 7227SOL     OW33742   2.868   2.482   5.260
 7227SOL    HW133743   2.901   2.399   5.307
 7227SOL    HW233744   2.941   2.550   5.259
 7228SOL     OW33745   3.472   3.282   4.482
 7228SOL    HW133746   3.468   3.317   4.575
 7228SOL    HW233747   3.531   3.341   4.426
 7229SOL     OW33748   2.203   3.103   4.158
 7229SOL    HW133749   2.249   3.077   4.243
 7229SOL    HW233750   2.223   3.035   4.087
 7230SOL     OW33751   3.061   2.158   3.869
 7230SOL    HW133752   3.155   2.128   3.887
 7230SOL    HW233753   3.009   2.158   3.955
 7231SOL     OW33754   2.213   2.363   4.964
 7231SOL    HW133755   2.203   2.276   4.916
 7231SOL    HW233756   2.149   2.430   4.927
 7232SOL     OW33757   3.295   2.643   5.002
 7232SOL    HW133758   3.299   2.737   4.967
 7232SOL    HW233759   3.388   2.612   5.024
 7233SOL     OW33760   2.248   2.135   4.123
 7233SOL    HW133761   2.202   2.175   4.202
 7233SOL    HW233762   2.196   2.154   4.041
 7234SOL     OW33763   3.376   3.662   5.035
 7234SOL    HW133764   3.319   3.613   4.969
 7234SOL    HW233765   3.462   3.689   4.992
 7235SOL     OW33766   3.671   2.380   4.890
 7235SOL    HW133767   3.728   2.462   4.892
 7235SOL    HW233768   3.612   2.379   4.970
 7236SOL     OW33769   3.688   3.606   4.803
 7236SOL    HW133770   3.734   3.616   4.891
 7236SOL    HW233771   3.755   3.609   4.730
 7237SOL     OW33772   2.801   2.346   4.365
 7237SOL    HW133773   2.877   2.374   4.424
 7237SOL    HW233774   2.757   2.426   4.326
 7238SOL     OW33775   3.036   2.810   3.882
 7238SOL    HW133776   3.073   2.760   3.960
 7238SOL    HW233777   2.966   2.755   3.837
 7239SOL     OW33778   2.878   2.232   5.503
 7239SOL    HW133779   2.941   2.237   5.580
 7239SOL    HW233780   2.786   2.210   5.536
 7240SOL     OW33781   3.619   2.479   3.961
 7240SOL    HW133782   3.640   2.398   3.907
 7240SOL    HW233783   3.636   2.460   4.058
 7241SOL     OW33784   2.913   3.617   3.869
 7241SOL    HW133785   2.947   3.530   3.834
 7241SOL    HW233786   2.881   3.605   3.963
 7242SOL     OW33787   2.594   1.884   5.401
 7242SOL    HW133788   2.601   1.790   5.368
 7242SOL    HW233789   2.651   1.894   5.483
 7243SOL     OW33790   3.517   2.485   4.669
 7243SOL    HW133791   3.502   2.576   4.706
 7243SOL    HW233792   3.587   2.438   4.723
 7244SOL     OW33793   2.927   3.151   5.435
 7244SOL    HW133794   2.949   3.061   5.397
 7244SOL    HW233795   2.862   3.198   5.376
 7245SOL     OW33796   2.582   2.993   5.439
 7245SOL    HW133797   2.553   3.070   5.496
 7245SOL    HW233798   2.592   2.912   5.497
 7246SOL     OW33799   3.217   1.857   4.545
 7246SOL    HW133800   3.166   1.941   4.527
 7246SOL    HW233801   3.303   1.859   4.494
 7247SOL     OW33802   3.572   2.063   5.474
 7247SOL    HW133803   3.549   2.084   5.569
 7247SOL    HW233804   3.548   1.968   5.454
 7248SOL     OW33805   1.875   2.467   4.218
 7248SOL    HW133806   1.877   2.418   4.305
 7248SOL    HW233807   1.877   2.566   4.236
 7249SOL     OW33808   2.196   2.055   4.539
 7249SOL    HW133809   2.248   2.095   4.614
 7249SOL    HW233810   2.249   1.982   4.496
 7250SOL     OW33811   2.180   2.103   4.873
 7250SOL    HW133812   2.145   2.010   4.873
 7250SOL    HW233813   2.267   2.106   4.824
 7251SOL     OW33814   2.847   2.725   4.613
 7251SOL    HW133815   2.873   2.805   4.559
 7251SOL    HW233816   2.841   2.645   4.553
 7252SOL     OW33817   2.048   3.352   4.072
 7252SOL    HW133818   2.075   3.258   4.092
 7252SOL    HW233819   2.073   3.374   3.978
 7253SOL     OW33820   3.330   3.221   4.946
 7253SOL    HW133821   3.301   3.258   4.857
 7253SOL    HW233822   3.252   3.221   5.008
 7254SOL     OW33823   2.062   3.495   4.309
 7254SOL    HW133824   1.978   3.546   4.327
 7254SOL    HW233825   2.053   3.444   4.224
 7255SOL     OW33826   3.583   3.292   4.984
 7255SOL    HW133827   3.614   3.306   5.078
 7255SOL    HW233828   3.484   3.279   4.983
 7256SOL     OW33829   2.335   2.792   3.711
 7256SOL    HW133830   2.304   2.826   3.623
 7256SOL    HW233831   2.339   2.867   3.777
 7257SOL     OW33832   2.852   2.979   5.010
 7257SOL    HW133833   2.902   2.894   4.994
 7257SOL    HW233834   2.806   3.006   4.925
 7258SOL     OW33835   1.939   2.684   3.884
 7258SOL    HW133836   1.999   2.631   3.944
 7258SOL    HW233837   1.845   2.652   3.896
 7259SOL     OW33838   3.459   2.682   4.084
 7259SOL    HW133839   3.527   2.616   4.051
 7259SOL    HW233840   3.474   2.770   4.040
 7260SOL     OW33841   2.707   3.669   4.732
 7260SOL    HW133842   2.753   3.602   4.674
 7260SOL    HW233843   2.633   3.625   4.782
 7261SOL     OW33844   2.614   2.738   3.768
 7261SOL    HW133845   2.643   2.657   3.819
 7261SOL    HW233846   2.514   2.737   3.759
 7262SOL     OW33847   3.210   2.270   4.114
 7262SOL    HW133848   3.147   2.328   4.062
 7262SOL    HW233849   3.303   2.304   4.102
 7263SOL     OW33850   2.107   2.471   5.214
 7263SOL    HW133851   2.127   2.376   5.189
 7263SOL    HW233852   2.070   2.474   5.307
 7264SOL     OW33853   1.989   2.126   5.104
 7264SOL    HW133854   2.061   2.136   5.035
 7264SOL    HW233855   1.900   2.125   5.059
 7265SOL     OW33856   2.887   2.747   4.869
 7265SOL    HW133857   2.881   2.733   4.770
 7265SOL    HW233858   2.806   2.708   4.913
 7266SOL     OW33859   3.478   2.281   4.184
 7266SOL    HW133860   3.574   2.252   4.181
 7266SOL    HW233861   3.439   2.259   4.273
 7267SOL     OW33862   2.762   3.356   4.621
 7267SOL    HW133863   2.820   3.367   4.540
 7267SOL    HW233864   2.668   3.380   4.599
 7268SOL     OW33865   2.712   2.222   3.906
 7268SOL    HW133866   2.621   2.235   3.944
 7268SOL    HW233867   2.772   2.182   3.976
 7269SOL     OW33868   2.823   3.167   3.841
 7269SOL    HW133869   2.876   3.107   3.901
 7269SOL    HW233870   2.862   3.168   3.750
 7270SOL     OW33871   3.574   3.462   4.326
 7270SOL    HW133872   3.541   3.555   4.345
 7270SOL    HW233873   3.572   3.446   4.227
 7271SOL     OW33874   2.989   2.735   4.315
 7271SOL    HW133875   3.054   2.763   4.386
 7271SOL    HW233876   2.910   2.796   4.317
 7272SOL     OW33877   2.737   3.461   5.339
 7272SOL    HW133878   2.725   3.392   5.268
 7272SOL    HW233879   2.700   3.426   5.426
 7273SOL     OW33880   3.181   2.775   4.518
 7273SOL    HW133881   3.202   2.717   4.596
 7273SOL    HW233882   3.190   2.871   4.544
 7274SOL     OW33883   2.137   2.904   4.564
 7274SOL    HW133884   2.060   2.966   4.557
 7274SOL    HW233885   2.174   2.905   4.657
 7275SOL     OW33886   2.770   2.852   4.263
 7275SOL    HW133887   2.757   2.763   4.220
 7275SOL    HW233888   2.701   2.866   4.334
 7276SOL     OW33889   3.074   3.240   5.102
 7276SOL    HW133890   3.107   3.325   5.143
 7276SOL    HW233891   2.975   3.236   5.109
 7277SOL     OW33892   1.881   2.157   4.166
 7277SOL    HW133893   1.941   2.108   4.104
 7277SOL    HW233894   1.936   2.209   4.231
 7278SOL     OW33895   3.504   3.655   3.857
 7278SOL    HW133896   3.594   3.699   3.859
 7278SOL    HW233897   3.503   3.586   3.785
 7279SOL     OW33898   2.668   2.622   5.015
 7279SOL    HW133899   2.670   2.708   5.066
 7279SOL    HW233900   2.725   2.554   5.062
 7280SOL     OW33901   1.905   3.649   5.086
 7280SOL    HW133902   1.913   3.749   5.084
 7280SOL    HW233903   1.881   3.620   5.179
 7281SOL     OW33904   2.686   2.668   4.080
 7281SOL    HW133905   2.597   2.696   4.045
 7281SOL    HW233906   2.727   2.602   4.016
 7282SOL     OW33907   2.208   2.386   4.619
 7282SOL    HW133908   2.264   2.379   4.536
 7282SOL    HW233909   2.265   2.364   4.699
 7283SOL     OW33910   2.205   3.584   3.890
 7283SOL    HW133911   2.297   3.614   3.865
 7283SOL    HW233912   2.180   3.623   3.979
 7284SOL     OW33913   3.181   3.606   4.827
 7284SOL    HW133914   3.200   3.669   4.753
 7284SOL    HW233915   3.189   3.512   4.794
 7285SOL     OW33916   1.886   3.001   4.639
 7285SOL    HW133917   1.796   3.017   4.600
 7285SOL    HW233918   1.884   2.917   4.694
 7286SOL     OW33919   2.637   1.906   4.089
 7286SOL    HW133920   2.598   1.895   3.998
 7286SOL    HW233921   2.593   1.982   4.136
 7287SOL     OW33922   1.882   3.042   4.183
 7287SOL    HW133923   1.960   3.100   4.207
 7287SOL    HW233924   1.901   2.993   4.098
 7288SOL     OW33925   3.412   2.170   5.267
 7288SOL    HW133926   3.351   2.248   5.264
 7288SOL    HW233927   3.467   2.174   5.350
 7289SOL     OW33928   3.128   2.116   4.558
 7289SOL    HW133929   3.127   2.194   4.495
 7289SOL    HW233930   3.171   2.143   4.644
 7290SOL     OW33931   3.248   1.922   3.854
 7290SOL    HW133932   3.328   1.862   3.851
 7290SOL    HW233933   3.174   1.875   3.902
 7291SOL     OW33934   3.461   1.894   5.288
 7291SOL    HW133935   3.487   1.851   5.202
 7291SOL    HW233936   3.411   1.978   5.270
 7292SOL     OW33937   2.563   2.153   4.420
 7292SOL    HW133938   2.552   2.095   4.501
 7292SOL    HW233939   2.648   2.205   4.428
 7293SOL     OW33940   3.143   2.504   4.812
 7293SOL    HW133941   3.197   2.544   4.738
 7293SOL    HW233942   3.181   2.533   4.900
 7294SOL     OW33943   3.436   1.910   4.128
 7294SOL    HW133944   3.443   1.864   4.040
 7294SOL    HW233945   3.340   1.920   4.153
 7295SOL     OW33946   2.412   3.225   5.491
 7295SOL    HW133947   2.373   3.288   5.424
 7295SOL    HW233948   2.495   3.265   5.531
 7296SOL     OW33949   2.288   2.957   5.323
 7296SOL    HW133950   2.307   2.981   5.228
 7296SOL    HW233951   2.281   3.040   5.378
 7297SOL     OW33952   1.949   3.247   4.797
 7297SOL    HW133953   1.918   3.173   4.738
 7297SOL    HW233954   1.881   3.265   4.868
 7298SOL     OW33955   3.035   2.448   4.530
 7298SOL    HW133956   3.117   2.425   4.478
 7298SOL    HW233957   3.030   2.389   4.611
 7299SOL     OW33958   3.635   2.475   5.366
 7299SOL    HW133959   3.624   2.561   5.315
 7299SOL    HW233960   3.729   2.466   5.396
 7300SOL     OW33961   3.206   2.248   4.785
 7300SOL    HW133962   3.180   2.345   4.791
 7300SOL    HW233963   3.206   2.208   4.877
 7301SOL     OW33964   3.436   2.380   5.536
 7301SOL    HW133965   3.516   2.405   5.480
 7301SOL    HW233966   3.467   2.345   5.624
 7302SOL     OW33967   3.147   2.683   4.116
 7302SOL    HW133968   3.093   2.681   4.200
 7302SOL    HW233969   3.224   2.746   4.127
 7303SOL     OW33970   3.444   2.779   4.336
 7303SOL    HW133971   3.458   2.742   4.243
 7303SOL    HW233972   3.355   2.749   4.370
 7304SOL     OW33973   3.600   2.716   5.231
 7304SOL    HW133974   3.502   2.737   5.233
 7304SOL    HW233975   3.649   2.792   5.190
 7305SOL     OW33976   3.454   2.136   3.910
 7305SOL    HW133977   3.459   2.178   4.001
 7305SOL    HW233978   3.387   2.061   3.912
 7306SOL     OW33979   2.601   3.351   5.130
 7306SOL    HW133980   2.538   3.429   5.137
 7306SOL    HW233981   2.569   3.289   5.058
 7307SOL     OW33982   1.992   2.146   5.395
 7307SOL    HW133983   2.010   2.135   5.297
 7307SOL    HW233984   1.894   2.142   5.412
 7308SOL     OW33985   1.872   3.560   5.339
 7308SOL    HW133986   1.944   3.546   5.407
 7308SOL    HW233987   1.783   3.563   5.384
 7309SOL     OW33988   2.040   2.216   4.363
 7309SOL    HW133989   1.983   2.271   4.424
 7309SOL    HW233990   2.110   2.168   4.416
 7310SOL     OW33991   3.212   3.448   5.226
 7310SOL    HW133992   3.165   3.516   5.281
 7310SOL    HW233993   3.279   3.494   5.167
 7311SOL     OW33994   2.177   2.407   3.961
 7311SOL    HW133995   2.249   2.436   3.898
 7311SOL    HW233996   2.133   2.487   4.001
 7312SOL     OW33997   3.563   2.069   5.064
 7312SOL    HW133998   3.519   2.117   5.140
 7312SOL    HW233999   3.541   2.115   4.978
 7313SOL     OW34000   2.292   3.670   4.427
 7313SOL    HW134001   2.216   3.636   4.372
 7313SOL    HW234002   2.378   3.633   4.392
 7314SOL     OW34003   2.217   3.179   4.872
 7314SOL    HW134004   2.229   3.195   4.969
 7314SOL    HW234005   2.130   3.219   4.842
 7315SOL     OW34006   3.101   3.383   5.518
 7315SOL    HW134007   3.060   3.298   5.484
 7315SOL    HW234008   3.081   3.457   5.454
 7316SOL     OW34009   2.591   3.103   4.208
 7316SOL    HW134010   2.634   3.034   4.150
 7316SOL    HW234011   2.555   3.060   4.291
 7317SOL     OW34012   2.223   2.654   4.410
 7317SOL    HW134013   2.215   2.752   4.428
 7317SOL    HW234014   2.307   2.620   4.451
 7318SOL     OW34015   2.069   2.134   3.925
 7318SOL    HW134016   2.113   2.103   3.842
 7318SOL    HW234017   2.070   2.234   3.929
 7319SOL     OW34018   1.922   2.386   4.536
 7319SOL    HW134019   1.886   2.479   4.528
 7319SOL    HW234020   2.005   2.387   4.592
 7320SOL     OW34021   2.357   2.973   3.922
 7320SOL    HW134022   2.457   2.973   3.933
 7320SOL    HW234023   2.326   3.066   3.901
 7321SOL     OW34024   2.983   2.565   3.738
 7321SOL    HW134025   2.914   2.622   3.694
 7321SOL    HW234026   3.064   2.559   3.679
 7322SOL     OW34027   2.718   2.484   3.881
 7322SOL    HW134028   2.808   2.485   3.836
 7322SOL    HW234029   2.695   2.390   3.906
 7323SOL     OW34030   3.169   2.001   4.175
 7323SOL    HW134031   3.079   1.985   4.216
 7323SOL    HW234032   3.177   2.097   4.149
 7324SOL     OW34033   3.283   2.401   5.191
 7324SOL    HW134034   3.235   2.424   5.275
 7324SOL    HW234035   3.217   2.371   5.122
 7325SOL     OW34036   1.918   1.916   3.835
 7325SOL    HW134037   1.981   1.839   3.843
 7325SOL    HW234038   1.938   1.984   3.906
 7326SOL     OW34039   2.191   2.891   4.836
 7326SOL    HW134040   2.202   2.846   4.925
 7326SOL    HW234041   2.218   2.987   4.843
 7327SOL     OW34042   3.490   2.903   3.936
 7327SOL    HW134043   3.561   2.973   3.938
 7327SOL    HW234044   3.477   2.873   3.841
 7328SOL     OW34045   2.472   2.504   4.858
 7328SOL    HW134046   2.547   2.547   4.907
 7328SOL    HW234047   2.405   2.469   4.924
 7329SOL     OW34048   2.615   2.873   5.175
 7329SOL    HW134049   2.684   2.925   5.125
 7329SOL    HW234050   2.610   2.906   5.270
 7330SOL     OW34051   3.007   2.894   5.335
 7330SOL    HW134052   2.929   2.840   5.368
 7330SOL    HW234053   3.088   2.872   5.390
 7331SOL     OW34054   2.936   2.076   4.331
 7331SOL    HW134055   2.995   2.136   4.386
 7331SOL    HW234056   2.863   2.040   4.388
 7332SOL     OW34057   3.046   3.608   5.371
 7332SOL    HW134058   2.951   3.606   5.339
 7332SOL    HW234059   3.067   3.699   5.408
 7333SOL     OW34060   2.464   1.953   4.602
 7333SOL    HW134061   2.392   1.886   4.588
 7333SOL    HW234062   2.546   1.907   4.637
 7334SOL     OW34063   2.164   3.618   4.969
 7334SOL    HW134064   2.144   3.600   4.873
 7334SOL    HW234065   2.091   3.580   5.026
 7335SOL     OW34066   2.857   3.082   4.514
 7335SOL    HW134067   2.896   3.125   4.433
 7335SOL    HW234068   2.930   3.065   4.581
 7336SOL     OW34069   2.551   2.810   4.716
 7336SOL    HW134070   2.549   2.726   4.661
 7336SOL    HW234071   2.500   2.796   4.801
 7337SOL     OW34072   1.890   2.820   4.842
 7337SOL    HW134073   1.979   2.798   4.882
 7337SOL    HW234074   1.835   2.736   4.838
 7338SOL     OW34075   2.118   1.865   4.122
 7338SOL    HW134076   2.156   1.953   4.149
 7338SOL    HW234077   2.041   1.841   4.182
 7339SOL     OW34078   2.534   2.482   5.450
 7339SOL    HW134079   2.486   2.533   5.379
 7339SOL    HW234080   2.627   2.461   5.420
 7340SOL     OW34081   1.940   2.952   3.942
 7340SOL    HW134082   1.930   2.855   3.921
 7340SOL    HW234083   1.993   2.997   3.870
 7341SOL     OW34084   3.637   2.064   4.543
 7341SOL    HW134085   3.592   2.046   4.630
 7341SOL    HW234086   3.735   2.081   4.559
 7342SOL     OW34087   2.685   3.040   4.795
 7342SOL    HW134088   2.636   2.955   4.776
 7342SOL    HW234089   2.755   3.055   4.726
 7343SOL     OW34090   3.023   2.463   4.004
 7343SOL    HW134091   3.075   2.535   4.050
 7343SOL    HW234092   3.036   2.470   3.906
 7344SOL     OW34093   3.384   3.278   5.331
 7344SOL    HW134094   3.369   3.180   5.345
 7344SOL    HW234095   3.301   3.320   5.295
 7345SOL     OW34096   2.141   2.720   5.071
 7345SOL    HW134097   2.105   2.630   5.097
 7345SOL    HW234098   2.102   2.790   5.131
 7346SOL     OW34099   2.643   3.346   3.729
 7346SOL    HW134100   2.618   3.423   3.788
 7346SOL    HW234101   2.707   3.286   3.777
 7347SOL     OW34102   2.461   3.553   4.763
 7347SOL    HW134103   2.481   3.523   4.670
 7347SOL    HW234104   2.386   3.498   4.800
 7348SOL     OW34105   2.604   2.964   4.480
 7348SOL    HW134106   2.693   3.010   4.480
 7348SOL    HW234107   2.597   2.904   4.559
 7349SOL     OW34108   2.782   3.311   4.149
 7349SOL    HW134109   2.832   3.299   4.064
 7349SOL    HW234110   2.728   3.228   4.168
 7350SOL     OW34111   1.972   2.658   4.549
 7350SOL    HW134112   2.067   2.649   4.517
 7350SOL    HW234113   1.938   2.750   4.528
 7351SOL     OW34114   1.909   2.775   5.476
 7351SOL    HW134115   1.824   2.726   5.457
 7351SOL    HW234116   1.936   2.762   5.571
 7352SOL     OW34117   2.806   3.684   5.182
 7352SOL    HW134118   2.778   3.597   5.223
 7352SOL    HW234119   2.750   3.758   5.219
 7353SOL     OW34120   3.035   3.031   4.712
 7353SOL    HW134121   3.019   3.125   4.743
 7353SOL    HW234122   3.038   2.970   4.792
 7354SOL     OW34123   2.309   2.302   5.476
 7354SOL    HW134124   2.345   2.249   5.399
 7354SOL    HW234125   2.370   2.379   5.494
 7355SOL     OW34126   2.373   2.719   4.048
 7355SOL    HW134127   2.323   2.784   3.992
 7355SOL    HW234128   2.315   2.640   4.067
 7356SOL     OW34129   3.454   2.750   4.746
 7356SOL    HW134130   3.473   2.789   4.655
 7356SOL    HW234131   3.408   2.819   4.802
 7357SOL     OW34132   3.146   2.193   5.042
 7357SOL    HW134133   3.217   2.165   5.106
 7357SOL    HW234134   3.093   2.113   5.014
 7358SOL     OW34135   1.847   1.892   4.243
 7358SOL    HW134136   1.760   1.879   4.196
 7358SOL    HW234137   1.855   1.987   4.273
 7359SOL     OW34138   3.068   1.993   5.484
 7359SOL    HW134139   3.127   2.009   5.564
 7359SOL    HW234140   3.015   2.076   5.465
 7360SOL     OW34141   2.284   3.412   5.309
 7360SOL    HW134142   2.226   3.477   5.358
 7360SOL    HW234143   2.346   3.462   5.249
 7361SOL     OW34144   3.640   3.299   5.250
 7361SOL    HW134145   3.668   3.392   5.272
 7361SOL    HW234146   3.547   3.283   5.283
 7362SOL     OW34147   2.890   2.412   4.800
 7362SOL    HW134148   2.976   2.463   4.799
 7362SOL    HW234149   2.896   2.338   4.867
 7363SOL     OW34150   2.294   3.358   4.372
 7363SOL    HW134151   2.292   3.259   4.385
 7363SOL    HW234152   2.203   3.391   4.349
 7364SOL     OW34153   2.935   3.475   4.960
 7364SOL    HW134154   2.861   3.539   4.978
 7364SOL    HW234155   3.014   3.524   4.922
 7365SOL     OW34156   2.144   3.605   5.459
 7365SOL    HW134157   2.187   3.689   5.425
 7365SOL    HW234158   2.169   3.592   5.555
 7366SOL     OW34159   2.004   3.141   5.330
 7366SOL    HW134160   1.983   3.046   5.303
 7366SOL    HW234161   1.935   3.202   5.292
 7367SOL     OW34162   2.093   3.506   4.734
 7367SOL    HW134163   2.035   3.426   4.748
 7367SOL    HW234164   2.117   3.513   4.637
 7368SOL     OW34165   2.839   2.027   4.589
 7368SOL    HW134166   2.935   2.028   4.617
 7368SOL    HW234167   2.784   1.984   4.661
 7369SOL     OW34168   2.901   3.033   4.105
 7369SOL    HW134169   2.981   3.069   4.153
 7369SOL    HW234170   2.859   2.960   4.161
 7370SOL     OW34171   3.492   2.300   4.469
 7370SOL    HW134172   3.511   2.386   4.516
 7370SOL    HW234173   3.560   2.231   4.497
 7371SOL     OW34174   2.635   2.972   3.955
 7371SOL    HW134175   2.707   3.031   3.920
 7371SOL    HW234176   2.675   2.888   3.991
 7372SOL     OW34177   2.706   1.948   3.807
 7372SOL    HW134178   2.781   1.882   3.819
 7372SOL    HW234179   2.737   2.039   3.835
 7373SOL     OW34180   2.385   2.377   4.419
 7373SOL    HW134181   2.423   2.288   4.445
 7373SOL    HW234182   2.452   2.427   4.364
 7374SOL     OW34183   2.373   2.935   5.073
 7374SOL    HW134184   2.469   2.915   5.093
 7374SOL    HW234185   2.362   3.033   5.055
 7375SOL     OW34186   3.595   2.978   5.042
 7375SOL    HW134187   3.609   3.076   5.056
 7375SOL    HW234188   3.652   2.947   4.966
 7376SOL     OW34189   2.078   3.087   3.734
 7376SOL    HW134190   2.070   3.099   3.635
 7376SOL    HW234191   2.137   3.158   3.772
 7377SOL     OW34192   2.505   3.526   3.894
 7377SOL    HW134193   2.480   3.621   3.878
 7377SOL    HW234194   2.472   3.498   3.984
 7378SOL     OW34195   3.155   2.949   5.118
 7378SOL    HW134196   3.099   2.908   5.189
 7378SOL    HW234197   3.135   3.047   5.112
 7379SOL     OW34198   2.422   3.565   5.118
 7379SOL    HW134199   2.471   3.645   5.082
 7379SOL    HW234200   2.330   3.563   5.079
 7380SOL     OW34201   2.065   2.446   5.480
 7380SOL    HW134202   2.082   2.347   5.485
 7380SOL    HW234203   2.129   2.494   5.541
 7381SOL     OW34204   3.504   3.407   4.719
 7381SOL    HW134205   3.476   3.500   4.743
 7381SOL    HW234206   3.554   3.366   4.795
 7382SOL     OW34207   1.900   2.780   4.280
 7382SOL    HW134208   1.907   2.879   4.267
 7382SOL    HW234209   1.809   2.757   4.314
 7383SOL     OW34210   2.409   2.578   5.218
 7383SOL    HW134211   2.315   2.548   5.199
 7383SOL    HW234212   2.418   2.675   5.195
 7384SOL     OW34213   3.476   2.954   4.530
 7384SOL    HW134214   3.438   3.043   4.503
 7384SOL    HW234215   3.476   2.892   4.452
 7385SOL     OW34216   2.634   2.360   4.699
 7385SOL    HW134217   2.726   2.388   4.726
 7385SOL    HW234218   2.566   2.411   4.753
 7386SOL     OW34219   2.487   3.211   4.926
 7386SOL    HW134220   2.400   3.210   4.877
 7386SOL    HW234221   2.553   3.151   4.879
 7387SOL     OW34222   2.053   2.553   4.840
 7387SOL    HW134223   2.091   2.612   4.911
 7387SOL    HW234224   2.036   2.606   4.758
 7388SOL     OW34225   2.224   3.199   5.138
 7388SOL    HW134226   2.243   3.287   5.182
 7388SOL    HW234227   2.129   3.173   5.156
 7389SOL     OW34228   3.467   3.515   5.486
 7389SOL    HW134229   3.436   3.437   5.431
 7389SOL    HW234230   3.436   3.600   5.444
 7390SOL     OW34231   3.175   3.053   4.207
 7390SOL    HW134232   3.274   3.057   4.223
 7390SOL    HW234233   3.158   3.039   4.109
 7391SOL     OW34234   2.528   2.219   4.155
 7391SOL    HW134235   2.430   2.213   4.135
 7391SOL    HW234236   2.547   2.176   4.243
 7392SOL     OW34237   3.448   1.902   4.414
 7392SOL    HW134238   3.443   1.943   4.323
 7392SOL    HW234239   3.529   1.936   4.461
 7393SOL     OW34240   3.051   2.658   5.107
 7393SOL    HW134241   3.150   2.667   5.097
 7393SOL    HW234242   3.007   2.660   5.017
 7394SOL     OW34243   2.545   2.618   4.509
 7394SOL    HW134244   2.567   2.540   4.567
 7394SOL    HW234245   2.554   2.592   4.413
 7395SOL     OW34246   3.210   3.325   4.721
 7395SOL    HW134247   3.124   3.282   4.750
 7395SOL    HW234248   3.199   3.365   4.630
 7396SOL     OW34249   3.213   2.310   4.396
 7396SOL    HW134250   3.212   2.302   4.297
 7396SOL    HW234251   3.302   2.282   4.431
 7397SOL     OW34252   2.940   3.326   6.228
 7397SOL    HW134253   3.031   3.360   6.251
 7397SOL    HW234254   2.912   3.364   6.140
 7398SOL     OW34255   3.451   3.122   6.086
 7398SOL    HW134256   3.462   3.206   6.140
 7398SOL    HW234257   3.541   3.085   6.063
 7399SOL     OW34258   3.531   2.404   6.950
 7399SOL    HW134259   3.433   2.396   6.972
 7399SOL    HW234260   3.584   2.393   7.034
 7400SOL     OW34261   2.198   2.041   5.555
 7400SOL    HW134262   2.111   2.038   5.506
 7400SOL    HW234263   2.249   2.123   5.527
 7401SOL     OW34264   3.185   3.430   6.330
 7401SOL    HW134265   3.174   3.527   6.353
 7401SOL    HW234266   3.278   3.413   6.300
 7402SOL     OW34267   3.063   1.941   6.888
 7402SOL    HW134268   2.987   1.896   6.935
 7402SOL    HW234269   3.092   1.886   6.810
 7403SOL     OW34270   2.801   2.721   7.265
 7403SOL    HW134271   2.766   2.696   7.175
 7403SOL    HW234272   2.725   2.742   7.326
 7404SOL     OW34273   2.408   3.395   5.959
 7404SOL    HW134274   2.364   3.404   6.048
 7404SOL    HW234275   2.479   3.325   5.963
 7405SOL     OW34276   2.426   1.928   5.681
 7405SOL    HW134277   2.514   1.956   5.642
 7405SOL    HW234278   2.354   1.991   5.651
 7406SOL     OW34279   3.396   2.913   7.064
 7406SOL    HW134280   3.304   2.918   7.026
 7406SOL    HW234281   3.461   2.951   6.998
 7407SOL     OW34282   3.296   2.920   6.745
 7407SOL    HW134283   3.221   2.909   6.810
 7407SOL    HW234284   3.333   3.013   6.751
 7408SOL     OW34285   2.792   3.175   7.045
 7408SOL    HW134286   2.735   3.238   6.991
 7408SOL    HW234287   2.825   3.101   6.986
 7409SOL     OW34288   2.335   3.068   6.254
 7409SOL    HW134289   2.268   3.022   6.313
 7409SOL    HW234290   2.427   3.036   6.277
 7410SOL     OW34291   2.562   2.474   6.085
 7410SOL    HW134292   2.601   2.544   6.026
 7410SOL    HW234293   2.536   2.394   6.031
 7411SOL     OW34294   3.182   2.382   7.294
 7411SOL    HW134295   3.278   2.386   7.320
 7411SOL    HW234296   3.138   2.306   7.341
 7412SOL     OW34297   2.265   3.237   5.738
 7412SOL    HW134298   2.329   3.253   5.663
 7412SOL    HW234299   2.289   3.295   5.816
 7413SOL     OW34300   2.113   2.619   5.966
 7413SOL    HW134301   2.128   2.553   6.040
 7413SOL    HW234302   2.063   2.698   6.001
 7414SOL     OW34303   2.699   3.564   6.143
 7414SOL    HW134304   2.764   3.497   6.107
 7414SOL    HW234305   2.689   3.640   6.079
 7415SOL     OW34306   3.591   3.446   5.885
 7415SOL    HW134307   3.687   3.420   5.878
 7415SOL    HW234308   3.567   3.506   5.809
 7416SOL     OW34309   3.503   2.139   6.656
 7416SOL    HW134310   3.554   2.211   6.609
 7416SOL    HW234311   3.408   2.166   6.665
 7417SOL     OW34312   2.903   2.168   5.925
 7417SOL    HW134313   2.928   2.262   5.946
 7417SOL    HW234314   2.904   2.114   6.009
 7418SOL     OW34315   2.027   2.881   7.110
 7418SOL    HW134316   2.123   2.896   7.128
 7418SOL    HW234317   1.989   2.819   7.179
 7419SOL     OW34318   2.353   2.526   5.653
 7419SOL    HW134319   2.313   2.605   5.606
 7419SOL    HW234320   2.442   2.505   5.613
 7420SOL     OW34321   2.526   3.450   6.351
 7420SOL    HW134322   2.599   3.473   6.287
 7420SOL    HW234323   2.455   3.397   6.305
 7421SOL     OW34324   2.868   2.482   7.105
 7421SOL    HW134325   2.901   2.399   7.152
 7421SOL    HW234326   2.941   2.550   7.104
 7422SOL     OW34327   3.472   3.282   6.327
 7422SOL    HW134328   3.468   3.317   6.420
 7422SOL    HW234329   3.531   3.341   6.271
 7423SOL     OW34330   2.203   3.103   6.003
 7423SOL    HW134331   2.249   3.077   6.088
 7423SOL    HW234332   2.223   3.035   5.932
 7424SOL     OW34333   3.061   2.158   5.714
 7424SOL    HW134334   3.155   2.128   5.732
 7424SOL    HW234335   3.009   2.158   5.800
 7425SOL     OW34336   3.295   2.643   6.847
 7425SOL    HW134337   3.299   2.737   6.812
 7425SOL    HW234338   3.388   2.612   6.869
 7426SOL     OW34339   2.248   2.135   5.968
 7426SOL    HW134340   2.202   2.175   6.047
 7426SOL    HW234341   2.196   2.154   5.886
 7427SOL     OW34342   3.376   3.662   6.880
 7427SOL    HW134343   3.319   3.613   6.814
 7427SOL    HW234344   3.462   3.689   6.837
 7428SOL     OW34345   3.671   2.380   6.735
 7428SOL    HW134346   3.728   2.462   6.737
 7428SOL    HW234347   3.612   2.379   6.815
 7429SOL     OW34348   3.688   3.606   6.648
 7429SOL    HW134349   3.734   3.616   6.736
 7429SOL    HW234350   3.755   3.609   6.575
 7430SOL     OW34351   2.801   2.346   6.210
 7430SOL    HW134352   2.877   2.374   6.269
 7430SOL    HW234353   2.757   2.426   6.171
 7431SOL     OW34354   3.036   2.810   5.727
 7431SOL    HW134355   3.073   2.760   5.805
 7431SOL    HW234356   2.966   2.755   5.682
 7432SOL     OW34357   2.878   2.232   7.348
 7432SOL    HW134358   2.941   2.237   7.425
 7432SOL    HW234359   2.786   2.210   7.381
 7433SOL     OW34360   3.619   2.479   5.806
 7433SOL    HW134361   3.640   2.398   5.752
 7433SOL    HW234362   3.636   2.460   5.903
 7434SOL     OW34363   2.913   3.617   5.714
 7434SOL    HW134364   2.947   3.530   5.679
 7434SOL    HW234365   2.881   3.605   5.808
 7435SOL     OW34366   2.594   1.884   7.246
 7435SOL    HW134367   2.601   1.790   7.213
 7435SOL    HW234368   2.651   1.894   7.328
 7436SOL     OW34369   3.517   2.485   6.514
 7436SOL    HW134370   3.502   2.576   6.551
 7436SOL    HW234371   3.587   2.438   6.568
 7437SOL     OW34372   2.927   3.151   7.280
 7437SOL    HW134373   2.949   3.061   7.242
 7437SOL    HW234374   2.862   3.198   7.221
 7438SOL     OW34375   2.582   2.993   7.284
 7438SOL    HW134376   2.553   3.070   7.341
 7438SOL    HW234377   2.592   2.912   7.342
 7439SOL     OW34378   3.217   1.857   6.390
 7439SOL    HW134379   3.166   1.941   6.372
 7439SOL    HW234380   3.303   1.859   6.339
 7440SOL     OW34381   3.572   2.063   7.319
 7440SOL    HW134382   3.549   2.084   7.414
 7440SOL    HW234383   3.548   1.968   7.299
 7441SOL     OW34384   1.875   2.467   6.063
 7441SOL    HW134385   1.877   2.418   6.150
 7441SOL    HW234386   1.877   2.566   6.081
 7442SOL     OW34387   2.847   2.725   6.458
 7442SOL    HW134388   2.873   2.805   6.404
 7442SOL    HW234389   2.841   2.645   6.398
 7443SOL     OW34390   2.048   3.352   5.917
 7443SOL    HW134391   2.075   3.258   5.937
 7443SOL    HW234392   2.073   3.374   5.823
 7444SOL     OW34393   3.330   3.221   6.791
 7444SOL    HW134394   3.301   3.258   6.702
 7444SOL    HW234395   3.252   3.221   6.853
 7445SOL     OW34396   2.062   3.495   6.154
 7445SOL    HW134397   1.978   3.546   6.172
 7445SOL    HW234398   2.053   3.444   6.069
 7446SOL     OW34399   3.583   3.292   6.829
 7446SOL    HW134400   3.614   3.306   6.923
 7446SOL    HW234401   3.484   3.279   6.828
 7447SOL     OW34402   2.335   2.792   5.556
 7447SOL    HW134403   2.304   2.826   5.468
 7447SOL    HW234404   2.339   2.867   5.622
 7448SOL     OW34405   2.852   2.979   6.855
 7448SOL    HW134406   2.902   2.894   6.839
 7448SOL    HW234407   2.806   3.006   6.770
 7449SOL     OW34408   1.939   2.684   5.729
 7449SOL    HW134409   1.999   2.631   5.789
 7449SOL    HW234410   1.845   2.652   5.741
 7450SOL     OW34411   3.459   2.682   5.929
 7450SOL    HW134412   3.527   2.616   5.896
 7450SOL    HW234413   3.474   2.770   5.885
 7451SOL     OW34414   2.707   3.669   6.577
 7451SOL    HW134415   2.753   3.602   6.519
 7451SOL    HW234416   2.633   3.625   6.627
 7452SOL     OW34417   2.614   2.738   5.613
 7452SOL    HW134418   2.643   2.657   5.664
 7452SOL    HW234419   2.514   2.737   5.604
 7453SOL     OW34420   2.107   2.471   7.059
 7453SOL    HW134421   2.127   2.376   7.034
 7453SOL    HW234422   2.070   2.474   7.152
 7454SOL     OW34423   1.989   2.126   6.949
 7454SOL    HW134424   2.061   2.136   6.880
 7454SOL    HW234425   1.900   2.125   6.904
 7455SOL     OW34426   2.887   2.747   6.714
 7455SOL    HW134427   2.881   2.733   6.615
 7455SOL    HW234428   2.806   2.708   6.758
 7456SOL     OW34429   2.762   3.356   6.466
 7456SOL    HW134430   2.820   3.367   6.385
 7456SOL    HW234431   2.668   3.380   6.444
 7457SOL     OW34432   2.712   2.222   5.751
 7457SOL    HW134433   2.621   2.235   5.789
 7457SOL    HW234434   2.772   2.182   5.821
 7458SOL     OW34435   2.823   3.167   5.686
 7458SOL    HW134436   2.876   3.107   5.746
 7458SOL    HW234437   2.862   3.168   5.595
 7459SOL     OW34438   3.574   3.462   6.171
 7459SOL    HW134439   3.541   3.555   6.190
 7459SOL    HW234440   3.572   3.446   6.072
 7460SOL     OW34441   2.989   2.735   6.160
 7460SOL    HW134442   3.054   2.763   6.231
 7460SOL    HW234443   2.910   2.796   6.162
 7461SOL     OW34444   2.737   3.461   7.184
 7461SOL    HW134445   2.725   3.392   7.113
 7461SOL    HW234446   2.700   3.426   7.271
 7462SOL     OW34447   3.181   2.775   6.363
 7462SOL    HW134448   3.202   2.717   6.441
 7462SOL    HW234449   3.190   2.871   6.389
 7463SOL     OW34450   2.137   2.904   6.409
 7463SOL    HW134451   2.060   2.966   6.402
 7463SOL    HW234452   2.174   2.905   6.502
 7464SOL     OW34453   2.770   2.852   6.108
 7464SOL    HW134454   2.757   2.763   6.065
 7464SOL    HW234455   2.701   2.866   6.179
 7465SOL     OW34456   3.074   3.240   6.947
 7465SOL    HW134457   3.107   3.325   6.988
 7465SOL    HW234458   2.975   3.236   6.954
 7466SOL     OW34459   1.881   2.157   6.011
 7466SOL    HW134460   1.941   2.108   5.949
 7466SOL    HW234461   1.936   2.209   6.076
 7467SOL     OW34462   3.504   3.655   5.702
 7467SOL    HW134463   3.594   3.699   5.704
 7467SOL    HW234464   3.503   3.586   5.630
 7468SOL     OW34465   2.668   2.622   6.860
 7468SOL    HW134466   2.670   2.708   6.911
 7468SOL    HW234467   2.725   2.554   6.907
 7469SOL     OW34468   1.905   3.649   6.931
 7469SOL    HW134469   1.913   3.749   6.929
 7469SOL    HW234470   1.881   3.620   7.024
 7470SOL     OW34471   2.686   2.668   5.925
 7470SOL    HW134472   2.597   2.696   5.890
 7470SOL    HW234473   2.727   2.602   5.861
 7471SOL     OW34474   2.205   3.584   5.735
 7471SOL    HW134475   2.297   3.614   5.710
 7471SOL    HW234476   2.180   3.623   5.824
 7472SOL     OW34477   3.181   3.606   6.672
 7472SOL    HW134478   3.200   3.669   6.598
 7472SOL    HW234479   3.189   3.512   6.639
 7473SOL     OW34480   1.886   3.001   6.484
 7473SOL    HW134481   1.796   3.017   6.445
 7473SOL    HW234482   1.884   2.917   6.539
 7474SOL     OW34483   2.637   1.906   5.934
 7474SOL    HW134484   2.598   1.895   5.843
 7474SOL    HW234485   2.593   1.982   5.981
 7475SOL     OW34486   1.882   3.042   6.028
 7475SOL    HW134487   1.960   3.100   6.052
 7475SOL    HW234488   1.901   2.993   5.943
 7476SOL     OW34489   3.412   2.170   7.112
 7476SOL    HW134490   3.351   2.248   7.109
 7476SOL    HW234491   3.467   2.174   7.195
 7477SOL     OW34492   3.248   1.922   5.699
 7477SOL    HW134493   3.328   1.862   5.696
 7477SOL    HW234494   3.174   1.875   5.747
 7478SOL     OW34495   3.461   1.894   7.133
 7478SOL    HW134496   3.487   1.851   7.047
 7478SOL    HW234497   3.411   1.978   7.115
 7479SOL     OW34498   2.563   2.153   6.265
 7479SOL    HW134499   2.552   2.095   6.346
 7479SOL    HW234500   2.648   2.205   6.273
 7480SOL     OW34501   3.143   2.504   6.657
 7480SOL    HW134502   3.197   2.544   6.583
 7480SOL    HW234503   3.181   2.533   6.745
 7481SOL     OW34504   3.436   1.910   5.973
 7481SOL    HW134505   3.443   1.864   5.885
 7481SOL    HW234506   3.340   1.920   5.998
 7482SOL     OW34507   2.412   3.225   7.336
 7482SOL    HW134508   2.373   3.288   7.269
 7482SOL    HW234509   2.495   3.265   7.376
 7483SOL     OW34510   2.288   2.957   7.168
 7483SOL    HW134511   2.307   2.981   7.073
 7483SOL    HW234512   2.281   3.040   7.223
 7484SOL     OW34513   1.949   3.247   6.642
 7484SOL    HW134514   1.918   3.173   6.583
 7484SOL    HW234515   1.881   3.265   6.713
 7485SOL     OW34516   3.035   2.448   6.375
 7485SOL    HW134517   3.117   2.425   6.323
 7485SOL    HW234518   3.030   2.389   6.456
 7486SOL     OW34519   3.635   2.475   7.211
 7486SOL    HW134520   3.624   2.561   7.160
 7486SOL    HW234521   3.729   2.466   7.241
 7487SOL     OW34522   3.206   2.248   6.630
 7487SOL    HW134523   3.180   2.345   6.636
 7487SOL    HW234524   3.206   2.208   6.722
 7488SOL     OW34525   3.436   2.380   7.381
 7488SOL    HW134526   3.516   2.405   7.325
 7488SOL    HW234527   3.467   2.345   7.469
 7489SOL     OW34528   3.147   2.683   5.961
 7489SOL    HW134529   3.093   2.681   6.045
 7489SOL    HW234530   3.224   2.746   5.972
 7490SOL     OW34531   3.444   2.779   6.181
 7490SOL    HW134532   3.458   2.742   6.088
 7490SOL    HW234533   3.355   2.749   6.215
 7491SOL     OW34534   3.600   2.716   7.076
 7491SOL    HW134535   3.502   2.737   7.078
 7491SOL    HW234536   3.649   2.792   7.035
 7492SOL     OW34537   3.454   2.136   5.755
 7492SOL    HW134538   3.459   2.178   5.846
 7492SOL    HW234539   3.387   2.061   5.757
 7493SOL     OW34540   2.601   3.351   6.975
 7493SOL    HW134541   2.538   3.429   6.982
 7493SOL    HW234542   2.569   3.289   6.903
 7494SOL     OW34543   1.992   2.146   7.240
 7494SOL    HW134544   2.010   2.135   7.142
 7494SOL    HW234545   1.894   2.142   7.257
 7495SOL     OW34546   1.872   3.560   7.184
 7495SOL    HW134547   1.944   3.546   7.252
 7495SOL    HW234548   1.783   3.563   7.229
 7496SOL     OW34549   2.040   2.216   6.208
 7496SOL    HW134550   1.983   2.271   6.269
 7496SOL    HW234551   2.110   2.168   6.261
 7497SOL     OW34552   3.212   3.448   7.071
 7497SOL    HW134553   3.165   3.516   7.126
 7497SOL    HW234554   3.279   3.494   7.012
 7498SOL     OW34555   2.177   2.407   5.806
 7498SOL    HW134556   2.249   2.436   5.743
 7498SOL    HW234557   2.133   2.487   5.846
 7499SOL     OW34558   3.563   2.069   6.909
 7499SOL    HW134559   3.519   2.117   6.985
 7499SOL    HW234560   3.541   2.115   6.823
 7500SOL     OW34561   2.292   3.670   6.272
 7500SOL    HW134562   2.216   3.636   6.217
 7500SOL    HW234563   2.378   3.633   6.237
 7501SOL     OW34564   2.217   3.179   6.717
 7501SOL    HW134565   2.229   3.195   6.814
 7501SOL    HW234566   2.130   3.219   6.687
 7502SOL     OW34567   3.101   3.383   7.363
 7502SOL    HW134568   3.060   3.298   7.329
 7502SOL    HW234569   3.081   3.457   7.299
 7503SOL     OW34570   2.591   3.103   6.053
 7503SOL    HW134571   2.634   3.034   5.995
 7503SOL    HW234572   2.555   3.060   6.136
 7504SOL     OW34573   2.223   2.654   6.255
 7504SOL    HW134574   2.215   2.752   6.273
 7504SOL    HW234575   2.307   2.620   6.296
 7505SOL     OW34576   2.069   2.134   5.770
 7505SOL    HW134577   2.113   2.103   5.687
 7505SOL    HW234578   2.070   2.234   5.774
 7506SOL     OW34579   1.922   2.386   6.381
 7506SOL    HW134580   1.886   2.479   6.373
 7506SOL    HW234581   2.005   2.387   6.437
 7507SOL     OW34582   2.357   2.973   5.767
 7507SOL    HW134583   2.457   2.973   5.778
 7507SOL    HW234584   2.326   3.066   5.746
 7508SOL     OW34585   2.983   2.565   5.583
 7508SOL    HW134586   2.914   2.622   5.539
 7508SOL    HW234587   3.064   2.559   5.524
 7509SOL     OW34588   2.718   2.484   5.726
 7509SOL    HW134589   2.808   2.485   5.681
 7509SOL    HW234590   2.695   2.390   5.751
 7510SOL     OW34591   3.169   2.001   6.020
 7510SOL    HW134592   3.079   1.985   6.061
 7510SOL    HW234593   3.177   2.097   5.994
 7511SOL     OW34594   3.283   2.401   7.036
 7511SOL    HW134595   3.235   2.424   7.120
 7511SOL    HW234596   3.217   2.371   6.967
 7512SOL     OW34597   1.918   1.916   5.680
 7512SOL    HW134598   1.981   1.839   5.688
 7512SOL    HW234599   1.938   1.984   5.751
 7513SOL     OW34600   2.191   2.891   6.681
 7513SOL    HW134601   2.202   2.846   6.770
 7513SOL    HW234602   2.218   2.987   6.688
 7514SOL     OW34603   3.490   2.903   5.781
 7514SOL    HW134604   3.561   2.973   5.783
 7514SOL    HW234605   3.477   2.873   5.686
 7515SOL     OW34606   2.472   2.504   6.703
 7515SOL    HW134607   2.547   2.547   6.752
 7515SOL    HW234608   2.405   2.469   6.769
 7516SOL     OW34609   2.615   2.873   7.020
 7516SOL    HW134610   2.684   2.925   6.970
 7516SOL    HW234611   2.610   2.906   7.115
 7517SOL     OW34612   3.007   2.894   7.180
 7517SOL    HW134613   2.929   2.840   7.213
 7517SOL    HW234614   3.088   2.872   7.235
 7518SOL     OW34615   2.936   2.076   6.176
 7518SOL    HW134616   2.995   2.136   6.231
 7518SOL    HW234617   2.863   2.040   6.233
 7519SOL     OW34618   3.046   3.608   7.216
 7519SOL    HW134619   2.951   3.606   7.184
 7519SOL    HW234620   3.067   3.699   7.253
 7520SOL     OW34621   2.164   3.618   6.814
 7520SOL    HW134622   2.144   3.600   6.718
 7520SOL    HW234623   2.091   3.580   6.871
 7521SOL     OW34624   2.857   3.082   6.359
 7521SOL    HW134625   2.896   3.125   6.278
 7521SOL    HW234626   2.930   3.065   6.426
 7522SOL     OW34627   2.551   2.810   6.561
 7522SOL    HW134628   2.549   2.726   6.506
 7522SOL    HW234629   2.500   2.796   6.646
 7523SOL     OW34630   1.890   2.820   6.687
 7523SOL    HW134631   1.979   2.798   6.727
 7523SOL    HW234632   1.835   2.736   6.683
 7524SOL     OW34633   2.118   1.865   5.967
 7524SOL    HW134634   2.156   1.953   5.994
 7524SOL    HW234635   2.041   1.841   6.027
 7525SOL     OW34636   2.534   2.482   7.295
 7525SOL    HW134637   2.486   2.533   7.224
 7525SOL    HW234638   2.627   2.461   7.265
 7526SOL     OW34639   1.940   2.952   5.787
 7526SOL    HW134640   1.930   2.855   5.766
 7526SOL    HW234641   1.993   2.997   5.715
 7527SOL     OW34642   3.637   2.064   6.388
 7527SOL    HW134643   3.592   2.046   6.475
 7527SOL    HW234644   3.735   2.081   6.404
 7528SOL     OW34645   2.685   3.040   6.640
 7528SOL    HW134646   2.636   2.955   6.621
 7528SOL    HW234647   2.755   3.055   6.571
 7529SOL     OW34648   3.023   2.463   5.849
 7529SOL    HW134649   3.075   2.535   5.895
 7529SOL    HW234650   3.036   2.470   5.751
 7530SOL     OW34651   3.384   3.278   7.176
 7530SOL    HW134652   3.369   3.180   7.190
 7530SOL    HW234653   3.301   3.320   7.140
 7531SOL     OW34654   2.141   2.720   6.916
 7531SOL    HW134655   2.105   2.630   6.942
 7531SOL    HW234656   2.102   2.790   6.976
 7532SOL     OW34657   2.643   3.346   5.574
 7532SOL    HW134658   2.618   3.423   5.633
 7532SOL    HW234659   2.707   3.286   5.622
 7533SOL     OW34660   2.461   3.553   6.608
 7533SOL    HW134661   2.481   3.523   6.515
 7533SOL    HW234662   2.386   3.498   6.645
 7534SOL     OW34663   2.604   2.964   6.325
 7534SOL    HW134664   2.693   3.010   6.325
 7534SOL    HW234665   2.597   2.904   6.404
 7535SOL     OW34666   2.782   3.311   5.994
 7535SOL    HW134667   2.832   3.299   5.909
 7535SOL    HW234668   2.728   3.228   6.013
 7536SOL     OW34669   1.972   2.658   6.394
 7536SOL    HW134670   2.067   2.649   6.362
 7536SOL    HW234671   1.938   2.750   6.373
 7537SOL     OW34672   1.909   2.775   7.321
 7537SOL    HW134673   1.824   2.726   7.302
 7537SOL    HW234674   1.936   2.762   7.416
 7538SOL     OW34675   2.806   3.684   7.027
 7538SOL    HW134676   2.778   3.597   7.068
 7538SOL    HW234677   2.750   3.758   7.064
 7539SOL     OW34678   3.035   3.031   6.557
 7539SOL    HW134679   3.019   3.125   6.588
 7539SOL    HW234680   3.038   2.970   6.637
 7540SOL     OW34681   2.309   2.302   7.321
 7540SOL    HW134682   2.345   2.249   7.244
 7540SOL    HW234683   2.370   2.379   7.339
 7541SOL     OW34684   2.373   2.719   5.893
 7541SOL    HW134685   2.323   2.784   5.837
 7541SOL    HW234686   2.315   2.640   5.912
 7542SOL     OW34687   3.454   2.750   6.591
 7542SOL    HW134688   3.473   2.789   6.500
 7542SOL    HW234689   3.408   2.819   6.647
 7543SOL     OW34690   3.146   2.193   6.887
 7543SOL    HW134691   3.217   2.165   6.951
 7543SOL    HW234692   3.093   2.113   6.859
 7544SOL     OW34693   3.068   1.993   7.329
 7544SOL    HW134694   3.127   2.009   7.409
 7544SOL    HW234695   3.015   2.076   7.310
 7545SOL     OW34696   2.284   3.412   7.154
 7545SOL    HW134697   2.226   3.477   7.203
 7545SOL    HW234698   2.346   3.462   7.094
 7546SOL     OW34699   3.640   3.299   7.095
 7546SOL    HW134700   3.668   3.392   7.117
 7546SOL    HW234701   3.547   3.283   7.128
 7547SOL     OW34702   2.890   2.412   6.645
 7547SOL    HW134703   2.976   2.463   6.644
 7547SOL    HW234704   2.896   2.338   6.712
 7548SOL     OW34705   2.294   3.358   6.217
 7548SOL    HW134706   2.292   3.259   6.230
 7548SOL    HW234707   2.203   3.391   6.194
 7549SOL     OW34708   2.935   3.475   6.805
 7549SOL    HW134709   2.861   3.539   6.823
 7549SOL    HW234710   3.014   3.524   6.767
 7550SOL     OW34711   2.144   3.605   7.304
 7550SOL    HW134712   2.187   3.689   7.270
 7550SOL    HW234713   2.169   3.592   7.400
 7551SOL     OW34714   2.004   3.141   7.175
 7551SOL    HW134715   1.983   3.046   7.148
 7551SOL    HW234716   1.935   3.202   7.137
 7552SOL     OW34717   2.093   3.506   6.579
 7552SOL    HW134718   2.035   3.426   6.593
 7552SOL    HW234719   2.117   3.513   6.482
 7553SOL     OW34720   2.839   2.027   6.434
 7553SOL    HW134721   2.935   2.028   6.462
 7553SOL    HW234722   2.784   1.984   6.506
 7554SOL     OW34723   2.901   3.033   5.950
 7554SOL    HW134724   2.981   3.069   5.998
 7554SOL    HW234725   2.859   2.960   6.006
 7555SOL     OW34726   2.635   2.972   5.800
 7555SOL    HW134727   2.707   3.031   5.765
 7555SOL    HW234728   2.675   2.888   5.836
 7556SOL     OW34729   2.706   1.948   5.652
 7556SOL    HW134730   2.781   1.882   5.664
 7556SOL    HW234731   2.737   2.039   5.680
 7557SOL     OW34732   2.385   2.377   6.264
 7557SOL    HW134733   2.423   2.288   6.290
 7557SOL    HW234734   2.452   2.427   6.209
 7558SOL     OW34735   2.373   2.935   6.918
 7558SOL    HW134736   2.469   2.915   6.938
 7558SOL    HW234737   2.362   3.033   6.900
 7559SOL     OW34738   3.595   2.978   6.887
 7559SOL    HW134739   3.609   3.076   6.901
 7559SOL    HW234740   3.652   2.947   6.811
 7560SOL     OW34741   2.078   3.087   5.579
 7560SOL    HW134742   2.070   3.099   5.480
 7560SOL    HW234743   2.137   3.158   5.617
 7561SOL     OW34744   2.505   3.526   5.739
 7561SOL    HW134745   2.480   3.621   5.723
 7561SOL    HW234746   2.472   3.498   5.829
 7562SOL     OW34747   3.155   2.949   6.963
 7562SOL    HW134748   3.099   2.908   7.034
 7562SOL    HW234749   3.135   3.047   6.957
 7563SOL     OW34750   2.422   3.565   6.963
 7563SOL    HW134751   2.471   3.645   6.927
 7563SOL    HW234752   2.330   3.563   6.924
 7564SOL     OW34753   2.065   2.446   7.325
 7564SOL    HW134754   2.082   2.347   7.330
 7564SOL    HW234755   2.129   2.494   7.386
 7565SOL     OW34756   3.504   3.407   6.564
 7565SOL    HW134757   3.476   3.500   6.588
 7565SOL    HW234758   3.554   3.366   6.640
 7566SOL     OW34759   1.900   2.780   6.125
 7566SOL    HW134760   1.907   2.879   6.112
 7566SOL    HW234761   1.809   2.757   6.159
 7567SOL     OW34762   2.409   2.578   7.063
 7567SOL    HW134763   2.315   2.548   7.044
 7567SOL    HW234764   2.418   2.675   7.040
 7568SOL     OW34765   3.476   2.954   6.375
 7568SOL    HW134766   3.438   3.043   6.348
 7568SOL    HW234767   3.476   2.892   6.297
 7569SOL     OW34768   2.487   3.211   6.771
 7569SOL    HW134769   2.400   3.210   6.722
 7569SOL    HW234770   2.553   3.151   6.724
 7570SOL     OW34771   2.053   2.553   6.685
 7570SOL    HW134772   2.091   2.612   6.756
 7570SOL    HW234773   2.036   2.606   6.603
 7571SOL     OW34774   2.224   3.199   6.983
 7571SOL    HW134775   2.243   3.287   7.027
 7571SOL    HW234776   2.129   3.173   7.001
 7572SOL     OW34777   3.467   3.515   7.331
 7572SOL    HW134778   3.436   3.437   7.276
 7572SOL    HW234779   3.436   3.600   7.289
 7573SOL     OW34780   3.175   3.053   6.052
 7573SOL    HW134781   3.274   3.057   6.068
 7573SOL    HW234782   3.158   3.039   5.954
 7574SOL     OW34783   2.528   2.219   6.000
 7574SOL    HW134784   2.430   2.213   5.980
 7574SOL    HW234785   2.547   2.176   6.088
 7575SOL     OW34786   3.448   1.902   6.259
 7575SOL    HW134787   3.443   1.943   6.168
 7575SOL    HW234788   3.529   1.936   6.306
 7576SOL     OW34789   3.051   2.658   6.952
 7576SOL    HW134790   3.150   2.667   6.942
 7576SOL    HW234791   3.007   2.660   6.862
 7577SOL     OW34792   2.545   2.618   6.354
 7577SOL    HW134793   2.567   2.540   6.412
 7577SOL    HW234794   2.554   2.592   6.258
 7578SOL     OW34795   3.210   3.325   6.566
 7578SOL    HW134796   3.124   3.282   6.595
 7578SOL    HW234797   3.199   3.365   6.475
 7579SOL     OW34798   2.940   3.326   8.074
 7579SOL    HW134799   3.031   3.360   8.097
 7579SOL    HW234800   2.912   3.364   7.986
 7580SOL     OW34801   3.451   3.122   7.932
 7580SOL    HW134802   3.462   3.206   7.986
 7580SOL    HW234803   3.541   3.085   7.909
 7581SOL     OW34804   3.531   2.404   8.796
 7581SOL    HW134805   3.433   2.396   8.818
 7581SOL    HW234806   3.584   2.393   8.880
 7582SOL     OW34807   2.198   2.041   7.401
 7582SOL    HW134808   2.111   2.038   7.352
 7582SOL    HW234809   2.249   2.123   7.373
 7583SOL     OW34810   3.185   3.430   8.176
 7583SOL    HW134811   3.174   3.527   8.199
 7583SOL    HW234812   3.278   3.413   8.146
 7584SOL     OW34813   3.063   1.941   8.734
 7584SOL    HW134814   2.987   1.896   8.781
 7584SOL    HW234815   3.092   1.886   8.656
 7585SOL     OW34816   2.801   2.721   9.111
 7585SOL    HW134817   2.766   2.696   9.021
 7585SOL    HW234818   2.725   2.742   9.172
 7586SOL     OW34819   2.408   3.395   7.805
 7586SOL    HW134820   2.364   3.404   7.894
 7586SOL    HW234821   2.479   3.325   7.809
 7587SOL     OW34822   2.426   1.928   7.527
 7587SOL    HW134823   2.514   1.956   7.488
 7587SOL    HW234824   2.354   1.991   7.497
 7588SOL     OW34825   3.396   2.913   8.910
 7588SOL    HW134826   3.304   2.918   8.872
 7588SOL    HW234827   3.461   2.951   8.844
 7589SOL     OW34828   3.296   2.920   8.591
 7589SOL    HW134829   3.221   2.909   8.656
 7589SOL    HW234830   3.333   3.013   8.597
 7590SOL     OW34831   2.792   3.175   8.891
 7590SOL    HW134832   2.735   3.238   8.837
 7590SOL    HW234833   2.825   3.101   8.832
 7591SOL     OW34834   2.335   3.068   8.100
 7591SOL    HW134835   2.268   3.022   8.159
 7591SOL    HW234836   2.427   3.036   8.123
 7592SOL     OW34837   2.562   2.474   7.931
 7592SOL    HW134838   2.601   2.544   7.872
 7592SOL    HW234839   2.536   2.394   7.877
 7593SOL     OW34840   3.182   2.382   9.140
 7593SOL    HW134841   3.278   2.386   9.166
 7593SOL    HW234842   3.138   2.306   9.187
 7594SOL     OW34843   2.265   3.237   7.584
 7594SOL    HW134844   2.329   3.253   7.509
 7594SOL    HW234845   2.289   3.295   7.662
 7595SOL     OW34846   2.416   2.193   8.394
 7595SOL    HW134847   2.492   2.258   8.390
 7595SOL    HW234848   2.446   2.104   8.361
 7596SOL     OW34849   2.113   2.619   7.812
 7596SOL    HW134850   2.128   2.553   7.886
 7596SOL    HW234851   2.063   2.698   7.847
 7597SOL     OW34852   2.699   3.564   7.989
 7597SOL    HW134853   2.764   3.497   7.953
 7597SOL    HW234854   2.689   3.640   7.925
 7598SOL     OW34855   3.591   3.446   7.731
 7598SOL    HW134856   3.687   3.420   7.724
 7598SOL    HW234857   3.567   3.506   7.655
 7599SOL     OW34858   3.503   2.139   8.502
 7599SOL    HW134859   3.554   2.211   8.455
 7599SOL    HW234860   3.408   2.166   8.511
 7600SOL     OW34861   2.903   2.168   7.771
 7600SOL    HW134862   2.928   2.262   7.792
 7600SOL    HW234863   2.904   2.114   7.855
 7601SOL     OW34864   2.027   2.881   8.956
 7601SOL    HW134865   2.123   2.896   8.974
 7601SOL    HW234866   1.989   2.819   9.025
 7602SOL     OW34867   2.353   2.526   7.499
 7602SOL    HW134868   2.313   2.605   7.452
 7602SOL    HW234869   2.442   2.505   7.459
 7603SOL     OW34870   2.526   3.450   8.197
 7603SOL    HW134871   2.599   3.473   8.133
 7603SOL    HW234872   2.455   3.397   8.151
 7604SOL     OW34873   2.868   2.482   8.951
 7604SOL    HW134874   2.901   2.399   8.998
 7604SOL    HW234875   2.941   2.550   8.950
 7605SOL     OW34876   3.472   3.282   8.173
 7605SOL    HW134877   3.468   3.317   8.266
 7605SOL    HW234878   3.531   3.341   8.117
 7606SOL     OW34879   2.203   3.103   7.849
 7606SOL    HW134880   2.249   3.077   7.934
 7606SOL    HW234881   2.223   3.035   7.778
 7607SOL     OW34882   3.061   2.158   7.560
 7607SOL    HW134883   3.155   2.128   7.578
 7607SOL    HW234884   3.009   2.158   7.646
 7608SOL     OW34885   2.213   2.363   8.655
 7608SOL    HW134886   2.203   2.276   8.607
 7608SOL    HW234887   2.149   2.430   8.618
 7609SOL     OW34888   3.295   2.643   8.693
 7609SOL    HW134889   3.299   2.737   8.658
 7609SOL    HW234890   3.388   2.612   8.715
 7610SOL     OW34891   2.248   2.135   7.814
 7610SOL    HW134892   2.202   2.175   7.893
 7610SOL    HW234893   2.196   2.154   7.732
 7611SOL     OW34894   3.376   3.662   8.726
 7611SOL    HW134895   3.319   3.613   8.660
 7611SOL    HW234896   3.462   3.689   8.683
 7612SOL     OW34897   3.671   2.380   8.581
 7612SOL    HW134898   3.728   2.462   8.583
 7612SOL    HW234899   3.612   2.379   8.661
 7613SOL     OW34900   3.688   3.606   8.494
 7613SOL    HW134901   3.734   3.616   8.582
 7613SOL    HW234902   3.755   3.609   8.421
 7614SOL     OW34903   2.801   2.346   8.056
 7614SOL    HW134904   2.877   2.374   8.115
 7614SOL    HW234905   2.757   2.426   8.017
 7615SOL     OW34906   3.036   2.810   7.573
 7615SOL    HW134907   3.073   2.760   7.651
 7615SOL    HW234908   2.966   2.755   7.528
 7616SOL     OW34909   2.878   2.232   9.194
 7616SOL    HW134910   2.941   2.237   9.271
 7616SOL    HW234911   2.786   2.210   9.227
 7617SOL     OW34912   3.619   2.479   7.652
 7617SOL    HW134913   3.640   2.398   7.598
 7617SOL    HW234914   3.636   2.460   7.749
 7618SOL     OW34915   2.913   3.617   7.560
 7618SOL    HW134916   2.947   3.530   7.525
 7618SOL    HW234917   2.881   3.605   7.654
 7619SOL     OW34918   2.594   1.884   9.092
 7619SOL    HW134919   2.601   1.790   9.059
 7619SOL    HW234920   2.651   1.894   9.174
 7620SOL     OW34921   3.517   2.485   8.360
 7620SOL    HW134922   3.502   2.576   8.397
 7620SOL    HW234923   3.587   2.438   8.414
 7621SOL     OW34924   2.927   3.151   9.126
 7621SOL    HW134925   2.949   3.061   9.088
 7621SOL    HW234926   2.862   3.198   9.067
 7622SOL     OW34927   2.582   2.993   9.130
 7622SOL    HW134928   2.553   3.070   9.187
 7622SOL    HW234929   2.592   2.912   9.188
 7623SOL     OW34930   3.572   2.063   9.165
 7623SOL    HW134931   3.549   2.084   9.260
 7623SOL    HW234932   3.548   1.968   9.145
 7624SOL     OW34933   1.875   2.467   7.909
 7624SOL    HW134934   1.877   2.418   7.996
 7624SOL    HW234935   1.877   2.566   7.927
 7625SOL     OW34936   2.196   2.055   8.230
 7625SOL    HW134937   2.248   2.095   8.305
 7625SOL    HW234938   2.249   1.982   8.187
 7626SOL     OW34939   2.180   2.103   8.564
 7626SOL    HW134940   2.145   2.010   8.564
 7626SOL    HW234941   2.267   2.106   8.515
 7627SOL     OW34942   2.847   2.725   8.304
 7627SOL    HW134943   2.873   2.805   8.250
 7627SOL    HW234944   2.841   2.645   8.244
 7628SOL     OW34945   2.048   3.352   7.763
 7628SOL    HW134946   2.075   3.258   7.783
 7628SOL    HW234947   2.073   3.374   7.669
 7629SOL     OW34948   3.330   3.221   8.637
 7629SOL    HW134949   3.301   3.258   8.548
 7629SOL    HW234950   3.252   3.221   8.699
 7630SOL     OW34951   2.062   3.495   8.000
 7630SOL    HW134952   1.978   3.546   8.018
 7630SOL    HW234953   2.053   3.444   7.915
 7631SOL     OW34954   3.583   3.292   8.675
 7631SOL    HW134955   3.614   3.306   8.769
 7631SOL    HW234956   3.484   3.279   8.674
 7632SOL     OW34957   2.335   2.792   7.402
 7632SOL    HW134958   2.304   2.826   7.314
 7632SOL    HW234959   2.339   2.867   7.468
 7633SOL     OW34960   2.852   2.979   8.701
 7633SOL    HW134961   2.902   2.894   8.685
 7633SOL    HW234962   2.806   3.006   8.616
 7634SOL     OW34963   1.939   2.684   7.575
 7634SOL    HW134964   1.999   2.631   7.635
 7634SOL    HW234965   1.845   2.652   7.587
 7635SOL     OW34966   3.459   2.682   7.775
 7635SOL    HW134967   3.527   2.616   7.742
 7635SOL    HW234968   3.474   2.770   7.731
 7636SOL     OW34969   2.707   3.669   8.423
 7636SOL    HW134970   2.753   3.602   8.365
 7636SOL    HW234971   2.633   3.625   8.473
 7637SOL     OW34972   2.614   2.738   7.459
 7637SOL    HW134973   2.643   2.657   7.510
 7637SOL    HW234974   2.514   2.737   7.450
 7638SOL     OW34975   3.210   2.270   7.805
 7638SOL    HW134976   3.147   2.328   7.753
 7638SOL    HW234977   3.303   2.304   7.793
 7639SOL     OW34978   1.989   2.126   8.795
 7639SOL    HW134979   2.061   2.136   8.726
 7639SOL    HW234980   1.900   2.125   8.750
 7640SOL     OW34981   2.887   2.747   8.560
 7640SOL    HW134982   2.881   2.733   8.461
 7640SOL    HW234983   2.806   2.708   8.604
 7641SOL     OW34984   3.478   2.281   7.875
 7641SOL    HW134985   3.574   2.252   7.872
 7641SOL    HW234986   3.439   2.259   7.964
 7642SOL     OW34987   2.762   3.356   8.312
 7642SOL    HW134988   2.820   3.367   8.231
 7642SOL    HW234989   2.668   3.380   8.290
 7643SOL     OW34990   2.712   2.222   7.597
 7643SOL    HW134991   2.621   2.235   7.635
 7643SOL    HW234992   2.772   2.182   7.667
 7644SOL     OW34993   2.823   3.167   7.532
 7644SOL    HW134994   2.876   3.107   7.592
 7644SOL    HW234995   2.862   3.168   7.441
 7645SOL     OW34996   2.989   2.735   8.006
 7645SOL    HW134997   3.054   2.763   8.077
 7645SOL    HW234998   2.910   2.796   8.008
 7646SOL     OW34999   2.737   3.461   9.030
 7646SOL    HW135000   2.725   3.392   8.959
 7646SOL    HW235001   2.700   3.426   9.117
 7647SOL     OW35002   3.181   2.775   8.209
 7647SOL    HW135003   3.202   2.717   8.287
 7647SOL    HW235004   3.190   2.871   8.235
 7648SOL     OW35005   2.137   2.904   8.255
 7648SOL    HW135006   2.060   2.966   8.248
 7648SOL    HW235007   2.174   2.905   8.348
 7649SOL     OW35008   2.770   2.852   7.954
 7649SOL    HW135009   2.757   2.763   7.911
 7649SOL    HW235010   2.701   2.866   8.025
 7650SOL     OW35011   3.074   3.240   8.793
 7650SOL    HW135012   3.107   3.325   8.834
 7650SOL    HW235013   2.975   3.236   8.800
 7651SOL     OW35014   1.881   2.157   7.857
 7651SOL    HW135015   1.941   2.108   7.795
 7651SOL    HW235016   1.936   2.209   7.922
 7652SOL     OW35017   3.504   3.655   7.548
 7652SOL    HW135018   3.594   3.699   7.550
 7652SOL    HW235019   3.503   3.586   7.476
 7653SOL     OW35020   1.905   3.649   8.777
 7653SOL    HW135021   1.913   3.749   8.775
 7653SOL    HW235022   1.881   3.620   8.870
 7654SOL     OW35023   2.686   2.668   7.771
 7654SOL    HW135024   2.597   2.696   7.736
 7654SOL    HW235025   2.727   2.602   7.707
 7655SOL     OW35026   2.208   2.386   8.310
 7655SOL    HW135027   2.264   2.379   8.227
 7655SOL    HW235028   2.265   2.364   8.390
 7656SOL     OW35029   2.205   3.584   7.581
 7656SOL    HW135030   2.297   3.614   7.556
 7656SOL    HW235031   2.180   3.623   7.670
 7657SOL     OW35032   3.181   3.606   8.518
 7657SOL    HW135033   3.200   3.669   8.444
 7657SOL    HW235034   3.189   3.512   8.485
 7658SOL     OW35035   1.886   3.001   8.330
 7658SOL    HW135036   1.796   3.017   8.291
 7658SOL    HW235037   1.884   2.917   8.385
 7659SOL     OW35038   2.637   1.906   7.780
 7659SOL    HW135039   2.598   1.895   7.689
 7659SOL    HW235040   2.593   1.982   7.827
 7660SOL     OW35041   1.882   3.042   7.874
 7660SOL    HW135042   1.960   3.100   7.898
 7660SOL    HW235043   1.901   2.993   7.789
 7661SOL     OW35044   3.412   2.170   8.958
 7661SOL    HW135045   3.351   2.248   8.955
 7661SOL    HW235046   3.467   2.174   9.041
 7662SOL     OW35047   3.128   2.116   8.249
 7662SOL    HW135048   3.127   2.194   8.186
 7662SOL    HW235049   3.171   2.143   8.335
 7663SOL     OW35050   3.248   1.922   7.545
 7663SOL    HW135051   3.328   1.862   7.542
 7663SOL    HW235052   3.174   1.875   7.593
 7664SOL     OW35053   3.461   1.894   8.979
 7664SOL    HW135054   3.487   1.851   8.893
 7664SOL    HW235055   3.411   1.978   8.961
 7665SOL     OW35056   2.563   2.153   8.111
 7665SOL    HW135057   2.552   2.095   8.192
 7665SOL    HW235058   2.648   2.205   8.119
 7666SOL     OW35059   3.143   2.504   8.503
 7666SOL    HW135060   3.197   2.544   8.429
 7666SOL    HW235061   3.181   2.533   8.591
 7667SOL     OW35062   3.436   1.910   7.819
 7667SOL    HW135063   3.443   1.864   7.731
 7667SOL    HW235064   3.340   1.920   7.844
 7668SOL     OW35065   2.412   3.225   9.182
 7668SOL    HW135066   2.373   3.288   9.115
 7668SOL    HW235067   2.495   3.265   9.222
 7669SOL     OW35068   2.288   2.957   9.014
 7669SOL    HW135069   2.307   2.981   8.919
 7669SOL    HW235070   2.281   3.040   9.069
 7670SOL     OW35071   1.949   3.247   8.488
 7670SOL    HW135072   1.918   3.173   8.429
 7670SOL    HW235073   1.881   3.265   8.559
 7671SOL     OW35074   3.035   2.448   8.221
 7671SOL    HW135075   3.117   2.425   8.169
 7671SOL    HW235076   3.030   2.389   8.302
 7672SOL     OW35077   3.635   2.475   9.057
 7672SOL    HW135078   3.624   2.561   9.006
 7672SOL    HW235079   3.729   2.466   9.087
 7673SOL     OW35080   3.206   2.248   8.476
 7673SOL    HW135081   3.180   2.345   8.482
 7673SOL    HW235082   3.206   2.208   8.568
 7674SOL     OW35083   3.436   2.380   9.227
 7674SOL    HW135084   3.516   2.405   9.171
 7674SOL    HW235085   3.467   2.345   9.315
 7675SOL     OW35086   3.147   2.683   7.807
 7675SOL    HW135087   3.093   2.681   7.891
 7675SOL    HW235088   3.224   2.746   7.818
 7676SOL     OW35089   3.444   2.779   8.027
 7676SOL    HW135090   3.458   2.742   7.934
 7676SOL    HW235091   3.355   2.749   8.061
 7677SOL     OW35092   3.600   2.716   8.922
 7677SOL    HW135093   3.502   2.737   8.924
 7677SOL    HW235094   3.649   2.792   8.881
 7678SOL     OW35095   3.454   2.136   7.601
 7678SOL    HW135096   3.459   2.178   7.692
 7678SOL    HW235097   3.387   2.061   7.603
 7679SOL     OW35098   2.601   3.351   8.821
 7679SOL    HW135099   2.538   3.429   8.828
 7679SOL    HW235100   2.569   3.289   8.749
 7680SOL     OW35101   1.872   3.560   9.030
 7680SOL    HW135102   1.944   3.546   9.098
 7680SOL    HW235103   1.783   3.563   9.075
 7681SOL     OW35104   2.040   2.216   8.054
 7681SOL    HW135105   1.983   2.271   8.115
 7681SOL    HW235106   2.110   2.168   8.107
 7682SOL     OW35107   3.212   3.448   8.917
 7682SOL    HW135108   3.165   3.516   8.972
 7682SOL    HW235109   3.279   3.494   8.858
 7683SOL     OW35110   2.177   2.407   7.652
 7683SOL    HW135111   2.249   2.436   7.589
 7683SOL    HW235112   2.133   2.487   7.692
 7684SOL     OW35113   3.563   2.069   8.755
 7684SOL    HW135114   3.519   2.117   8.831
 7684SOL    HW235115   3.541   2.115   8.669
 7685SOL     OW35116   2.292   3.670   8.118
 7685SOL    HW135117   2.216   3.636   8.063
 7685SOL    HW235118   2.378   3.633   8.083
 7686SOL     OW35119   2.217   3.179   8.563
 7686SOL    HW135120   2.229   3.195   8.660
 7686SOL    HW235121   2.130   3.219   8.533
 7687SOL     OW35122   3.101   3.383   9.209
 7687SOL    HW135123   3.060   3.298   9.175
 7687SOL    HW235124   3.081   3.457   9.145
 7688SOL     OW35125   2.591   3.103   7.899
 7688SOL    HW135126   2.634   3.034   7.841
 7688SOL    HW235127   2.555   3.060   7.982
 7689SOL     OW35128   2.223   2.654   8.101
 7689SOL    HW135129   2.215   2.752   8.119
 7689SOL    HW235130   2.307   2.620   8.142
 7690SOL     OW35131   2.069   2.134   7.616
 7690SOL    HW135132   2.113   2.103   7.533
 7690SOL    HW235133   2.070   2.234   7.620
 7691SOL     OW35134   1.922   2.386   8.227
 7691SOL    HW135135   1.886   2.479   8.219
 7691SOL    HW235136   2.005   2.387   8.283
 7692SOL     OW35137   2.357   2.973   7.613
 7692SOL    HW135138   2.457   2.973   7.624
 7692SOL    HW235139   2.326   3.066   7.592
 7693SOL     OW35140   2.983   2.565   7.429
 7693SOL    HW135141   2.914   2.622   7.385
 7693SOL    HW235142   3.064   2.559   7.370
 7694SOL     OW35143   2.718   2.484   7.572
 7694SOL    HW135144   2.808   2.485   7.527
 7694SOL    HW235145   2.695   2.390   7.597
 7695SOL     OW35146   3.169   2.001   7.866
 7695SOL    HW135147   3.079   1.985   7.907
 7695SOL    HW235148   3.177   2.097   7.840
 7696SOL     OW35149   3.283   2.401   8.882
 7696SOL    HW135150   3.235   2.424   8.966
 7696SOL    HW235151   3.217   2.371   8.813
 7697SOL     OW35152   1.918   1.916   7.526
 7697SOL    HW135153   1.981   1.839   7.534
 7697SOL    HW235154   1.938   1.984   7.597
 7698SOL     OW35155   2.191   2.891   8.527
 7698SOL    HW135156   2.202   2.846   8.616
 7698SOL    HW235157   2.218   2.987   8.534
 7699SOL     OW35158   3.490   2.903   7.627
 7699SOL    HW135159   3.561   2.973   7.629
 7699SOL    HW235160   3.477   2.873   7.532
 7700SOL     OW35161   3.007   2.894   9.026
 7700SOL    HW135162   2.929   2.840   9.059
 7700SOL    HW235163   3.088   2.872   9.081
 7701SOL     OW35164   2.936   2.076   8.022
 7701SOL    HW135165   2.995   2.136   8.077
 7701SOL    HW235166   2.863   2.040   8.079
 7702SOL     OW35167   3.046   3.608   9.062
 7702SOL    HW135168   2.951   3.606   9.030
 7702SOL    HW235169   3.067   3.699   9.099
 7703SOL     OW35170   2.464   1.953   8.293
 7703SOL    HW135171   2.392   1.886   8.279
 7703SOL    HW235172   2.546   1.907   8.328
 7704SOL     OW35173   2.164   3.618   8.660
 7704SOL    HW135174   2.144   3.600   8.564
 7704SOL    HW235175   2.091   3.580   8.717
 7705SOL     OW35176   2.857   3.082   8.205
 7705SOL    HW135177   2.896   3.125   8.124
 7705SOL    HW235178   2.930   3.065   8.272
 7706SOL     OW35179   1.890   2.820   8.533
 7706SOL    HW135180   1.979   2.798   8.573
 7706SOL    HW235181   1.835   2.736   8.529
 7707SOL     OW35182   2.118   1.865   7.813
 7707SOL    HW135183   2.156   1.953   7.840
 7707SOL    HW235184   2.041   1.841   7.873
 7708SOL     OW35185   2.534   2.482   9.141
 7708SOL    HW135186   2.486   2.533   9.070
 7708SOL    HW235187   2.627   2.461   9.111
 7709SOL     OW35188   1.940   2.952   7.633
 7709SOL    HW135189   1.930   2.855   7.612
 7709SOL    HW235190   1.993   2.997   7.561
 7710SOL     OW35191   3.637   2.064   8.234
 7710SOL    HW135192   3.592   2.046   8.321
 7710SOL    HW235193   3.735   2.081   8.250
 7711SOL     OW35194   2.685   3.040   8.486
 7711SOL    HW135195   2.636   2.955   8.467
 7711SOL    HW235196   2.755   3.055   8.417
 7712SOL     OW35197   3.023   2.463   7.695
 7712SOL    HW135198   3.075   2.535   7.741
 7712SOL    HW235199   3.036   2.470   7.597
 7713SOL     OW35200   3.384   3.278   9.022
 7713SOL    HW135201   3.369   3.180   9.036
 7713SOL    HW235202   3.301   3.320   8.986
 7714SOL     OW35203   2.141   2.720   8.762
 7714SOL    HW135204   2.105   2.630   8.788
 7714SOL    HW235205   2.102   2.790   8.822
 7715SOL     OW35206   2.643   3.346   7.420
 7715SOL    HW135207   2.618   3.423   7.479
 7715SOL    HW235208   2.707   3.286   7.468
 7716SOL     OW35209   2.461   3.553   8.454
 7716SOL    HW135210   2.481   3.523   8.361
 7716SOL    HW235211   2.386   3.498   8.491
 7717SOL     OW35212   2.604   2.964   8.171
 7717SOL    HW135213   2.693   3.010   8.171
 7717SOL    HW235214   2.597   2.904   8.250
 7718SOL     OW35215   2.782   3.311   7.840
 7718SOL    HW135216   2.832   3.299   7.755
 7718SOL    HW235217   2.728   3.228   7.859
 7719SOL     OW35218   1.972   2.658   8.240
 7719SOL    HW135219   2.067   2.649   8.208
 7719SOL    HW235220   1.938   2.750   8.219
 7720SOL     OW35221   1.909   2.775   9.167
 7720SOL    HW135222   1.824   2.726   9.148
 7720SOL    HW235223   1.936   2.762   9.262
 7721SOL     OW35224   2.806   3.684   8.873
 7721SOL    HW135225   2.778   3.597   8.914
 7721SOL    HW235226   2.750   3.758   8.910
 7722SOL     OW35227   3.035   3.031   8.403
 7722SOL    HW135228   3.019   3.125   8.434
 7722SOL    HW235229   3.038   2.970   8.483
 7723SOL     OW35230   2.373   2.719   7.739
 7723SOL    HW135231   2.323   2.784   7.683
 7723SOL    HW235232   2.315   2.640   7.758
 7724SOL     OW35233   3.454   2.750   8.437
 7724SOL    HW135234   3.473   2.789   8.346
 7724SOL    HW235235   3.408   2.819   8.493
 7725SOL     OW35236   3.146   2.193   8.733
 7725SOL    HW135237   3.217   2.165   8.797
 7725SOL    HW235238   3.093   2.113   8.705
 7726SOL     OW35239   1.847   1.892   7.934
 7726SOL    HW135240   1.760   1.879   7.887
 7726SOL    HW235241   1.855   1.987   7.964
 7727SOL     OW35242   3.068   1.993   9.175
 7727SOL    HW135243   3.127   2.009   9.255
 7727SOL    HW235244   3.015   2.076   9.156
 7728SOL     OW35245   2.284   3.412   9.000
 7728SOL    HW135246   2.226   3.477   9.049
 7728SOL    HW235247   2.346   3.462   8.940
 7729SOL     OW35248   3.640   3.299   8.941
 7729SOL    HW135249   3.668   3.392   8.963
 7729SOL    HW235250   3.547   3.283   8.974
 7730SOL     OW35251   2.890   2.412   8.491
 7730SOL    HW135252   2.976   2.463   8.490
 7730SOL    HW235253   2.896   2.338   8.558
 7731SOL     OW35254   2.294   3.358   8.063
 7731SOL    HW135255   2.292   3.259   8.076
 7731SOL    HW235256   2.203   3.391   8.040
 7732SOL     OW35257   2.935   3.475   8.651
 7732SOL    HW135258   2.861   3.539   8.669
 7732SOL    HW235259   3.014   3.524   8.613
 7733SOL     OW35260   2.144   3.605   9.150
 7733SOL    HW135261   2.187   3.689   9.116
 7733SOL    HW235262   2.169   3.592   9.246
 7734SOL     OW35263   2.004   3.141   9.021
 7734SOL    HW135264   1.983   3.046   8.994
 7734SOL    HW235265   1.935   3.202   8.983
 7735SOL     OW35266   2.093   3.506   8.425
 7735SOL    HW135267   2.035   3.426   8.439
 7735SOL    HW235268   2.117   3.513   8.328
 7736SOL     OW35269   2.839   2.027   8.280
 7736SOL    HW135270   2.935   2.028   8.308
 7736SOL    HW235271   2.784   1.984   8.352
 7737SOL     OW35272   2.901   3.033   7.796
 7737SOL    HW135273   2.981   3.069   7.844
 7737SOL    HW235274   2.859   2.960   7.852
 7738SOL     OW35275   3.492   2.300   8.160
 7738SOL    HW135276   3.511   2.386   8.207
 7738SOL    HW235277   3.560   2.231   8.188
 7739SOL     OW35278   2.635   2.972   7.646
 7739SOL    HW135279   2.707   3.031   7.611
 7739SOL    HW235280   2.675   2.888   7.682
 7740SOL     OW35281   2.706   1.948   7.498
 7740SOL    HW135282   2.781   1.882   7.510
 7740SOL    HW235283   2.737   2.039   7.526
 7741SOL     OW35284   2.385   2.377   8.110
 7741SOL    HW135285   2.423   2.288   8.136
 7741SOL    HW235286   2.452   2.427   8.055
 7742SOL     OW35287   3.595   2.978   8.733
 7742SOL    HW135288   3.609   3.076   8.747
 7742SOL    HW235289   3.652   2.947   8.657
 7743SOL     OW35290   2.078   3.087   7.425
 7743SOL    HW135291   2.070   3.099   7.326
 7743SOL    HW235292   2.137   3.158   7.463
 7744SOL     OW35293   2.505   3.526   7.585
 7744SOL    HW135294   2.480   3.621   7.569
 7744SOL    HW235295   2.472   3.498   7.675
 7745SOL     OW35296   3.155   2.949   8.809
 7745SOL    HW135297   3.099   2.908   8.880
 7745SOL    HW235298   3.135   3.047   8.803
 7746SOL     OW35299   2.422   3.565   8.809
 7746SOL    HW135300   2.471   3.645   8.773
 7746SOL    HW235301   2.330   3.563   8.770
 7747SOL     OW35302   3.504   3.407   8.410
 7747SOL    HW135303   3.476   3.500   8.434
 7747SOL    HW235304   3.554   3.366   8.486
 7748SOL     OW35305   1.900   2.780   7.971
 7748SOL    HW135306   1.907   2.879   7.958
 7748SOL    HW235307   1.809   2.757   8.005
 7749SOL     OW35308   2.409   2.578   8.909
 7749SOL    HW135309   2.315   2.548   8.890
 7749SOL    HW235310   2.418   2.675   8.886
 7750SOL     OW35311   3.476   2.954   8.221
 7750SOL    HW135312   3.438   3.043   8.194
 7750SOL    HW235313   3.476   2.892   8.143
 7751SOL     OW35314   2.634   2.360   8.390
 7751SOL    HW135315   2.726   2.388   8.417
 7751SOL    HW235316   2.566   2.411   8.444
 7752SOL     OW35317   2.487   3.211   8.617
 7752SOL    HW135318   2.400   3.210   8.568
 7752SOL    HW235319   2.553   3.151   8.570
 7753SOL     OW35320   2.053   2.553   8.531
 7753SOL    HW135321   2.091   2.612   8.602
 7753SOL    HW235322   2.036   2.606   8.449
 7754SOL     OW35323   2.224   3.199   8.829
 7754SOL    HW135324   2.243   3.287   8.873
 7754SOL    HW235325   2.129   3.173   8.847
 7755SOL     OW35326   3.467   3.515   9.177
 7755SOL    HW135327   3.436   3.437   9.122
 7755SOL    HW235328   3.436   3.600   9.135
 7756SOL     OW35329   3.175   3.053   7.898
 7756SOL    HW135330   3.274   3.057   7.914
 7756SOL    HW235331   3.158   3.039   7.800
 7757SOL     OW35332   2.528   2.219   7.846
 7757SOL    HW135333   2.430   2.213   7.826
 7757SOL    HW235334   2.547   2.176   7.934
 7758SOL     OW35335   3.051   2.658   8.798
 7758SOL    HW135336   3.150   2.667   8.788
 7758SOL    HW235337   3.007   2.660   8.708
 7759SOL     OW35338   2.545   2.618   8.200
 7759SOL    HW135339   2.567   2.540   8.258
 7759SOL    HW235340   2.554   2.592   8.104
 7760SOL     OW35341   3.210   3.325   8.412
 7760SOL    HW135342   3.124   3.282   8.441
 7760SOL    HW235343   3.199   3.365   8.321
 7761SOL     OW35344   3.213   2.310   8.087
 7761SOL    HW135345   3.212   2.302   7.988
 7761SOL    HW235346   3.302   2.282   8.122
 7762SOL     OW35347   2.940   3.326   9.919
 7762SOL    HW135348   3.031   3.360   9.942
 7762SOL    HW235349   2.912   3.364   9.831
 7763SOL     OW35350   3.451   3.122   9.777
 7763SOL    HW135351   3.462   3.206   9.831
 7763SOL    HW235352   3.541   3.085   9.754
 7764SOL     OW35353   2.408   3.395   9.650
 7764SOL    HW135354   2.364   3.404   9.739
 7764SOL    HW235355   2.479   3.325   9.654
 7765SOL     OW35356   2.426   1.928   9.372
 7765SOL    HW135357   2.514   1.956   9.333
 7765SOL    HW235358   2.354   1.991   9.342
 7766SOL     OW35359   2.335   3.068   9.945
 7766SOL    HW135360   2.268   3.022  10.004
 7766SOL    HW235361   2.427   3.036   9.968
 7767SOL     OW35362   2.562   2.474   9.776
 7767SOL    HW135363   2.601   2.544   9.717
 7767SOL    HW235364   2.536   2.394   9.722
 7768SOL     OW35365   2.265   3.237   9.429
 7768SOL    HW135366   2.329   3.253   9.354
 7768SOL    HW235367   2.289   3.295   9.507
 7769SOL     OW35368   2.113   2.619   9.657
 7769SOL    HW135369   2.128   2.553   9.731
 7769SOL    HW235370   2.063   2.698   9.692
 7770SOL     OW35371   2.699   3.564   9.834
 7770SOL    HW135372   2.764   3.497   9.798
 7770SOL    HW235373   2.689   3.640   9.770
 7771SOL     OW35374   3.591   3.446   9.576
 7771SOL    HW135375   3.687   3.420   9.569
 7771SOL    HW235376   3.567   3.506   9.500
 7772SOL     OW35377   2.903   2.168   9.616
 7772SOL    HW135378   2.928   2.262   9.637
 7772SOL    HW235379   2.904   2.114   9.700
 7773SOL     OW35380   2.353   2.526   9.344
 7773SOL    HW135381   2.313   2.605   9.297
 7773SOL    HW235382   2.442   2.505   9.304
 7774SOL     OW35383   3.472   3.282  10.018
 7774SOL    HW135384   3.468   3.317  10.111
 7774SOL    HW235385   3.531   3.341   9.962
 7775SOL     OW35386   2.203   3.103   9.694
 7775SOL    HW135387   2.249   3.077   9.779
 7775SOL    HW235388   2.223   3.035   9.623
 7776SOL     OW35389   3.061   2.158   9.405
 7776SOL    HW135390   3.155   2.128   9.423
 7776SOL    HW235391   3.009   2.158   9.491
 7777SOL     OW35392   2.248   2.135   9.659
 7777SOL    HW135393   2.202   2.175   9.738
 7777SOL    HW235394   2.196   2.154   9.577
 7778SOL     OW35395   3.688   3.606  10.339
 7778SOL    HW135396   3.734   3.616  10.427
 7778SOL    HW235397   3.755   3.609  10.266
 7779SOL     OW35398   2.801   2.346   9.901
 7779SOL    HW135399   2.877   2.374   9.960
 7779SOL    HW235400   2.757   2.426   9.862
 7780SOL     OW35401   3.036   2.810   9.418
 7780SOL    HW135402   3.073   2.760   9.496
 7780SOL    HW235403   2.966   2.755   9.373
 7781SOL     OW35404   3.619   2.479   9.497
 7781SOL    HW135405   3.640   2.398   9.443
 7781SOL    HW235406   3.636   2.460   9.594
 7782SOL     OW35407   2.913   3.617   9.405
 7782SOL    HW135408   2.947   3.530   9.370
 7782SOL    HW235409   2.881   3.605   9.499
 7783SOL     OW35410   1.875   2.467   9.754
 7783SOL    HW135411   1.877   2.418   9.841
 7783SOL    HW235412   1.877   2.566   9.772
 7784SOL     OW35413   2.048   3.352   9.608
 7784SOL    HW135414   2.075   3.258   9.628
 7784SOL    HW235415   2.073   3.374   9.514
 7785SOL     OW35416   2.062   3.495   9.845
 7785SOL    HW135417   1.978   3.546   9.863
 7785SOL    HW235418   2.053   3.444   9.760
 7786SOL     OW35419   2.335   2.792   9.247
 7786SOL    HW135420   2.304   2.826   9.159
 7786SOL    HW235421   2.339   2.867   9.313
 7787SOL     OW35422   1.939   2.684   9.420
 7787SOL    HW135423   1.999   2.631   9.480
 7787SOL    HW235424   1.845   2.652   9.432
 7788SOL     OW35425   3.459   2.682   9.620
 7788SOL    HW135426   3.527   2.616   9.587
 7788SOL    HW235427   3.474   2.770   9.576
 7789SOL     OW35428   2.614   2.738   9.304
 7789SOL    HW135429   2.643   2.657   9.355
 7789SOL    HW235430   2.514   2.737   9.295
 7790SOL     OW35431   3.210   2.270   9.650
 7790SOL    HW135432   3.147   2.328   9.598
 7790SOL    HW235433   3.303   2.304   9.638
 7791SOL     OW35434   3.478   2.281   9.720
 7791SOL    HW135435   3.574   2.252   9.717
 7791SOL    HW235436   3.439   2.259   9.809
 7792SOL     OW35437   2.712   2.222   9.442
 7792SOL    HW135438   2.621   2.235   9.480
 7792SOL    HW235439   2.772   2.182   9.512
 7793SOL     OW35440   2.823   3.167   9.377
 7793SOL    HW135441   2.876   3.107   9.437
 7793SOL    HW235442   2.862   3.168   9.286
 7794SOL     OW35443   3.574   3.462   9.862
 7794SOL    HW135444   3.541   3.555   9.881
 7794SOL    HW235445   3.572   3.446   9.763
 7795SOL     OW35446   2.989   2.735   9.851
 7795SOL    HW135447   3.054   2.763   9.922
 7795SOL    HW235448   2.910   2.796   9.853
 7796SOL     OW35449   3.181   2.775  10.054
 7796SOL    HW135450   3.202   2.717  10.132
 7796SOL    HW235451   3.190   2.871  10.080
 7797SOL     OW35452   2.770   2.852   9.799
 7797SOL    HW135453   2.757   2.763   9.756
 7797SOL    HW235454   2.701   2.866   9.870
 7798SOL     OW35455   1.881   2.157   9.702
 7798SOL    HW135456   1.941   2.108   9.640
 7798SOL    HW235457   1.936   2.209   9.767
 7799SOL     OW35458   3.504   3.655   9.393
 7799SOL    HW135459   3.594   3.699   9.395
 7799SOL    HW235460   3.503   3.586   9.321
 7800SOL     OW35461   2.686   2.668   9.616
 7800SOL    HW135462   2.597   2.696   9.581
 7800SOL    HW235463   2.727   2.602   9.552
 7801SOL     OW35464   2.205   3.584   9.426
 7801SOL    HW135465   2.297   3.614   9.401
 7801SOL    HW235466   2.180   3.623   9.515
 7802SOL     OW35467   2.637   1.906   9.625
 7802SOL    HW135468   2.598   1.895   9.534
 7802SOL    HW235469   2.593   1.982   9.672
 7803SOL     OW35470   1.882   3.042   9.719
 7803SOL    HW135471   1.960   3.100   9.743
 7803SOL    HW235472   1.901   2.993   9.634
 7804SOL     OW35473   3.248   1.922   9.390
 7804SOL    HW135474   3.328   1.862   9.387
 7804SOL    HW235475   3.174   1.875   9.438
 7805SOL     OW35476   2.563   2.153   9.956
 7805SOL    HW135477   2.552   2.095  10.037
 7805SOL    HW235478   2.648   2.205   9.964
 7806SOL     OW35479   3.436   1.910   9.664
 7806SOL    HW135480   3.443   1.864   9.576
 7806SOL    HW235481   3.340   1.920   9.689
 7807SOL     OW35482   3.147   2.683   9.652
 7807SOL    HW135483   3.093   2.681   9.736
 7807SOL    HW235484   3.224   2.746   9.663
 7808SOL     OW35485   3.444   2.779   9.872
 7808SOL    HW135486   3.458   2.742   9.779
 7808SOL    HW235487   3.355   2.749   9.906
 7809SOL     OW35488   3.454   2.136   9.446
 7809SOL    HW135489   3.459   2.178   9.537
 7809SOL    HW235490   3.387   2.061   9.448
 7810SOL     OW35491   2.177   2.407   9.497
 7810SOL    HW135492   2.249   2.436   9.434
 7810SOL    HW235493   2.133   2.487   9.537
 7811SOL     OW35494   2.292   3.670   9.963
 7811SOL    HW135495   2.216   3.636   9.908
 7811SOL    HW235496   2.378   3.633   9.928
 7812SOL     OW35497   2.591   3.103   9.744
 7812SOL    HW135498   2.634   3.034   9.686
 7812SOL    HW235499   2.555   3.060   9.827
 7813SOL     OW35500   2.069   2.134   9.461
 7813SOL    HW135501   2.113   2.103   9.378
 7813SOL    HW235502   2.070   2.234   9.465
 7814SOL     OW35503   1.922   2.386  10.072
 7814SOL    HW135504   1.886   2.479  10.064
 7814SOL    HW235505   2.005   2.387  10.128
 7815SOL     OW35506   2.357   2.973   9.458
 7815SOL    HW135507   2.457   2.973   9.469
 7815SOL    HW235508   2.326   3.066   9.437
 7816SOL     OW35509   2.983   2.565   9.274
 7816SOL    HW135510   2.914   2.622   9.230
 7816SOL    HW235511   3.064   2.559   9.215
 7817SOL     OW35512   2.718   2.484   9.417
 7817SOL    HW135513   2.808   2.485   9.372
 7817SOL    HW235514   2.695   2.390   9.442
 7818SOL     OW35515   3.169   2.001   9.711
 7818SOL    HW135516   3.079   1.985   9.752
 7818SOL    HW235517   3.177   2.097   9.685
 7819SOL     OW35518   1.918   1.916   9.371
 7819SOL    HW135519   1.981   1.839   9.379
 7819SOL    HW235520   1.938   1.984   9.442
 7820SOL     OW35521   3.490   2.903   9.472
 7820SOL    HW135522   3.561   2.973   9.474
 7820SOL    HW235523   3.477   2.873   9.377
 7821SOL     OW35524   2.936   2.076   9.867
 7821SOL    HW135525   2.995   2.136   9.922
 7821SOL    HW235526   2.863   2.040   9.924
 7822SOL     OW35527   2.118   1.865   9.658
 7822SOL    HW135528   2.156   1.953   9.685
 7822SOL    HW235529   2.041   1.841   9.718
 7823SOL     OW35530   1.940   2.952   9.478
 7823SOL    HW135531   1.930   2.855   9.457
 7823SOL    HW235532   1.993   2.997   9.406
 7824SOL     OW35533   3.637   2.064  10.079
 7824SOL    HW135534   3.592   2.046  10.166
 7824SOL    HW235535   3.735   2.081  10.095
 7825SOL     OW35536   3.023   2.463   9.540
 7825SOL    HW135537   3.075   2.535   9.586
 7825SOL    HW235538   3.036   2.470   9.442
 7826SOL     OW35539   2.643   3.346   9.265
 7826SOL    HW135540   2.618   3.423   9.324
 7826SOL    HW235541   2.707   3.286   9.313
 7827SOL     OW35542   2.604   2.964  10.016
 7827SOL    HW135543   2.693   3.010  10.016
 7827SOL    HW235544   2.597   2.904  10.095
 7828SOL     OW35545   2.782   3.311   9.685
 7828SOL    HW135546   2.832   3.299   9.600
 7828SOL    HW235547   2.728   3.228   9.704
 7829SOL     OW35548   2.373   2.719   9.584
 7829SOL    HW135549   2.323   2.784   9.528
 7829SOL    HW235550   2.315   2.640   9.603
 7830SOL     OW35551   1.847   1.892   9.779
 7830SOL    HW135552   1.760   1.879   9.732
 7830SOL    HW235553   1.855   1.987   9.809
 7831SOL     OW35554   2.294   3.358   9.908
 7831SOL    HW135555   2.292   3.259   9.921
 7831SOL    HW235556   2.203   3.391   9.885
 7832SOL     OW35557   2.901   3.033   9.641
 7832SOL    HW135558   2.981   3.069   9.689
 7832SOL    HW235559   2.859   2.960   9.697
 7833SOL     OW35560   2.635   2.972   9.491
 7833SOL    HW135561   2.707   3.031   9.456
 7833SOL    HW235562   2.675   2.888   9.527
 7834SOL     OW35563   2.706   1.948   9.343
 7834SOL    HW135564   2.781   1.882   9.355
 7834SOL    HW235565   2.737   2.039   9.371
 7835SOL     OW35566   2.385   2.377   9.955
 7835SOL    HW135567   2.423   2.288   9.981
 7835SOL    HW235568   2.452   2.427   9.900
 7836SOL     OW35569   2.078   3.087   9.270
 7836SOL    HW135570   2.070   3.099   9.171
 7836SOL    HW235571   2.137   3.158   9.308
 7837SOL     OW35572   2.505   3.526   9.430
 7837SOL    HW135573   2.480   3.621   9.414
 7837SOL    HW235574   2.472   3.498   9.520
 7838SOL     OW35575   1.900   2.780   9.816
 7838SOL    HW135576   1.907   2.879   9.803
 7838SOL    HW235577   1.809   2.757   9.850
 7839SOL     OW35578   3.175   3.053   9.743
 7839SOL    HW135579   3.274   3.057   9.759
 7839SOL    HW235580   3.158   3.039   9.645
 7840SOL     OW35581   2.528   2.219   9.691
 7840SOL    HW135582   2.430   2.213   9.671
 7840SOL    HW235583   2.547   2.176   9.779
 7841SOL     OW35584   3.448   1.902   9.950
 7841SOL    HW135585   3.443   1.943   9.859
 7841SOL    HW235586   3.529   1.936   9.997
 7842SOL     OW35587   3.451   4.968   0.550
 7842SOL    HW135588   3.462   5.052   0.604
 7842SOL    HW235589   3.541   4.931   0.527
 7843SOL     OW35590   3.531   4.250   1.414
 7843SOL    HW135591   3.433   4.242   1.436
 7843SOL    HW235592   3.584   4.239   1.498
 7844SOL     OW35593   2.198   3.887   0.019
 7844SOL    HW135594   2.111   3.884  -0.030
 7844SOL    HW235595   2.249   3.969  -0.009
 7845SOL     OW35596   3.063   3.787   1.352
 7845SOL    HW135597   2.987   3.742   1.399
 7845SOL    HW235598   3.092   3.732   1.274
 7846SOL     OW35599   2.801   4.567   1.729
 7846SOL    HW135600   2.766   4.542   1.639
 7846SOL    HW235601   2.725   4.588   1.790
 7847SOL     OW35602   2.408   5.241   0.423
 7847SOL    HW135603   2.364   5.250   0.512
 7847SOL    HW235604   2.479   5.171   0.427
 7848SOL     OW35605   2.426   3.774   0.145
 7848SOL    HW135606   2.514   3.802   0.106
 7848SOL    HW235607   2.354   3.837   0.115
 7849SOL     OW35608   3.396   4.759   1.528
 7849SOL    HW135609   3.304   4.764   1.490
 7849SOL    HW235610   3.461   4.797   1.462
 7850SOL     OW35611   3.296   4.766   1.209
 7850SOL    HW135612   3.221   4.755   1.274
 7850SOL    HW235613   3.333   4.859   1.215
 7851SOL     OW35614   2.792   5.021   1.509
 7851SOL    HW135615   2.735   5.084   1.455
 7851SOL    HW235616   2.825   4.947   1.450
 7852SOL     OW35617   2.562   4.320   0.549
 7852SOL    HW135618   2.601   4.390   0.490
 7852SOL    HW235619   2.536   4.240   0.495
 7853SOL     OW35620   3.182   4.228   1.758
 7853SOL    HW135621   3.278   4.232   1.784
 7853SOL    HW235622   3.138   4.152   1.805
 7854SOL     OW35623   2.265   5.083   0.202
 7854SOL    HW135624   2.329   5.099   0.127
 7854SOL    HW235625   2.289   5.141   0.280
 7855SOL     OW35626   2.416   4.039   1.012
 7855SOL    HW135627   2.492   4.104   1.008
 7855SOL    HW235628   2.446   3.950   0.979
 7856SOL     OW35629   2.113   4.465   0.430
 7856SOL    HW135630   2.128   4.399   0.504
 7856SOL    HW235631   2.063   4.544   0.465
 7857SOL     OW35632   2.699   5.410   0.607
 7857SOL    HW135633   2.764   5.343   0.571
 7857SOL    HW235634   2.689   5.486   0.543
 7858SOL     OW35635   3.591   5.292   0.349
 7858SOL    HW135636   3.687   5.266   0.342
 7858SOL    HW235637   3.567   5.352   0.273
 7859SOL     OW35638   3.503   3.985   1.120
 7859SOL    HW135639   3.554   4.057   1.073
 7859SOL    HW235640   3.408   4.012   1.129
 7860SOL     OW35641   2.903   4.014   0.389
 7860SOL    HW135642   2.928   4.108   0.410
 7860SOL    HW235643   2.904   3.960   0.473
 7861SOL     OW35644   2.027   4.727   1.574
 7861SOL    HW135645   2.123   4.742   1.592
 7861SOL    HW235646   1.989   4.665   1.643
 7862SOL     OW35647   2.353   4.372   0.117
 7862SOL    HW135648   2.313   4.451   0.070
 7862SOL    HW235649   2.442   4.351   0.077
 7863SOL     OW35650   2.868   4.328   1.569
 7863SOL    HW135651   2.901   4.245   1.616
 7863SOL    HW235652   2.941   4.396   1.568
 7864SOL     OW35653   3.472   5.128   0.791
 7864SOL    HW135654   3.468   5.163   0.884
 7864SOL    HW235655   3.531   5.187   0.735
 7865SOL     OW35656   2.203   4.949   0.467
 7865SOL    HW135657   2.249   4.923   0.552
 7865SOL    HW235658   2.223   4.881   0.396
 7866SOL     OW35659   3.061   4.004   0.178
 7866SOL    HW135660   3.155   3.974   0.196
 7866SOL    HW235661   3.009   4.004   0.264
 7867SOL     OW35662   2.213   4.209   1.273
 7867SOL    HW135663   2.203   4.122   1.225
 7867SOL    HW235664   2.149   4.276   1.236
 7868SOL     OW35665   3.295   4.489   1.311
 7868SOL    HW135666   3.299   4.583   1.276
 7868SOL    HW235667   3.388   4.458   1.333
 7869SOL     OW35668   2.248   3.981   0.432
 7869SOL    HW135669   2.202   4.021   0.511
 7869SOL    HW235670   2.196   4.000   0.350
 7870SOL     OW35671   3.376   5.508   1.344
 7870SOL    HW135672   3.319   5.459   1.278
 7870SOL    HW235673   3.462   5.535   1.301
 7871SOL     OW35674   3.671   4.226   1.199
 7871SOL    HW135675   3.728   4.308   1.201
 7871SOL    HW235676   3.612   4.225   1.279
 7872SOL     OW35677   3.688   5.452   1.112
 7872SOL    HW135678   3.734   5.462   1.200
 7872SOL    HW235679   3.755   5.455   1.039
 7873SOL     OW35680   2.801   4.192   0.674
 7873SOL    HW135681   2.877   4.220   0.733
 7873SOL    HW235682   2.757   4.272   0.635
 7874SOL     OW35683   3.036   4.656   0.191
 7874SOL    HW135684   3.073   4.606   0.269
 7874SOL    HW235685   2.966   4.601   0.146
 7875SOL     OW35686   2.878   4.078   1.812
 7875SOL    HW135687   2.941   4.083   1.889
 7875SOL    HW235688   2.786   4.056   1.845
 7876SOL     OW35689   3.619   4.325   0.270
 7876SOL    HW135690   3.640   4.244   0.216
 7876SOL    HW235691   3.636   4.306   0.367
 7877SOL     OW35692   2.913   5.463   0.178
 7877SOL    HW135693   2.947   5.376   0.143
 7877SOL    HW235694   2.881   5.451   0.272
 7878SOL     OW35695   2.594   3.730   1.710
 7878SOL    HW135696   2.601   3.636   1.677
 7878SOL    HW235697   2.651   3.740   1.792
 7879SOL     OW35698   3.517   4.331   0.978
 7879SOL    HW135699   3.502   4.422   1.015
 7879SOL    HW235700   3.587   4.284   1.032
 7880SOL     OW35701   2.927   4.997   1.744
 7880SOL    HW135702   2.949   4.907   1.706
 7880SOL    HW235703   2.862   5.044   1.685
 7881SOL     OW35704   2.582   4.839   1.748
 7881SOL    HW135705   2.553   4.916   1.805
 7881SOL    HW235706   2.592   4.758   1.806
 7882SOL     OW35707   3.217   3.703   0.854
 7882SOL    HW135708   3.166   3.787   0.836
 7882SOL    HW235709   3.303   3.705   0.803
 7883SOL     OW35710   3.572   3.909   1.783
 7883SOL    HW135711   3.549   3.930   1.878
 7883SOL    HW235712   3.548   3.814   1.763
 7884SOL     OW35713   2.196   3.901   0.848
 7884SOL    HW135714   2.248   3.941   0.923
 7884SOL    HW235715   2.249   3.828   0.805
 7885SOL     OW35716   2.180   3.949   1.182
 7885SOL    HW135717   2.145   3.856   1.182
 7885SOL    HW235718   2.267   3.952   1.133
 7886SOL     OW35719   2.847   4.571   0.922
 7886SOL    HW135720   2.873   4.651   0.868
 7886SOL    HW235721   2.841   4.491   0.862
 7887SOL     OW35722   2.048   5.198   0.381
 7887SOL    HW135723   2.075   5.104   0.401
 7887SOL    HW235724   2.073   5.220   0.287
 7888SOL     OW35725   3.330   5.067   1.255
 7888SOL    HW135726   3.301   5.104   1.166
 7888SOL    HW235727   3.252   5.067   1.317
 7889SOL     OW35728   3.583   5.138   1.293
 7889SOL    HW135729   3.614   5.152   1.387
 7889SOL    HW235730   3.484   5.125   1.292
 7890SOL     OW35731   2.335   4.638   0.020
 7890SOL    HW135732   2.304   4.672  -0.068
 7890SOL    HW235733   2.339   4.713   0.086
 7891SOL     OW35734   2.852   4.825   1.319
 7891SOL    HW135735   2.902   4.740   1.303
 7891SOL    HW235736   2.806   4.852   1.234
 7892SOL     OW35737   3.459   4.528   0.393
 7892SOL    HW135738   3.527   4.462   0.360
 7892SOL    HW235739   3.474   4.616   0.349
 7893SOL     OW35740   2.614   4.584   0.077
 7893SOL    HW135741   2.643   4.503   0.128
 7893SOL    HW235742   2.514   4.583   0.068
 7894SOL     OW35743   3.210   4.116   0.423
 7894SOL    HW135744   3.147   4.174   0.371
 7894SOL    HW235745   3.303   4.150   0.411
 7895SOL     OW35746   2.107   4.317   1.523
 7895SOL    HW135747   2.127   4.222   1.498
 7895SOL    HW235748   2.070   4.320   1.616
 7896SOL     OW35749   1.989   3.972   1.413
 7896SOL    HW135750   2.061   3.982   1.344
 7896SOL    HW235751   1.900   3.971   1.368
 7897SOL     OW35752   2.887   4.593   1.178
 7897SOL    HW135753   2.881   4.579   1.079
 7897SOL    HW235754   2.806   4.554   1.222
 7898SOL     OW35755   3.478   4.127   0.493
 7898SOL    HW135756   3.574   4.098   0.490
 7898SOL    HW235757   3.439   4.105   0.582
 7899SOL     OW35758   2.712   4.068   0.215
 7899SOL    HW135759   2.621   4.081   0.253
 7899SOL    HW235760   2.772   4.028   0.285
 7900SOL     OW35761   2.823   5.013   0.150
 7900SOL    HW135762   2.876   4.953   0.210
 7900SOL    HW235763   2.862   5.014   0.059
 7901SOL     OW35764   3.574   5.308   0.635
 7901SOL    HW135765   3.541   5.401   0.654
 7901SOL    HW235766   3.572   5.292   0.536
 7902SOL     OW35767   2.989   4.581   0.624
 7902SOL    HW135768   3.054   4.609   0.695
 7902SOL    HW235769   2.910   4.642   0.626
 7903SOL     OW35770   2.737   5.307   1.648
 7903SOL    HW135771   2.725   5.238   1.577
 7903SOL    HW235772   2.700   5.272   1.735
 7904SOL     OW35773   3.181   4.621   0.827
 7904SOL    HW135774   3.202   4.563   0.905
 7904SOL    HW235775   3.190   4.717   0.853
 7905SOL     OW35776   2.770   4.698   0.572
 7905SOL    HW135777   2.757   4.609   0.529
 7905SOL    HW235778   2.701   4.712   0.643
 7906SOL     OW35779   3.074   5.086   1.411
 7906SOL    HW135780   3.107   5.171   1.452
 7906SOL    HW235781   2.975   5.082   1.418
 7907SOL     OW35782   3.504   5.501   0.166
 7907SOL    HW135783   3.594   5.545   0.168
 7907SOL    HW235784   3.503   5.432   0.094
 7908SOL     OW35785   2.668   4.468   1.324
 7908SOL    HW135786   2.670   4.554   1.375
 7908SOL    HW235787   2.725   4.400   1.371
 7909SOL     OW35788   1.905   5.495   1.395
 7909SOL    HW135789   1.913   5.595   1.393
 7909SOL    HW235790   1.881   5.466   1.488
 7910SOL     OW35791   2.686   4.514   0.389
 7910SOL    HW135792   2.597   4.542   0.354
 7910SOL    HW235793   2.727   4.448   0.325
 7911SOL     OW35794   2.208   4.232   0.928
 7911SOL    HW135795   2.264   4.225   0.845
 7911SOL    HW235796   2.265   4.210   1.008
 7912SOL     OW35797   2.205   5.430   0.199
 7912SOL    HW135798   2.297   5.460   0.174
 7912SOL    HW235799   2.180   5.469   0.288
 7913SOL     OW35800   3.181   5.452   1.136
 7913SOL    HW135801   3.200   5.515   1.062
 7913SOL    HW235802   3.189   5.358   1.103
 7914SOL     OW35803   2.637   3.752   0.398
 7914SOL    HW135804   2.598   3.741   0.307
 7914SOL    HW235805   2.593   3.828   0.445
 7915SOL     OW35806   1.882   4.888   0.492
 7915SOL    HW135807   1.960   4.946   0.516
 7915SOL    HW235808   1.901   4.839   0.407
 7916SOL     OW35809   3.412   4.016   1.576
 7916SOL    HW135810   3.351   4.094   1.573
 7916SOL    HW235811   3.467   4.020   1.659
 7917SOL     OW35812   3.128   3.962   0.867
 7917SOL    HW135813   3.127   4.040   0.804
 7917SOL    HW235814   3.171   3.989   0.953
 7918SOL     OW35815   3.248   3.768   0.163
 7918SOL    HW135816   3.328   3.708   0.160
 7918SOL    HW235817   3.174   3.721   0.211
 7919SOL     OW35818   3.461   3.740   1.597
 7919SOL    HW135819   3.487   3.697   1.511
 7919SOL    HW235820   3.411   3.824   1.579
 7920SOL     OW35821   2.563   3.999   0.729
 7920SOL    HW135822   2.552   3.941   0.810
 7920SOL    HW235823   2.648   4.051   0.737
 7921SOL     OW35824   3.143   4.350   1.121
 7921SOL    HW135825   3.197   4.390   1.047
 7921SOL    HW235826   3.181   4.379   1.209
 7922SOL     OW35827   3.436   3.756   0.437
 7922SOL    HW135828   3.443   3.710   0.349
 7922SOL    HW235829   3.340   3.766   0.462
 7923SOL     OW35830   2.412   5.071   1.800
 7923SOL    HW135831   2.373   5.134   1.733
 7923SOL    HW235832   2.495   5.111   1.840
 7924SOL     OW35833   2.288   4.803   1.632
 7924SOL    HW135834   2.307   4.827   1.537
 7924SOL    HW235835   2.281   4.886   1.687
 7925SOL     OW35836   3.035   4.294   0.839
 7925SOL    HW135837   3.117   4.271   0.787
 7925SOL    HW235838   3.030   4.235   0.920
 7926SOL     OW35839   3.635   4.321   1.675
 7926SOL    HW135840   3.624   4.407   1.624
 7926SOL    HW235841   3.729   4.312   1.705
 7927SOL     OW35842   3.206   4.094   1.094
 7927SOL    HW135843   3.180   4.191   1.100
 7927SOL    HW235844   3.206   4.054   1.186
 7928SOL     OW35845   3.436   4.226   1.845
 7928SOL    HW135846   3.516   4.251   1.789
 7928SOL    HW235847   3.467   4.191   1.933
 7929SOL     OW35848   3.147   4.529   0.425
 7929SOL    HW135849   3.093   4.527   0.509
 7929SOL    HW235850   3.224   4.592   0.436
 7930SOL     OW35851   3.444   4.625   0.645
 7930SOL    HW135852   3.458   4.588   0.552
 7930SOL    HW235853   3.355   4.595   0.679
 7931SOL     OW35854   3.600   4.562   1.540
 7931SOL    HW135855   3.502   4.583   1.542
 7931SOL    HW235856   3.649   4.638   1.499
 7932SOL     OW35857   3.454   3.982   0.219
 7932SOL    HW135858   3.459   4.024   0.310
 7932SOL    HW235859   3.387   3.907   0.221
 7933SOL     OW35860   2.601   5.197   1.439
 7933SOL    HW135861   2.538   5.275   1.446
 7933SOL    HW235862   2.569   5.135   1.367
 7934SOL     OW35863   1.992   3.992   1.704
 7934SOL    HW135864   2.010   3.981   1.606
 7934SOL    HW235865   1.894   3.988   1.721
 7935SOL     OW35866   1.872   5.406   1.648
 7935SOL    HW135867   1.944   5.392   1.716
 7935SOL    HW235868   1.783   5.409   1.693
 7936SOL     OW35869   2.040   4.062   0.672
 7936SOL    HW135870   1.983   4.117   0.733
 7936SOL    HW235871   2.110   4.014   0.725
 7937SOL     OW35872   3.212   5.294   1.535
 7937SOL    HW135873   3.165   5.362   1.590
 7937SOL    HW235874   3.279   5.340   1.476
 7938SOL     OW35875   2.177   4.253   0.270
 7938SOL    HW135876   2.249   4.282   0.207
 7938SOL    HW235877   2.133   4.333   0.310
 7939SOL     OW35878   3.563   3.915   1.373
 7939SOL    HW135879   3.519   3.963   1.449
 7939SOL    HW235880   3.541   3.961   1.287
 7940SOL     OW35881   2.292   5.516   0.736
 7940SOL    HW135882   2.216   5.482   0.681
 7940SOL    HW235883   2.378   5.479   0.701
 7941SOL     OW35884   3.101   5.229   1.827
 7941SOL    HW135885   3.060   5.144   1.793
 7941SOL    HW235886   3.081   5.303   1.763
 7942SOL     OW35887   2.223   4.500   0.719
 7942SOL    HW135888   2.215   4.598   0.737
 7942SOL    HW235889   2.307   4.466   0.760
 7943SOL     OW35890   2.357   4.819   0.231
 7943SOL    HW135891   2.457   4.819   0.242
 7943SOL    HW235892   2.326   4.912   0.210
 7944SOL     OW35893   2.983   4.411   0.047
 7944SOL    HW135894   2.914   4.468   0.003
 7944SOL    HW235895   3.064   4.405  -0.012
 7945SOL     OW35896   2.718   4.330   0.190
 7945SOL    HW135897   2.808   4.331   0.145
 7945SOL    HW235898   2.695   4.236   0.215
 7946SOL     OW35899   3.169   3.847   0.484
 7946SOL    HW135900   3.079   3.831   0.525
 7946SOL    HW235901   3.177   3.943   0.458
 7947SOL     OW35902   3.283   4.247   1.500
 7947SOL    HW135903   3.235   4.270   1.584
 7947SOL    HW235904   3.217   4.217   1.431
 7948SOL     OW35905   3.490   4.749   0.245
 7948SOL    HW135906   3.561   4.819   0.247
 7948SOL    HW235907   3.477   4.719   0.150
 7949SOL     OW35908   2.472   4.350   1.167
 7949SOL    HW135909   2.547   4.393   1.216
 7949SOL    HW235910   2.405   4.315   1.233
 7950SOL     OW35911   2.615   4.719   1.484
 7950SOL    HW135912   2.684   4.771   1.434
 7950SOL    HW235913   2.610   4.752   1.579
 7951SOL     OW35914   3.007   4.740   1.644
 7951SOL    HW135915   2.929   4.686   1.677
 7951SOL    HW235916   3.088   4.718   1.699
 7952SOL     OW35917   2.936   3.922   0.640
 7952SOL    HW135918   2.995   3.982   0.695
 7952SOL    HW235919   2.863   3.886   0.697
 7953SOL     OW35920   3.046   5.454   1.680
 7953SOL    HW135921   2.951   5.452   1.648
 7953SOL    HW235922   3.067   5.545   1.717
 7954SOL     OW35923   2.464   3.799   0.911
 7954SOL    HW135924   2.392   3.732   0.897
 7954SOL    HW235925   2.546   3.753   0.946
 7955SOL     OW35926   2.164   5.464   1.278
 7955SOL    HW135927   2.144   5.446   1.182
 7955SOL    HW235928   2.091   5.426   1.335
 7956SOL     OW35929   2.857   4.928   0.823
 7956SOL    HW135930   2.896   4.971   0.742
 7956SOL    HW235931   2.930   4.911   0.890
 7957SOL     OW35932   2.551   4.656   1.025
 7957SOL    HW135933   2.549   4.572   0.970
 7957SOL    HW235934   2.500   4.642   1.110
 7958SOL     OW35935   2.534   4.328   1.759
 7958SOL    HW135936   2.486   4.379   1.688
 7958SOL    HW235937   2.627   4.307   1.729
 7959SOL     OW35938   1.940   4.798   0.251
 7959SOL    HW135939   1.930   4.701   0.230
 7959SOL    HW235940   1.993   4.843   0.179
 7960SOL     OW35941   3.637   3.910   0.852
 7960SOL    HW135942   3.592   3.892   0.939
 7960SOL    HW235943   3.735   3.927   0.868
 7961SOL     OW35944   2.685   4.886   1.104
 7961SOL    HW135945   2.636   4.801   1.085
 7961SOL    HW235946   2.755   4.901   1.035
 7962SOL     OW35947   3.023   4.309   0.313
 7962SOL    HW135948   3.075   4.381   0.359
 7962SOL    HW235949   3.036   4.316   0.215
 7963SOL     OW35950   3.384   5.124   1.640
 7963SOL    HW135951   3.369   5.026   1.654
 7963SOL    HW235952   3.301   5.166   1.604
 7964SOL     OW35953   2.141   4.566   1.380
 7964SOL    HW135954   2.105   4.476   1.406
 7964SOL    HW235955   2.102   4.636   1.440
 7965SOL     OW35956   2.643   5.192   0.038
 7965SOL    HW135957   2.618   5.269   0.097
 7965SOL    HW235958   2.707   5.132   0.086
 7966SOL     OW35959   2.604   4.810   0.789
 7966SOL    HW135960   2.693   4.856   0.789
 7966SOL    HW235961   2.597   4.750   0.868
 7967SOL     OW35962   1.909   4.621   1.785
 7967SOL    HW135963   1.824   4.572   1.766
 7967SOL    HW235964   1.936   4.608   1.880
 7968SOL     OW35965   2.806   5.530   1.491
 7968SOL    HW135966   2.778   5.443   1.532
 7968SOL    HW235967   2.750   5.604   1.528
 7969SOL     OW35968   3.035   4.877   1.021
 7969SOL    HW135969   3.019   4.971   1.052
 7969SOL    HW235970   3.038   4.816   1.101
 7970SOL     OW35971   2.309   4.148   1.785
 7970SOL    HW135972   2.345   4.095   1.708
 7970SOL    HW235973   2.370   4.225   1.803
 7971SOL     OW35974   2.373   4.565   0.357
 7971SOL    HW135975   2.323   4.630   0.301
 7971SOL    HW235976   2.315   4.486   0.376
 7972SOL     OW35977   3.454   4.596   1.055
 7972SOL    HW135978   3.473   4.635   0.964
 7972SOL    HW235979   3.408   4.665   1.111
 7973SOL     OW35980   3.146   4.039   1.351
 7973SOL    HW135981   3.217   4.011   1.415
 7973SOL    HW235982   3.093   3.959   1.323
 7974SOL     OW35983   3.068   3.839   1.793
 7974SOL    HW135984   3.127   3.855   1.873
 7974SOL    HW235985   3.015   3.922   1.774
 7975SOL     OW35986   2.284   5.258   1.618
 7975SOL    HW135987   2.226   5.323   1.667
 7975SOL    HW235988   2.346   5.308   1.558
 7976SOL     OW35989   3.640   5.145   1.559
 7976SOL    HW135990   3.668   5.238   1.581
 7976SOL    HW235991   3.547   5.129   1.592
 7977SOL     OW35992   2.890   4.258   1.109
 7977SOL    HW135993   2.976   4.309   1.108
 7977SOL    HW235994   2.896   4.184   1.176
 7978SOL     OW35995   2.935   5.321   1.269
 7978SOL    HW135996   2.861   5.385   1.287
 7978SOL    HW235997   3.014   5.370   1.231
 7979SOL     OW35998   2.144   5.451   1.768
 7979SOL    HW135999   2.187   5.535   1.734
 7979SOL    HW236000   2.169   5.438   1.864
 7980SOL     OW36001   2.004   4.987   1.639
 7980SOL    HW136002   1.983   4.892   1.612
 7980SOL    HW236003   1.935   5.048   1.601
 7981SOL     OW36004   2.093   5.352   1.043
 7981SOL    HW136005   2.035   5.272   1.057
 7981SOL    HW236006   2.117   5.359   0.946
 7982SOL     OW36007   2.839   3.873   0.898
 7982SOL    HW136008   2.935   3.874   0.926
 7982SOL    HW236009   2.784   3.830   0.970
 7983SOL     OW36010   2.901   4.879   0.414
 7983SOL    HW136011   2.981   4.915   0.462
 7983SOL    HW236012   2.859   4.806   0.470
 7984SOL     OW36013   3.492   4.146   0.778
 7984SOL    HW136014   3.511   4.232   0.825
 7984SOL    HW236015   3.560   4.077   0.806
 7985SOL     OW36016   2.635   4.818   0.264
 7985SOL    HW136017   2.707   4.877   0.229
 7985SOL    HW236018   2.675   4.734   0.300
 7986SOL     OW36019   2.706   3.794   0.116
 7986SOL    HW136020   2.781   3.728   0.128
 7986SOL    HW236021   2.737   3.885   0.144
 7987SOL     OW36022   2.385   4.223   0.728
 7987SOL    HW136023   2.423   4.134   0.754
 7987SOL    HW236024   2.452   4.273   0.673
 7988SOL     OW36025   2.373   4.781   1.382
 7988SOL    HW136026   2.469   4.761   1.402
 7988SOL    HW236027   2.362   4.879   1.364
 7989SOL     OW36028   3.595   4.824   1.351
 7989SOL    HW136029   3.609   4.922   1.365
 7989SOL    HW236030   3.652   4.793   1.275
 7990SOL     OW36031   2.078   4.933   0.043
 7990SOL    HW136032   2.070   4.945  -0.056
 7990SOL    HW236033   2.137   5.004   0.081
 7991SOL     OW36034   2.505   5.372   0.203
 7991SOL    HW136035   2.480   5.467   0.187
 7991SOL    HW236036   2.472   5.344   0.293
 7992SOL     OW36037   3.155   4.795   1.427
 7992SOL    HW136038   3.099   4.754   1.498
 7992SOL    HW236039   3.135   4.893   1.421
 7993SOL     OW36040   2.422   5.411   1.427
 7993SOL    HW136041   2.471   5.491   1.391
 7993SOL    HW236042   2.330   5.409   1.388
 7994SOL     OW36043   2.065   4.292   1.789
 7994SOL    HW136044   2.082   4.193   1.794
 7994SOL    HW236045   2.129   4.340   1.850
 7995SOL     OW36046   3.504   5.253   1.028
 7995SOL    HW136047   3.476   5.346   1.052
 7995SOL    HW236048   3.554   5.212   1.104
 7996SOL     OW36049   1.900   4.626   0.589
 7996SOL    HW136050   1.907   4.725   0.576
 7996SOL    HW236051   1.809   4.603   0.623
 7997SOL     OW36052   2.409   4.424   1.527
 7997SOL    HW136053   2.315   4.394   1.508
 7997SOL    HW236054   2.418   4.521   1.504
 7998SOL     OW36055   3.476   4.800   0.839
 7998SOL    HW136056   3.438   4.889   0.812
 7998SOL    HW236057   3.476   4.738   0.761
 7999SOL     OW36058   2.634   4.206   1.008
 7999SOL    HW136059   2.726   4.234   1.035
 7999SOL    HW236060   2.566   4.257   1.062
 8000SOL     OW36061   2.487   5.057   1.235
 8000SOL    HW136062   2.400   5.056   1.186
 8000SOL    HW236063   2.553   4.997   1.188
 8001SOL     OW36064   2.224   5.045   1.447
 8001SOL    HW136065   2.243   5.133   1.491
 8001SOL    HW236066   2.129   5.019   1.465
 8002SOL     OW36067   3.467   5.361   1.795
 8002SOL    HW136068   3.436   5.283   1.740
 8002SOL    HW236069   3.436   5.446   1.753
 8003SOL     OW36070   3.175   4.899   0.516
 8003SOL    HW136071   3.274   4.903   0.532
 8003SOL    HW236072   3.158   4.885   0.418
 8004SOL     OW36073   2.528   4.065   0.464
 8004SOL    HW136074   2.430   4.059   0.444
 8004SOL    HW236075   2.547   4.022   0.552
 8005SOL     OW36076   3.448   3.748   0.723
 8005SOL    HW136077   3.443   3.789   0.632
 8005SOL    HW236078   3.529   3.782   0.770
 8006SOL     OW36079   3.051   4.504   1.416
 8006SOL    HW136080   3.150   4.513   1.406
 8006SOL    HW236081   3.007   4.506   1.326
 8007SOL     OW36082   2.545   4.464   0.818
 8007SOL    HW136083   2.567   4.386   0.876
 8007SOL    HW236084   2.554   4.438   0.722
 8008SOL     OW36085   3.213   4.156   0.705
 8008SOL    HW136086   3.212   4.148   0.606
 8008SOL    HW236087   3.302   4.128   0.740
 8009SOL     OW36088   3.531   4.250   3.259
 8009SOL    HW136089   3.433   4.242   3.281
 8009SOL    HW236090   3.584   4.239   3.343
 8010SOL     OW36091   2.198   3.887   1.864
 8010SOL    HW136092   2.111   3.884   1.815
 8010SOL    HW236093   2.249   3.969   1.836
 8011SOL     OW36094   3.063   3.787   3.197
 8011SOL    HW136095   2.987   3.742   3.244
 8011SOL    HW236096   3.092   3.732   3.119
 8012SOL     OW36097   2.801   4.567   3.574
 8012SOL    HW136098   2.766   4.542   3.484
 8012SOL    HW236099   2.725   4.588   3.635
 8013SOL     OW36100   2.408   5.241   2.268
 8013SOL    HW136101   2.364   5.250   2.357
 8013SOL    HW236102   2.479   5.171   2.272
 8014SOL     OW36103   2.426   3.774   1.990
 8014SOL    HW136104   2.514   3.802   1.951
 8014SOL    HW236105   2.354   3.837   1.960
 8015SOL     OW36106   3.396   4.759   3.373
 8015SOL    HW136107   3.304   4.764   3.335
 8015SOL    HW236108   3.461   4.797   3.307
 8016SOL     OW36109   3.296   4.766   3.054
 8016SOL    HW136110   3.221   4.755   3.119
 8016SOL    HW236111   3.333   4.859   3.060
 8017SOL     OW36112   2.792   5.021   3.354
 8017SOL    HW136113   2.735   5.084   3.300
 8017SOL    HW236114   2.825   4.947   3.295
 8018SOL     OW36115   2.335   4.914   2.563
 8018SOL    HW136116   2.268   4.868   2.622
 8018SOL    HW236117   2.427   4.882   2.586
 8019SOL     OW36118   2.562   4.320   2.394
 8019SOL    HW136119   2.601   4.390   2.335
 8019SOL    HW236120   2.536   4.240   2.340
 8020SOL     OW36121   3.182   4.228   3.603
 8020SOL    HW136122   3.278   4.232   3.629
 8020SOL    HW236123   3.138   4.152   3.650
 8021SOL     OW36124   2.265   5.083   2.047
 8021SOL    HW136125   2.329   5.099   1.972
 8021SOL    HW236126   2.289   5.141   2.125
 8022SOL     OW36127   2.416   4.039   2.857
 8022SOL    HW136128   2.492   4.104   2.853
 8022SOL    HW236129   2.446   3.950   2.824
 8023SOL     OW36130   2.113   4.465   2.275
 8023SOL    HW136131   2.128   4.399   2.349
 8023SOL    HW236132   2.063   4.544   2.310
 8024SOL     OW36133   3.503   3.985   2.965
 8024SOL    HW136134   3.554   4.057   2.918
 8024SOL    HW236135   3.408   4.012   2.974
 8025SOL     OW36136   2.903   4.014   2.234
 8025SOL    HW136137   2.928   4.108   2.255
 8025SOL    HW236138   2.904   3.960   2.318
 8026SOL     OW36139   2.353   4.372   1.962
 8026SOL    HW136140   2.313   4.451   1.915
 8026SOL    HW236141   2.442   4.351   1.922
 8027SOL     OW36142   2.868   4.328   3.414
 8027SOL    HW136143   2.901   4.245   3.461
 8027SOL    HW236144   2.941   4.396   3.413
 8028SOL     OW36145   2.203   4.949   2.312
 8028SOL    HW136146   2.249   4.923   2.397
 8028SOL    HW236147   2.223   4.881   2.241
 8029SOL     OW36148   3.061   4.004   2.023
 8029SOL    HW136149   3.155   3.974   2.041
 8029SOL    HW236150   3.009   4.004   2.109
 8030SOL     OW36151   2.213   4.209   3.118
 8030SOL    HW136152   2.203   4.122   3.070
 8030SOL    HW236153   2.149   4.276   3.081
 8031SOL     OW36154   3.295   4.489   3.156
 8031SOL    HW136155   3.299   4.583   3.121
 8031SOL    HW236156   3.388   4.458   3.178
 8032SOL     OW36157   2.248   3.981   2.277
 8032SOL    HW136158   2.202   4.021   2.356
 8032SOL    HW236159   2.196   4.000   2.195
 8033SOL     OW36160   3.376   5.508   3.189
 8033SOL    HW136161   3.319   5.459   3.123
 8033SOL    HW236162   3.462   5.535   3.146
 8034SOL     OW36163   3.671   4.226   3.044
 8034SOL    HW136164   3.728   4.308   3.046
 8034SOL    HW236165   3.612   4.225   3.124
 8035SOL     OW36166   3.688   5.452   2.957
 8035SOL    HW136167   3.734   5.462   3.045
 8035SOL    HW236168   3.755   5.455   2.884
 8036SOL     OW36169   2.801   4.192   2.519
 8036SOL    HW136170   2.877   4.220   2.578
 8036SOL    HW236171   2.757   4.272   2.480
 8037SOL     OW36172   3.036   4.656   2.036
 8037SOL    HW136173   3.073   4.606   2.114
 8037SOL    HW236174   2.966   4.601   1.991
 8038SOL     OW36175   2.878   4.078   3.657
 8038SOL    HW136176   2.941   4.083   3.734
 8038SOL    HW236177   2.786   4.056   3.690
 8039SOL     OW36178   3.619   4.325   2.115
 8039SOL    HW136179   3.640   4.244   2.061
 8039SOL    HW236180   3.636   4.306   2.212
 8040SOL     OW36181   2.913   5.463   2.023
 8040SOL    HW136182   2.947   5.376   1.988
 8040SOL    HW236183   2.881   5.451   2.117
 8041SOL     OW36184   2.594   3.730   3.555
 8041SOL    HW136185   2.601   3.636   3.522
 8041SOL    HW236186   2.651   3.740   3.637
 8042SOL     OW36187   3.517   4.331   2.823
 8042SOL    HW136188   3.502   4.422   2.860
 8042SOL    HW236189   3.587   4.284   2.877
 8043SOL     OW36190   2.927   4.997   3.589
 8043SOL    HW136191   2.949   4.907   3.551
 8043SOL    HW236192   2.862   5.044   3.530
 8044SOL     OW36193   3.217   3.703   2.699
 8044SOL    HW136194   3.166   3.787   2.681
 8044SOL    HW236195   3.303   3.705   2.648
 8045SOL     OW36196   3.572   3.909   3.628
 8045SOL    HW136197   3.549   3.930   3.723
 8045SOL    HW236198   3.548   3.814   3.608
 8046SOL     OW36199   1.875   4.313   2.372
 8046SOL    HW136200   1.877   4.264   2.459
 8046SOL    HW236201   1.877   4.412   2.390
 8047SOL     OW36202   2.196   3.901   2.693
 8047SOL    HW136203   2.248   3.941   2.768
 8047SOL    HW236204   2.249   3.828   2.650
 8048SOL     OW36205   2.180   3.949   3.027
 8048SOL    HW136206   2.145   3.856   3.027
 8048SOL    HW236207   2.267   3.952   2.978
 8049SOL     OW36208   2.847   4.571   2.767
 8049SOL    HW136209   2.873   4.651   2.713
 8049SOL    HW236210   2.841   4.491   2.707
 8050SOL     OW36211   2.048   5.198   2.226
 8050SOL    HW136212   2.075   5.104   2.246
 8050SOL    HW236213   2.073   5.220   2.132
 8051SOL     OW36214   3.330   5.067   3.100
 8051SOL    HW136215   3.301   5.104   3.011
 8051SOL    HW236216   3.252   5.067   3.162
 8052SOL     OW36217   2.062   5.341   2.463
 8052SOL    HW136218   1.978   5.392   2.481
 8052SOL    HW236219   2.053   5.290   2.378
 8053SOL     OW36220   3.583   5.138   3.138
 8053SOL    HW136221   3.614   5.152   3.232
 8053SOL    HW236222   3.484   5.125   3.137
 8054SOL     OW36223   2.335   4.638   1.865
 8054SOL    HW136224   2.304   4.672   1.777
 8054SOL    HW236225   2.339   4.713   1.931
 8055SOL     OW36226   2.852   4.825   3.164
 8055SOL    HW136227   2.902   4.740   3.148
 8055SOL    HW236228   2.806   4.852   3.079
 8056SOL     OW36229   1.939   4.530   2.038
 8056SOL    HW136230   1.999   4.477   2.098
 8056SOL    HW236231   1.845   4.498   2.050
 8057SOL     OW36232   3.459   4.528   2.238
 8057SOL    HW136233   3.527   4.462   2.205
 8057SOL    HW236234   3.474   4.616   2.194
 8058SOL     OW36235   2.707   5.515   2.886
 8058SOL    HW136236   2.753   5.448   2.828
 8058SOL    HW236237   2.633   5.471   2.936
 8059SOL     OW36238   2.614   4.584   1.922
 8059SOL    HW136239   2.643   4.503   1.973
 8059SOL    HW236240   2.514   4.583   1.913
 8060SOL     OW36241   3.210   4.116   2.268
 8060SOL    HW136242   3.147   4.174   2.216
 8060SOL    HW236243   3.303   4.150   2.256
 8061SOL     OW36244   2.107   4.317   3.368
 8061SOL    HW136245   2.127   4.222   3.343
 8061SOL    HW236246   2.070   4.320   3.461
 8062SOL     OW36247   2.887   4.593   3.023
 8062SOL    HW136248   2.881   4.579   2.924
 8062SOL    HW236249   2.806   4.554   3.067
 8063SOL     OW36250   3.478   4.127   2.338
 8063SOL    HW136251   3.574   4.098   2.335
 8063SOL    HW236252   3.439   4.105   2.427
 8064SOL     OW36253   2.712   4.068   2.060
 8064SOL    HW136254   2.621   4.081   2.098
 8064SOL    HW236255   2.772   4.028   2.130
 8065SOL     OW36256   2.823   5.013   1.995
 8065SOL    HW136257   2.876   4.953   2.055
 8065SOL    HW236258   2.862   5.014   1.904
 8066SOL     OW36259   2.989   4.581   2.469
 8066SOL    HW136260   3.054   4.609   2.540
 8066SOL    HW236261   2.910   4.642   2.471
 8067SOL     OW36262   2.737   5.307   3.493
 8067SOL    HW136263   2.725   5.238   3.422
 8067SOL    HW236264   2.700   5.272   3.580
 8068SOL     OW36265   3.181   4.621   2.672
 8068SOL    HW136266   3.202   4.563   2.750
 8068SOL    HW236267   3.190   4.717   2.698
 8069SOL     OW36268   2.137   4.750   2.718
 8069SOL    HW136269   2.060   4.812   2.711
 8069SOL    HW236270   2.174   4.751   2.811
 8070SOL     OW36271   2.770   4.698   2.417
 8070SOL    HW136272   2.757   4.609   2.374
 8070SOL    HW236273   2.701   4.712   2.488
 8071SOL     OW36274   3.074   5.086   3.256
 8071SOL    HW136275   3.107   5.171   3.297
 8071SOL    HW236276   2.975   5.082   3.263
 8072SOL     OW36277   1.881   4.003   2.320
 8072SOL    HW136278   1.941   3.954   2.258
 8072SOL    HW236279   1.936   4.055   2.385
 8073SOL     OW36280   3.504   5.501   2.011
 8073SOL    HW136281   3.594   5.545   2.013
 8073SOL    HW236282   3.503   5.432   1.939
 8074SOL     OW36283   2.668   4.468   3.169
 8074SOL    HW136284   2.670   4.554   3.220
 8074SOL    HW236285   2.725   4.400   3.216
 8075SOL     OW36286   2.686   4.514   2.234
 8075SOL    HW136287   2.597   4.542   2.199
 8075SOL    HW236288   2.727   4.448   2.170
 8076SOL     OW36289   2.208   4.232   2.773
 8076SOL    HW136290   2.264   4.225   2.690
 8076SOL    HW236291   2.265   4.210   2.853
 8077SOL     OW36292   2.205   5.430   2.044
 8077SOL    HW136293   2.297   5.460   2.019
 8077SOL    HW236294   2.180   5.469   2.133
 8078SOL     OW36295   1.886   4.847   2.793
 8078SOL    HW136296   1.796   4.863   2.754
 8078SOL    HW236297   1.884   4.763   2.848
 8079SOL     OW36298   2.637   3.752   2.243
 8079SOL    HW136299   2.598   3.741   2.152
 8079SOL    HW236300   2.593   3.828   2.290
 8080SOL     OW36301   1.882   4.888   2.337
 8080SOL    HW136302   1.960   4.946   2.361
 8080SOL    HW236303   1.901   4.839   2.252
 8081SOL     OW36304   3.412   4.016   3.421
 8081SOL    HW136305   3.351   4.094   3.418
 8081SOL    HW236306   3.467   4.020   3.504
 8082SOL     OW36307   3.128   3.962   2.712
 8082SOL    HW136308   3.127   4.040   2.649
 8082SOL    HW236309   3.171   3.989   2.798
 8083SOL     OW36310   3.248   3.768   2.008
 8083SOL    HW136311   3.328   3.708   2.005
 8083SOL    HW236312   3.174   3.721   2.056
 8084SOL     OW36313   3.461   3.740   3.442
 8084SOL    HW136314   3.487   3.697   3.356
 8084SOL    HW236315   3.411   3.824   3.424
 8085SOL     OW36316   2.563   3.999   2.574
 8085SOL    HW136317   2.552   3.941   2.655
 8085SOL    HW236318   2.648   4.051   2.582
 8086SOL     OW36319   3.143   4.350   2.966
 8086SOL    HW136320   3.197   4.390   2.892
 8086SOL    HW236321   3.181   4.379   3.054
 8087SOL     OW36322   3.436   3.756   2.282
 8087SOL    HW136323   3.443   3.710   2.194
 8087SOL    HW236324   3.340   3.766   2.307
 8088SOL     OW36325   2.412   5.071   3.645
 8088SOL    HW136326   2.373   5.134   3.578
 8088SOL    HW236327   2.495   5.111   3.685
 8089SOL     OW36328   1.949   5.093   2.951
 8089SOL    HW136329   1.918   5.019   2.892
 8089SOL    HW236330   1.881   5.111   3.022
 8090SOL     OW36331   3.035   4.294   2.684
 8090SOL    HW136332   3.117   4.271   2.632
 8090SOL    HW236333   3.030   4.235   2.765
 8091SOL     OW36334   3.635   4.321   3.520
 8091SOL    HW136335   3.624   4.407   3.469
 8091SOL    HW236336   3.729   4.312   3.550
 8092SOL     OW36337   3.206   4.094   2.939
 8092SOL    HW136338   3.180   4.191   2.945
 8092SOL    HW236339   3.206   4.054   3.031
 8093SOL     OW36340   3.436   4.226   3.690
 8093SOL    HW136341   3.516   4.251   3.634
 8093SOL    HW236342   3.467   4.191   3.778
 8094SOL     OW36343   3.147   4.529   2.270
 8094SOL    HW136344   3.093   4.527   2.354
 8094SOL    HW236345   3.224   4.592   2.281
 8095SOL     OW36346   3.444   4.625   2.490
 8095SOL    HW136347   3.458   4.588   2.397
 8095SOL    HW236348   3.355   4.595   2.524
 8096SOL     OW36349   3.600   4.562   3.385
 8096SOL    HW136350   3.502   4.583   3.387
 8096SOL    HW236351   3.649   4.638   3.344
 8097SOL     OW36352   3.454   3.982   2.064
 8097SOL    HW136353   3.459   4.024   2.155
 8097SOL    HW236354   3.387   3.907   2.066
 8098SOL     OW36355   2.601   5.197   3.284
 8098SOL    HW136356   2.538   5.275   3.291
 8098SOL    HW236357   2.569   5.135   3.212
 8099SOL     OW36358   2.040   4.062   2.517
 8099SOL    HW136359   1.983   4.117   2.578
 8099SOL    HW236360   2.110   4.014   2.570
 8100SOL     OW36361   3.212   5.294   3.380
 8100SOL    HW136362   3.165   5.362   3.435
 8100SOL    HW236363   3.279   5.340   3.321
 8101SOL     OW36364   2.177   4.253   2.115
 8101SOL    HW136365   2.249   4.282   2.052
 8101SOL    HW236366   2.133   4.333   2.155
 8102SOL     OW36367   3.563   3.915   3.218
 8102SOL    HW136368   3.519   3.963   3.294
 8102SOL    HW236369   3.541   3.961   3.132
 8103SOL     OW36370   2.217   5.025   3.026
 8103SOL    HW136371   2.229   5.041   3.123
 8103SOL    HW236372   2.130   5.065   2.996
 8104SOL     OW36373   3.101   5.229   3.672
 8104SOL    HW136374   3.060   5.144   3.638
 8104SOL    HW236375   3.081   5.303   3.608
 8105SOL     OW36376   2.591   4.949   2.362
 8105SOL    HW136377   2.634   4.880   2.304
 8105SOL    HW236378   2.555   4.906   2.445
 8106SOL     OW36379   2.223   4.500   2.564
 8106SOL    HW136380   2.215   4.598   2.582
 8106SOL    HW236381   2.307   4.466   2.605
 8107SOL     OW36382   2.069   3.980   2.079
 8107SOL    HW136383   2.113   3.949   1.996
 8107SOL    HW236384   2.070   4.080   2.083
 8108SOL     OW36385   1.922   4.232   2.690
 8108SOL    HW136386   1.886   4.325   2.682
 8108SOL    HW236387   2.005   4.233   2.746
 8109SOL     OW36388   2.357   4.819   2.076
 8109SOL    HW136389   2.457   4.819   2.087
 8109SOL    HW236390   2.326   4.912   2.055
 8110SOL     OW36391   2.983   4.411   1.892
 8110SOL    HW136392   2.914   4.468   1.848
 8110SOL    HW236393   3.064   4.405   1.833
 8111SOL     OW36394   2.718   4.330   2.035
 8111SOL    HW136395   2.808   4.331   1.990
 8111SOL    HW236396   2.695   4.236   2.060
 8112SOL     OW36397   3.169   3.847   2.329
 8112SOL    HW136398   3.079   3.831   2.370
 8112SOL    HW236399   3.177   3.943   2.303
 8113SOL     OW36400   3.283   4.247   3.345
 8113SOL    HW136401   3.235   4.270   3.429
 8113SOL    HW236402   3.217   4.217   3.276
 8114SOL     OW36403   1.918   3.762   1.989
 8114SOL    HW136404   1.981   3.685   1.997
 8114SOL    HW236405   1.938   3.830   2.060
 8115SOL     OW36406   2.191   4.737   2.990
 8115SOL    HW136407   2.202   4.692   3.079
 8115SOL    HW236408   2.218   4.833   2.997
 8116SOL     OW36409   3.490   4.749   2.090
 8116SOL    HW136410   3.561   4.819   2.092
 8116SOL    HW236411   3.477   4.719   1.995
 8117SOL     OW36412   2.472   4.350   3.012
 8117SOL    HW136413   2.547   4.393   3.061
 8117SOL    HW236414   2.405   4.315   3.078
 8118SOL     OW36415   2.615   4.719   3.329
 8118SOL    HW136416   2.684   4.771   3.279
 8118SOL    HW236417   2.610   4.752   3.424
 8119SOL     OW36418   3.007   4.740   3.489
 8119SOL    HW136419   2.929   4.686   3.522
 8119SOL    HW236420   3.088   4.718   3.544
 8120SOL     OW36421   2.936   3.922   2.485
 8120SOL    HW136422   2.995   3.982   2.540
 8120SOL    HW236423   2.863   3.886   2.542
 8121SOL     OW36424   3.046   5.454   3.525
 8121SOL    HW136425   2.951   5.452   3.493
 8121SOL    HW236426   3.067   5.545   3.562
 8122SOL     OW36427   2.464   3.799   2.756
 8122SOL    HW136428   2.392   3.732   2.742
 8122SOL    HW236429   2.546   3.753   2.791
 8123SOL     OW36430   2.164   5.464   3.123
 8123SOL    HW136431   2.144   5.446   3.027
 8123SOL    HW236432   2.091   5.426   3.180
 8124SOL     OW36433   2.857   4.928   2.668
 8124SOL    HW136434   2.896   4.971   2.587
 8124SOL    HW236435   2.930   4.911   2.735
 8125SOL     OW36436   2.551   4.656   2.870
 8125SOL    HW136437   2.549   4.572   2.815
 8125SOL    HW236438   2.500   4.642   2.955
 8126SOL     OW36439   1.890   4.666   2.996
 8126SOL    HW136440   1.979   4.644   3.036
 8126SOL    HW236441   1.835   4.582   2.992
 8127SOL     OW36442   2.118   3.711   2.276
 8127SOL    HW136443   2.156   3.799   2.303
 8127SOL    HW236444   2.041   3.687   2.336
 8128SOL     OW36445   2.534   4.328   3.604
 8128SOL    HW136446   2.486   4.379   3.533
 8128SOL    HW236447   2.627   4.307   3.574
 8129SOL     OW36448   1.940   4.798   2.096
 8129SOL    HW136449   1.930   4.701   2.075
 8129SOL    HW236450   1.993   4.843   2.024
 8130SOL     OW36451   3.637   3.910   2.697
 8130SOL    HW136452   3.592   3.892   2.784
 8130SOL    HW236453   3.735   3.927   2.713
 8131SOL     OW36454   2.685   4.886   2.949
 8131SOL    HW136455   2.636   4.801   2.930
 8131SOL    HW236456   2.755   4.901   2.880
 8132SOL     OW36457   3.023   4.309   2.158
 8132SOL    HW136458   3.075   4.381   2.204
 8132SOL    HW236459   3.036   4.316   2.060
 8133SOL     OW36460   3.384   5.124   3.485
 8133SOL    HW136461   3.369   5.026   3.499
 8133SOL    HW236462   3.301   5.166   3.449
 8134SOL     OW36463   2.141   4.566   3.225
 8134SOL    HW136464   2.105   4.476   3.251
 8134SOL    HW236465   2.102   4.636   3.285
 8135SOL     OW36466   2.643   5.192   1.883
 8135SOL    HW136467   2.618   5.269   1.942
 8135SOL    HW236468   2.707   5.132   1.931
 8136SOL     OW36469   2.604   4.810   2.634
 8136SOL    HW136470   2.693   4.856   2.634
 8136SOL    HW236471   2.597   4.750   2.713
 8137SOL     OW36472   1.972   4.504   2.703
 8137SOL    HW136473   2.067   4.495   2.671
 8137SOL    HW236474   1.938   4.596   2.682
 8138SOL     OW36475   1.909   4.621   3.630
 8138SOL    HW136476   1.824   4.572   3.611
 8138SOL    HW236477   1.936   4.608   3.725
 8139SOL     OW36478   2.806   5.530   3.336
 8139SOL    HW136479   2.778   5.443   3.377
 8139SOL    HW236480   2.750   5.604   3.373
 8140SOL     OW36481   3.035   4.877   2.866
 8140SOL    HW136482   3.019   4.971   2.897
 8140SOL    HW236483   3.038   4.816   2.946
 8141SOL     OW36484   2.309   4.148   3.630
 8141SOL    HW136485   2.345   4.095   3.553
 8141SOL    HW236486   2.370   4.225   3.648
 8142SOL     OW36487   2.373   4.565   2.202
 8142SOL    HW136488   2.323   4.630   2.146
 8142SOL    HW236489   2.315   4.486   2.221
 8143SOL     OW36490   3.454   4.596   2.900
 8143SOL    HW136491   3.473   4.635   2.809
 8143SOL    HW236492   3.408   4.665   2.956
 8144SOL     OW36493   3.146   4.039   3.196
 8144SOL    HW136494   3.217   4.011   3.260
 8144SOL    HW236495   3.093   3.959   3.168
 8145SOL     OW36496   1.847   3.738   2.397
 8145SOL    HW136497   1.760   3.725   2.350
 8145SOL    HW236498   1.855   3.833   2.427
 8146SOL     OW36499   3.068   3.839   3.638
 8146SOL    HW136500   3.127   3.855   3.718
 8146SOL    HW236501   3.015   3.922   3.619
 8147SOL     OW36502   2.284   5.258   3.463
 8147SOL    HW136503   2.226   5.323   3.512
 8147SOL    HW236504   2.346   5.308   3.403
 8148SOL     OW36505   3.640   5.145   3.404
 8148SOL    HW136506   3.668   5.238   3.426
 8148SOL    HW236507   3.547   5.129   3.437
 8149SOL     OW36508   2.890   4.258   2.954
 8149SOL    HW136509   2.976   4.309   2.953
 8149SOL    HW236510   2.896   4.184   3.021
 8150SOL     OW36511   2.294   5.204   2.526
 8150SOL    HW136512   2.292   5.105   2.539
 8150SOL    HW236513   2.203   5.237   2.503
 8151SOL     OW36514   2.935   5.321   3.114
 8151SOL    HW136515   2.861   5.385   3.132
 8151SOL    HW236516   3.014   5.370   3.076
 8152SOL     OW36517   2.144   5.451   3.613
 8152SOL    HW136518   2.187   5.535   3.579
 8152SOL    HW236519   2.169   5.438   3.709
 8153SOL     OW36520   2.004   4.987   3.484
 8153SOL    HW136521   1.983   4.892   3.457
 8153SOL    HW236522   1.935   5.048   3.446
 8154SOL     OW36523   2.093   5.352   2.888
 8154SOL    HW136524   2.035   5.272   2.902
 8154SOL    HW236525   2.117   5.359   2.791
 8155SOL     OW36526   2.839   3.873   2.743
 8155SOL    HW136527   2.935   3.874   2.771
 8155SOL    HW236528   2.784   3.830   2.815
 8156SOL     OW36529   2.901   4.879   2.259
 8156SOL    HW136530   2.981   4.915   2.307
 8156SOL    HW236531   2.859   4.806   2.315
 8157SOL     OW36532   3.492   4.146   2.623
 8157SOL    HW136533   3.511   4.232   2.670
 8157SOL    HW236534   3.560   4.077   2.651
 8158SOL     OW36535   2.635   4.818   2.109
 8158SOL    HW136536   2.707   4.877   2.074
 8158SOL    HW236537   2.675   4.734   2.145
 8159SOL     OW36538   2.706   3.794   1.961
 8159SOL    HW136539   2.781   3.728   1.973
 8159SOL    HW236540   2.737   3.885   1.989
 8160SOL     OW36541   2.385   4.223   2.573
 8160SOL    HW136542   2.423   4.134   2.599
 8160SOL    HW236543   2.452   4.273   2.518
 8161SOL     OW36544   2.373   4.781   3.227
 8161SOL    HW136545   2.469   4.761   3.247
 8161SOL    HW236546   2.362   4.879   3.209
 8162SOL     OW36547   3.595   4.824   3.196
 8162SOL    HW136548   3.609   4.922   3.210
 8162SOL    HW236549   3.652   4.793   3.120
 8163SOL     OW36550   2.078   4.933   1.888
 8163SOL    HW136551   2.070   4.945   1.789
 8163SOL    HW236552   2.137   5.004   1.926
 8164SOL     OW36553   2.505   5.372   2.048
 8164SOL    HW136554   2.480   5.467   2.032
 8164SOL    HW236555   2.472   5.344   2.138
 8165SOL     OW36556   3.155   4.795   3.272
 8165SOL    HW136557   3.099   4.754   3.343
 8165SOL    HW236558   3.135   4.893   3.266
 8166SOL     OW36559   2.422   5.411   3.272
 8166SOL    HW136560   2.471   5.491   3.236
 8166SOL    HW236561   2.330   5.409   3.233
 8167SOL     OW36562   2.065   4.292   3.634
 8167SOL    HW136563   2.082   4.193   3.639
 8167SOL    HW236564   2.129   4.340   3.695
 8168SOL     OW36565   3.504   5.253   2.873
 8168SOL    HW136566   3.476   5.346   2.897
 8168SOL    HW236567   3.554   5.212   2.949
 8169SOL     OW36568   1.900   4.626   2.434
 8169SOL    HW136569   1.907   4.725   2.421
 8169SOL    HW236570   1.809   4.603   2.468
 8170SOL     OW36571   2.409   4.424   3.372
 8170SOL    HW136572   2.315   4.394   3.353
 8170SOL    HW236573   2.418   4.521   3.349
 8171SOL     OW36574   3.476   4.800   2.684
 8171SOL    HW136575   3.438   4.889   2.657
 8171SOL    HW236576   3.476   4.738   2.606
 8172SOL     OW36577   2.634   4.206   2.853
 8172SOL    HW136578   2.726   4.234   2.880
 8172SOL    HW236579   2.566   4.257   2.907
 8173SOL     OW36580   2.487   5.057   3.080
 8173SOL    HW136581   2.400   5.056   3.031
 8173SOL    HW236582   2.553   4.997   3.033
 8174SOL     OW36583   2.053   4.399   2.994
 8174SOL    HW136584   2.091   4.458   3.065
 8174SOL    HW236585   2.036   4.452   2.912
 8175SOL     OW36586   2.224   5.045   3.292
 8175SOL    HW136587   2.243   5.133   3.336
 8175SOL    HW236588   2.129   5.019   3.310
 8176SOL     OW36589   3.467   5.361   3.640
 8176SOL    HW136590   3.436   5.283   3.585
 8176SOL    HW236591   3.436   5.446   3.598
 8177SOL     OW36592   3.175   4.899   2.361
 8177SOL    HW136593   3.274   4.903   2.377
 8177SOL    HW236594   3.158   4.885   2.263
 8178SOL     OW36595   2.528   4.065   2.309
 8178SOL    HW136596   2.430   4.059   2.289
 8178SOL    HW236597   2.547   4.022   2.397
 8179SOL     OW36598   3.448   3.748   2.568
 8179SOL    HW136599   3.443   3.789   2.477
 8179SOL    HW236600   3.529   3.782   2.615
 8180SOL     OW36601   3.051   4.504   3.261
 8180SOL    HW136602   3.150   4.513   3.251
 8180SOL    HW236603   3.007   4.506   3.171
 8181SOL     OW36604   2.545   4.464   2.663
 8181SOL    HW136605   2.567   4.386   2.721
 8181SOL    HW236606   2.554   4.438   2.567
 8182SOL     OW36607   3.210   5.171   2.875
 8182SOL    HW136608   3.124   5.128   2.904
 8182SOL    HW236609   3.199   5.211   2.784
 8183SOL     OW36610   3.213   4.156   2.550
 8183SOL    HW136611   3.212   4.148   2.451
 8183SOL    HW236612   3.302   4.128   2.585
 8184SOL     OW36613   2.940   5.172   4.383
 8184SOL    HW136614   3.031   5.206   4.406
 8184SOL    HW236615   2.912   5.210   4.295
 8185SOL     OW36616   3.451   4.968   4.241
 8185SOL    HW136617   3.462   5.052   4.295
 8185SOL    HW236618   3.541   4.931   4.218
 8186SOL     OW36619   3.531   4.250   5.105
 8186SOL    HW136620   3.433   4.242   5.127
 8186SOL    HW236621   3.584   4.239   5.189
 8187SOL     OW36622   2.198   3.887   3.710
 8187SOL    HW136623   2.111   3.884   3.661
 8187SOL    HW236624   2.249   3.969   3.682
 8188SOL     OW36625   3.063   3.787   5.043
 8188SOL    HW136626   2.987   3.742   5.090
 8188SOL    HW236627   3.092   3.732   4.965
 8189SOL     OW36628   2.801   4.567   5.420
 8189SOL    HW136629   2.766   4.542   5.330
 8189SOL    HW236630   2.725   4.588   5.481
 8190SOL     OW36631   2.426   3.774   3.836
 8190SOL    HW136632   2.514   3.802   3.797
 8190SOL    HW236633   2.354   3.837   3.806
 8191SOL     OW36634   2.335   4.914   4.409
 8191SOL    HW136635   2.268   4.868   4.468
 8191SOL    HW236636   2.427   4.882   4.432
 8192SOL     OW36637   2.562   4.320   4.240
 8192SOL    HW136638   2.601   4.390   4.181
 8192SOL    HW236639   2.536   4.240   4.186
 8193SOL     OW36640   3.182   4.228   5.449
 8193SOL    HW136641   3.278   4.232   5.475
 8193SOL    HW236642   3.138   4.152   5.496
 8194SOL     OW36643   2.265   5.083   3.893
 8194SOL    HW136644   2.329   5.099   3.818
 8194SOL    HW236645   2.289   5.141   3.971
 8195SOL     OW36646   2.416   4.039   4.703
 8195SOL    HW136647   2.492   4.104   4.699
 8195SOL    HW236648   2.446   3.950   4.670
 8196SOL     OW36649   2.113   4.465   4.121
 8196SOL    HW136650   2.128   4.399   4.195
 8196SOL    HW236651   2.063   4.544   4.156
 8197SOL     OW36652   3.591   5.292   4.040
 8197SOL    HW136653   3.687   5.266   4.033
 8197SOL    HW236654   3.567   5.352   3.964
 8198SOL     OW36655   3.503   3.985   4.811
 8198SOL    HW136656   3.554   4.057   4.764
 8198SOL    HW236657   3.408   4.012   4.820
 8199SOL     OW36658   2.903   4.014   4.080
 8199SOL    HW136659   2.928   4.108   4.101
 8199SOL    HW236660   2.904   3.960   4.164
 8200SOL     OW36661   2.027   4.727   5.265
 8200SOL    HW136662   2.123   4.742   5.283
 8200SOL    HW236663   1.989   4.665   5.334
 8201SOL     OW36664   2.353   4.372   3.808
 8201SOL    HW136665   2.313   4.451   3.761
 8201SOL    HW236666   2.442   4.351   3.768
 8202SOL     OW36667   2.868   4.328   5.260
 8202SOL    HW136668   2.901   4.245   5.307
 8202SOL    HW236669   2.941   4.396   5.259
 8203SOL     OW36670   2.203   4.949   4.158
 8203SOL    HW136671   2.249   4.923   4.243
 8203SOL    HW236672   2.223   4.881   4.087
 8204SOL     OW36673   3.061   4.004   3.869
 8204SOL    HW136674   3.155   3.974   3.887
 8204SOL    HW236675   3.009   4.004   3.955
 8205SOL     OW36676   2.213   4.209   4.964
 8205SOL    HW136677   2.203   4.122   4.916
 8205SOL    HW236678   2.149   4.276   4.927
 8206SOL     OW36679   3.295   4.489   5.002
 8206SOL    HW136680   3.299   4.583   4.967
 8206SOL    HW236681   3.388   4.458   5.024
 8207SOL     OW36682   2.248   3.981   4.123
 8207SOL    HW136683   2.202   4.021   4.202
 8207SOL    HW236684   2.196   4.000   4.041
 8208SOL     OW36685   3.376   5.508   5.035
 8208SOL    HW136686   3.319   5.459   4.969
 8208SOL    HW236687   3.462   5.535   4.992
 8209SOL     OW36688   3.688   5.452   4.803
 8209SOL    HW136689   3.734   5.462   4.891
 8209SOL    HW236690   3.755   5.455   4.730
 8210SOL     OW36691   2.801   4.192   4.365
 8210SOL    HW136692   2.877   4.220   4.424
 8210SOL    HW236693   2.757   4.272   4.326
 8211SOL     OW36694   3.036   4.656   3.882
 8211SOL    HW136695   3.073   4.606   3.960
 8211SOL    HW236696   2.966   4.601   3.837
 8212SOL     OW36697   2.878   4.078   5.503
 8212SOL    HW136698   2.941   4.083   5.580
 8212SOL    HW236699   2.786   4.056   5.536
 8213SOL     OW36700   3.619   4.325   3.961
 8213SOL    HW136701   3.640   4.244   3.907
 8213SOL    HW236702   3.636   4.306   4.058
 8214SOL     OW36703   2.913   5.463   3.869
 8214SOL    HW136704   2.947   5.376   3.834
 8214SOL    HW236705   2.881   5.451   3.963
 8215SOL     OW36706   2.594   3.730   5.401
 8215SOL    HW136707   2.601   3.636   5.368
 8215SOL    HW236708   2.651   3.740   5.483
 8216SOL     OW36709   3.517   4.331   4.669
 8216SOL    HW136710   3.502   4.422   4.706
 8216SOL    HW236711   3.587   4.284   4.723
 8217SOL     OW36712   2.927   4.997   5.435
 8217SOL    HW136713   2.949   4.907   5.397
 8217SOL    HW236714   2.862   5.044   5.376
 8218SOL     OW36715   2.582   4.839   5.439
 8218SOL    HW136716   2.553   4.916   5.496
 8218SOL    HW236717   2.592   4.758   5.497
 8219SOL     OW36718   3.217   3.703   4.545
 8219SOL    HW136719   3.166   3.787   4.527
 8219SOL    HW236720   3.303   3.705   4.494
 8220SOL     OW36721   3.572   3.909   5.474
 8220SOL    HW136722   3.549   3.930   5.569
 8220SOL    HW236723   3.548   3.814   5.454
 8221SOL     OW36724   2.196   3.901   4.539
 8221SOL    HW136725   2.248   3.941   4.614
 8221SOL    HW236726   2.249   3.828   4.496
 8222SOL     OW36727   2.180   3.949   4.873
 8222SOL    HW136728   2.145   3.856   4.873
 8222SOL    HW236729   2.267   3.952   4.824
 8223SOL     OW36730   2.847   4.571   4.613
 8223SOL    HW136731   2.873   4.651   4.559
 8223SOL    HW236732   2.841   4.491   4.553
 8224SOL     OW36733   2.048   5.198   4.072
 8224SOL    HW136734   2.075   5.104   4.092
 8224SOL    HW236735   2.073   5.220   3.978
 8225SOL     OW36736   2.062   5.341   4.309
 8225SOL    HW136737   1.978   5.392   4.327
 8225SOL    HW236738   2.053   5.290   4.224
 8226SOL     OW36739   3.583   5.138   4.984
 8226SOL    HW136740   3.614   5.152   5.078
 8226SOL    HW236741   3.484   5.125   4.983
 8227SOL     OW36742   3.459   4.528   4.084
 8227SOL    HW136743   3.527   4.462   4.051
 8227SOL    HW236744   3.474   4.616   4.040
 8228SOL     OW36745   2.614   4.584   3.768
 8228SOL    HW136746   2.643   4.503   3.819
 8228SOL    HW236747   2.514   4.583   3.759
 8229SOL     OW36748   3.210   4.116   4.114
 8229SOL    HW136749   3.147   4.174   4.062
 8229SOL    HW236750   3.303   4.150   4.102
 8230SOL     OW36751   2.107   4.317   5.214
 8230SOL    HW136752   2.127   4.222   5.189
 8230SOL    HW236753   2.070   4.320   5.307
 8231SOL     OW36754   1.989   3.972   5.104
 8231SOL    HW136755   2.061   3.982   5.035
 8231SOL    HW236756   1.900   3.971   5.059
 8232SOL     OW36757   2.887   4.593   4.869
 8232SOL    HW136758   2.881   4.579   4.770
 8232SOL    HW236759   2.806   4.554   4.913
 8233SOL     OW36760   3.478   4.127   4.184
 8233SOL    HW136761   3.574   4.098   4.181
 8233SOL    HW236762   3.439   4.105   4.273
 8234SOL     OW36763   2.712   4.068   3.906
 8234SOL    HW136764   2.621   4.081   3.944
 8234SOL    HW236765   2.772   4.028   3.976
 8235SOL     OW36766   2.823   5.013   3.841
 8235SOL    HW136767   2.876   4.953   3.901
 8235SOL    HW236768   2.862   5.014   3.750
 8236SOL     OW36769   3.574   5.308   4.326
 8236SOL    HW136770   3.541   5.401   4.345
 8236SOL    HW236771   3.572   5.292   4.227
 8237SOL     OW36772   2.989   4.581   4.315
 8237SOL    HW136773   3.054   4.609   4.386
 8237SOL    HW236774   2.910   4.642   4.317
 8238SOL     OW36775   2.737   5.307   5.339
 8238SOL    HW136776   2.725   5.238   5.268
 8238SOL    HW236777   2.700   5.272   5.426
 8239SOL     OW36778   3.181   4.621   4.518
 8239SOL    HW136779   3.202   4.563   4.596
 8239SOL    HW236780   3.190   4.717   4.544
 8240SOL     OW36781   2.137   4.750   4.564
 8240SOL    HW136782   2.060   4.812   4.557
 8240SOL    HW236783   2.174   4.751   4.657
 8241SOL     OW36784   2.770   4.698   4.263
 8241SOL    HW136785   2.757   4.609   4.220
 8241SOL    HW236786   2.701   4.712   4.334
 8242SOL     OW36787   1.881   4.003   4.166
 8242SOL    HW136788   1.941   3.954   4.104
 8242SOL    HW236789   1.936   4.055   4.231
 8243SOL     OW36790   3.504   5.501   3.857
 8243SOL    HW136791   3.594   5.545   3.859
 8243SOL    HW236792   3.503   5.432   3.785
 8244SOL     OW36793   2.668   4.468   5.015
 8244SOL    HW136794   2.670   4.554   5.066
 8244SOL    HW236795   2.725   4.400   5.062
 8245SOL     OW36796   1.905   5.495   5.086
 8245SOL    HW136797   1.913   5.595   5.084
 8245SOL    HW236798   1.881   5.466   5.179
 8246SOL     OW36799   2.686   4.514   4.080
 8246SOL    HW136800   2.597   4.542   4.045
 8246SOL    HW236801   2.727   4.448   4.016
 8247SOL     OW36802   2.208   4.232   4.619
 8247SOL    HW136803   2.264   4.225   4.536
 8247SOL    HW236804   2.265   4.210   4.699
 8248SOL     OW36805   3.181   5.452   4.827
 8248SOL    HW136806   3.200   5.515   4.753
 8248SOL    HW236807   3.189   5.358   4.794
 8249SOL     OW36808   1.886   4.847   4.639
 8249SOL    HW136809   1.796   4.863   4.600
 8249SOL    HW236810   1.884   4.763   4.694
 8250SOL     OW36811   2.637   3.752   4.089
 8250SOL    HW136812   2.598   3.741   3.998
 8250SOL    HW236813   2.593   3.828   4.136
 8251SOL     OW36814   3.412   4.016   5.267
 8251SOL    HW136815   3.351   4.094   5.264
 8251SOL    HW236816   3.467   4.020   5.350
 8252SOL     OW36817   3.128   3.962   4.558
 8252SOL    HW136818   3.127   4.040   4.495
 8252SOL    HW236819   3.171   3.989   4.644
 8253SOL     OW36820   3.248   3.768   3.854
 8253SOL    HW136821   3.328   3.708   3.851
 8253SOL    HW236822   3.174   3.721   3.902
 8254SOL     OW36823   3.461   3.740   5.288
 8254SOL    HW136824   3.487   3.697   5.202
 8254SOL    HW236825   3.411   3.824   5.270
 8255SOL     OW36826   2.563   3.999   4.420
 8255SOL    HW136827   2.552   3.941   4.501
 8255SOL    HW236828   2.648   4.051   4.428
 8256SOL     OW36829   3.143   4.350   4.812
 8256SOL    HW136830   3.197   4.390   4.738
 8256SOL    HW236831   3.181   4.379   4.900
 8257SOL     OW36832   3.436   3.756   4.128
 8257SOL    HW136833   3.443   3.710   4.040
 8257SOL    HW236834   3.340   3.766   4.153
 8258SOL     OW36835   2.412   5.071   5.491
 8258SOL    HW136836   2.373   5.134   5.424
 8258SOL    HW236837   2.495   5.111   5.531
 8259SOL     OW36838   2.288   4.803   5.323
 8259SOL    HW136839   2.307   4.827   5.228
 8259SOL    HW236840   2.281   4.886   5.378
 8260SOL     OW36841   1.949   5.093   4.797
 8260SOL    HW136842   1.918   5.019   4.738
 8260SOL    HW236843   1.881   5.111   4.868
 8261SOL     OW36844   3.035   4.294   4.530
 8261SOL    HW136845   3.117   4.271   4.478
 8261SOL    HW236846   3.030   4.235   4.611
 8262SOL     OW36847   3.635   4.321   5.366
 8262SOL    HW136848   3.624   4.407   5.315
 8262SOL    HW236849   3.729   4.312   5.396
 8263SOL     OW36850   3.206   4.094   4.785
 8263SOL    HW136851   3.180   4.191   4.791
 8263SOL    HW236852   3.206   4.054   4.877
 8264SOL     OW36853   3.436   4.226   5.536
 8264SOL    HW136854   3.516   4.251   5.480
 8264SOL    HW236855   3.467   4.191   5.624
 8265SOL     OW36856   3.147   4.529   4.116
 8265SOL    HW136857   3.093   4.527   4.200
 8265SOL    HW236858   3.224   4.592   4.127
 8266SOL     OW36859   3.444   4.625   4.336
 8266SOL    HW136860   3.458   4.588   4.243
 8266SOL    HW236861   3.355   4.595   4.370
 8267SOL     OW36862   3.600   4.562   5.231
 8267SOL    HW136863   3.502   4.583   5.233
 8267SOL    HW236864   3.649   4.638   5.190
 8268SOL     OW36865   3.454   3.982   3.910
 8268SOL    HW136866   3.459   4.024   4.001
 8268SOL    HW236867   3.387   3.907   3.912
 8269SOL     OW36868   2.601   5.197   5.130
 8269SOL    HW136869   2.538   5.275   5.137
 8269SOL    HW236870   2.569   5.135   5.058
 8270SOL     OW36871   1.992   3.992   5.395
 8270SOL    HW136872   2.010   3.981   5.297
 8270SOL    HW236873   1.894   3.988   5.412
 8271SOL     OW36874   1.872   5.406   5.339
 8271SOL    HW136875   1.944   5.392   5.407
 8271SOL    HW236876   1.783   5.409   5.384
 8272SOL     OW36877   2.040   4.062   4.363
 8272SOL    HW136878   1.983   4.117   4.424
 8272SOL    HW236879   2.110   4.014   4.416
 8273SOL     OW36880   3.212   5.294   5.226
 8273SOL    HW136881   3.165   5.362   5.281
 8273SOL    HW236882   3.279   5.340   5.167
 8274SOL     OW36883   2.177   4.253   3.961
 8274SOL    HW136884   2.249   4.282   3.898
 8274SOL    HW236885   2.133   4.333   4.001
 8275SOL     OW36886   3.563   3.915   5.064
 8275SOL    HW136887   3.519   3.963   5.140
 8275SOL    HW236888   3.541   3.961   4.978
 8276SOL     OW36889   2.217   5.025   4.872
 8276SOL    HW136890   2.229   5.041   4.969
 8276SOL    HW236891   2.130   5.065   4.842
 8277SOL     OW36892   3.101   5.229   5.518
 8277SOL    HW136893   3.060   5.144   5.484
 8277SOL    HW236894   3.081   5.303   5.454
 8278SOL     OW36895   2.223   4.500   4.410
 8278SOL    HW136896   2.215   4.598   4.428
 8278SOL    HW236897   2.307   4.466   4.451
 8279SOL     OW36898   2.069   3.980   3.925
 8279SOL    HW136899   2.113   3.949   3.842
 8279SOL    HW236900   2.070   4.080   3.929
 8280SOL     OW36901   1.922   4.232   4.536
 8280SOL    HW136902   1.886   4.325   4.528
 8280SOL    HW236903   2.005   4.233   4.592
 8281SOL     OW36904   2.983   4.411   3.738
 8281SOL    HW136905   2.914   4.468   3.694
 8281SOL    HW236906   3.064   4.405   3.679
 8282SOL     OW36907   2.718   4.330   3.881
 8282SOL    HW136908   2.808   4.331   3.836
 8282SOL    HW236909   2.695   4.236   3.906
 8283SOL     OW36910   3.169   3.847   4.175
 8283SOL    HW136911   3.079   3.831   4.216
 8283SOL    HW236912   3.177   3.943   4.149
 8284SOL     OW36913   3.283   4.247   5.191
 8284SOL    HW136914   3.235   4.270   5.275
 8284SOL    HW236915   3.217   4.217   5.122
 8285SOL     OW36916   1.918   3.762   3.835
 8285SOL    HW136917   1.981   3.685   3.843
 8285SOL    HW236918   1.938   3.830   3.906
 8286SOL     OW36919   2.191   4.737   4.836
 8286SOL    HW136920   2.202   4.692   4.925
 8286SOL    HW236921   2.218   4.833   4.843
 8287SOL     OW36922   3.490   4.749   3.936
 8287SOL    HW136923   3.561   4.819   3.938
 8287SOL    HW236924   3.477   4.719   3.841
 8288SOL     OW36925   2.472   4.350   4.858
 8288SOL    HW136926   2.547   4.393   4.907
 8288SOL    HW236927   2.405   4.315   4.924
 8289SOL     OW36928   3.007   4.740   5.335
 8289SOL    HW136929   2.929   4.686   5.368
 8289SOL    HW236930   3.088   4.718   5.390
 8290SOL     OW36931   2.936   3.922   4.331
 8290SOL    HW136932   2.995   3.982   4.386
 8290SOL    HW236933   2.863   3.886   4.388
 8291SOL     OW36934   3.046   5.454   5.371
 8291SOL    HW136935   2.951   5.452   5.339
 8291SOL    HW236936   3.067   5.545   5.408
 8292SOL     OW36937   2.464   3.799   4.602
 8292SOL    HW136938   2.392   3.732   4.588
 8292SOL    HW236939   2.546   3.753   4.637
 8293SOL     OW36940   2.164   5.464   4.969
 8293SOL    HW136941   2.144   5.446   4.873
 8293SOL    HW236942   2.091   5.426   5.026
 8294SOL     OW36943   1.890   4.666   4.842
 8294SOL    HW136944   1.979   4.644   4.882
 8294SOL    HW236945   1.835   4.582   4.838
 8295SOL     OW36946   2.118   3.711   4.122
 8295SOL    HW136947   2.156   3.799   4.149
 8295SOL    HW236948   2.041   3.687   4.182
 8296SOL     OW36949   2.534   4.328   5.450
 8296SOL    HW136950   2.486   4.379   5.379
 8296SOL    HW236951   2.627   4.307   5.420
 8297SOL     OW36952   1.940   4.798   3.942
 8297SOL    HW136953   1.930   4.701   3.921
 8297SOL    HW236954   1.993   4.843   3.870
 8298SOL     OW36955   3.637   3.910   4.543
 8298SOL    HW136956   3.592   3.892   4.630
 8298SOL    HW236957   3.735   3.927   4.559
 8299SOL     OW36958   3.023   4.309   4.004
 8299SOL    HW136959   3.075   4.381   4.050
 8299SOL    HW236960   3.036   4.316   3.906
 8300SOL     OW36961   3.384   5.124   5.331
 8300SOL    HW136962   3.369   5.026   5.345
 8300SOL    HW236963   3.301   5.166   5.295
 8301SOL     OW36964   2.141   4.566   5.071
 8301SOL    HW136965   2.105   4.476   5.097
 8301SOL    HW236966   2.102   4.636   5.131
 8302SOL     OW36967   2.643   5.192   3.729
 8302SOL    HW136968   2.618   5.269   3.788
 8302SOL    HW236969   2.707   5.132   3.777
 8303SOL     OW36970   2.604   4.810   4.480
 8303SOL    HW136971   2.693   4.856   4.480
 8303SOL    HW236972   2.597   4.750   4.559
 8304SOL     OW36973   2.782   5.157   4.149
 8304SOL    HW136974   2.832   5.145   4.064
 8304SOL    HW236975   2.728   5.074   4.168
 8305SOL     OW36976   1.972   4.504   4.549
 8305SOL    HW136977   2.067   4.495   4.517
 8305SOL    HW236978   1.938   4.596   4.528
 8306SOL     OW36979   1.909   4.621   5.476
 8306SOL    HW136980   1.824   4.572   5.457
 8306SOL    HW236981   1.936   4.608   5.571
 8307SOL     OW36982   2.806   5.530   5.182
 8307SOL    HW136983   2.778   5.443   5.223
 8307SOL    HW236984   2.750   5.604   5.219
 8308SOL     OW36985   2.309   4.148   5.476
 8308SOL    HW136986   2.345   4.095   5.399
 8308SOL    HW236987   2.370   4.225   5.494
 8309SOL     OW36988   3.454   4.596   4.746
 8309SOL    HW136989   3.473   4.635   4.655
 8309SOL    HW236990   3.408   4.665   4.802
 8310SOL     OW36991   3.146   4.039   5.042
 8310SOL    HW136992   3.217   4.011   5.106
 8310SOL    HW236993   3.093   3.959   5.014
 8311SOL     OW36994   1.847   3.738   4.243
 8311SOL    HW136995   1.760   3.725   4.196
 8311SOL    HW236996   1.855   3.833   4.273
 8312SOL     OW36997   3.068   3.839   5.484
 8312SOL    HW136998   3.127   3.855   5.564
 8312SOL    HW236999   3.015   3.922   5.465
 8313SOL     OW37000   2.284   5.258   5.309
 8313SOL    HW137001   2.226   5.323   5.358
 8313SOL    HW237002   2.346   5.308   5.249
 8314SOL     OW37003   3.640   5.145   5.250
 8314SOL    HW137004   3.668   5.238   5.272
 8314SOL    HW237005   3.547   5.129   5.283
 8315SOL     OW37006   2.890   4.258   4.800
 8315SOL    HW137007   2.976   4.309   4.799
 8315SOL    HW237008   2.896   4.184   4.867
 8316SOL     OW37009   2.294   5.204   4.372
 8316SOL    HW137010   2.292   5.105   4.385
 8316SOL    HW237011   2.203   5.237   4.349
 8317SOL     OW37012   2.935   5.321   4.960
 8317SOL    HW137013   2.861   5.385   4.978
 8317SOL    HW237014   3.014   5.370   4.922
 8318SOL     OW37015   2.144   5.451   5.459
 8318SOL    HW137016   2.187   5.535   5.425
 8318SOL    HW237017   2.169   5.438   5.555
 8319SOL     OW37018   2.004   4.987   5.330
 8319SOL    HW137019   1.983   4.892   5.303
 8319SOL    HW237020   1.935   5.048   5.292
 8320SOL     OW37021   2.093   5.352   4.734
 8320SOL    HW137022   2.035   5.272   4.748
 8320SOL    HW237023   2.117   5.359   4.637
 8321SOL     OW37024   2.839   3.873   4.589
 8321SOL    HW137025   2.935   3.874   4.617
 8321SOL    HW237026   2.784   3.830   4.661
 8322SOL     OW37027   2.901   4.879   4.105
 8322SOL    HW137028   2.981   4.915   4.153
 8322SOL    HW237029   2.859   4.806   4.161
 8323SOL     OW37030   3.492   4.146   4.469
 8323SOL    HW137031   3.511   4.232   4.516
 8323SOL    HW237032   3.560   4.077   4.497
 8324SOL     OW37033   2.635   4.818   3.955
 8324SOL    HW137034   2.707   4.877   3.920
 8324SOL    HW237035   2.675   4.734   3.991
 8325SOL     OW37036   2.706   3.794   3.807
 8325SOL    HW137037   2.781   3.728   3.819
 8325SOL    HW237038   2.737   3.885   3.835
 8326SOL     OW37039   2.385   4.223   4.419
 8326SOL    HW137040   2.423   4.134   4.445
 8326SOL    HW237041   2.452   4.273   4.364
 8327SOL     OW37042   2.373   4.781   5.073
 8327SOL    HW137043   2.469   4.761   5.093
 8327SOL    HW237044   2.362   4.879   5.055
 8328SOL     OW37045   2.078   4.933   3.734
 8328SOL    HW137046   2.070   4.945   3.635
 8328SOL    HW237047   2.137   5.004   3.772
 8329SOL     OW37048   2.422   5.411   5.118
 8329SOL    HW137049   2.471   5.491   5.082
 8329SOL    HW237050   2.330   5.409   5.079
 8330SOL     OW37051   2.065   4.292   5.480
 8330SOL    HW137052   2.082   4.193   5.485
 8330SOL    HW237053   2.129   4.340   5.541
 8331SOL     OW37054   3.504   5.253   4.719
 8331SOL    HW137055   3.476   5.346   4.743
 8331SOL    HW237056   3.554   5.212   4.795
 8332SOL     OW37057   1.900   4.626   4.280
 8332SOL    HW137058   1.907   4.725   4.267
 8332SOL    HW237059   1.809   4.603   4.314
 8333SOL     OW37060   2.409   4.424   5.218
 8333SOL    HW137061   2.315   4.394   5.199
 8333SOL    HW237062   2.418   4.521   5.195
 8334SOL     OW37063   2.634   4.206   4.699
 8334SOL    HW137064   2.726   4.234   4.726
 8334SOL    HW237065   2.566   4.257   4.753
 8335SOL     OW37066   2.053   4.399   4.840
 8335SOL    HW137067   2.091   4.458   4.911
 8335SOL    HW237068   2.036   4.452   4.758
 8336SOL     OW37069   2.224   5.045   5.138
 8336SOL    HW137070   2.243   5.133   5.182
 8336SOL    HW237071   2.129   5.019   5.156
 8337SOL     OW37072   3.467   5.361   5.486
 8337SOL    HW137073   3.436   5.283   5.431
 8337SOL    HW237074   3.436   5.446   5.444
 8338SOL     OW37075   3.175   4.899   4.207
 8338SOL    HW137076   3.274   4.903   4.223
 8338SOL    HW237077   3.158   4.885   4.109
 8339SOL     OW37078   2.528   4.065   4.155
 8339SOL    HW137079   2.430   4.059   4.135
 8339SOL    HW237080   2.547   4.022   4.243
 8340SOL     OW37081   3.448   3.748   4.414
 8340SOL    HW137082   3.443   3.789   4.323
 8340SOL    HW237083   3.529   3.782   4.461
 8341SOL     OW37084   3.051   4.504   5.107
 8341SOL    HW137085   3.150   4.513   5.097
 8341SOL    HW237086   3.007   4.506   5.017
 8342SOL     OW37087   2.545   4.464   4.509
 8342SOL    HW137088   2.567   4.386   4.567
 8342SOL    HW237089   2.554   4.438   4.413
 8343SOL     OW37090   3.213   4.156   4.396
 8343SOL    HW137091   3.212   4.148   4.297
 8343SOL    HW237092   3.302   4.128   4.431
 8344SOL     OW37093   2.940   5.172   6.228
 8344SOL    HW137094   3.031   5.206   6.251
 8344SOL    HW237095   2.912   5.210   6.140
 8345SOL     OW37096   3.451   4.968   6.086
 8345SOL    HW137097   3.462   5.052   6.140
 8345SOL    HW237098   3.541   4.931   6.063
 8346SOL     OW37099   3.531   4.250   6.950
 8346SOL    HW137100   3.433   4.242   6.972
 8346SOL    HW237101   3.584   4.239   7.034
 8347SOL     OW37102   2.198   3.887   5.555
 8347SOL    HW137103   2.111   3.884   5.506
 8347SOL    HW237104   2.249   3.969   5.527
 8348SOL     OW37105   3.185   5.276   6.330
 8348SOL    HW137106   3.174   5.373   6.353
 8348SOL    HW237107   3.278   5.259   6.300
 8349SOL     OW37108   3.063   3.787   6.888
 8349SOL    HW137109   2.987   3.742   6.935
 8349SOL    HW237110   3.092   3.732   6.810
 8350SOL     OW37111   2.408   5.241   5.959
 8350SOL    HW137112   2.364   5.250   6.048
 8350SOL    HW237113   2.479   5.171   5.963
 8351SOL     OW37114   2.426   3.774   5.681
 8351SOL    HW137115   2.514   3.802   5.642
 8351SOL    HW237116   2.354   3.837   5.651
 8352SOL     OW37117   3.396   4.759   7.064
 8352SOL    HW137118   3.304   4.764   7.026
 8352SOL    HW237119   3.461   4.797   6.998
 8353SOL     OW37120   3.296   4.766   6.745
 8353SOL    HW137121   3.221   4.755   6.810
 8353SOL    HW237122   3.333   4.859   6.751
 8354SOL     OW37123   2.792   5.021   7.045
 8354SOL    HW137124   2.735   5.084   6.991
 8354SOL    HW237125   2.825   4.947   6.986
 8355SOL     OW37126   2.335   4.914   6.254
 8355SOL    HW137127   2.268   4.868   6.313
 8355SOL    HW237128   2.427   4.882   6.277
 8356SOL     OW37129   2.562   4.320   6.085
 8356SOL    HW137130   2.601   4.390   6.026
 8356SOL    HW237131   2.536   4.240   6.031
 8357SOL     OW37132   3.182   4.228   7.294
 8357SOL    HW137133   3.278   4.232   7.320
 8357SOL    HW237134   3.138   4.152   7.341
 8358SOL     OW37135   2.265   5.083   5.738
 8358SOL    HW137136   2.329   5.099   5.663
 8358SOL    HW237137   2.289   5.141   5.816
 8359SOL     OW37138   2.416   4.039   6.548
 8359SOL    HW137139   2.492   4.104   6.544
 8359SOL    HW237140   2.446   3.950   6.515
 8360SOL     OW37141   2.113   4.465   5.966
 8360SOL    HW137142   2.128   4.399   6.040
 8360SOL    HW237143   2.063   4.544   6.001
 8361SOL     OW37144   2.699   5.410   6.143
 8361SOL    HW137145   2.764   5.343   6.107
 8361SOL    HW237146   2.689   5.486   6.079
 8362SOL     OW37147   3.591   5.292   5.885
 8362SOL    HW137148   3.687   5.266   5.878
 8362SOL    HW237149   3.567   5.352   5.809
 8363SOL     OW37150   3.503   3.985   6.656
 8363SOL    HW137151   3.554   4.057   6.609
 8363SOL    HW237152   3.408   4.012   6.665
 8364SOL     OW37153   2.903   4.014   5.925
 8364SOL    HW137154   2.928   4.108   5.946
 8364SOL    HW237155   2.904   3.960   6.009
 8365SOL     OW37156   2.027   4.727   7.110
 8365SOL    HW137157   2.123   4.742   7.128
 8365SOL    HW237158   1.989   4.665   7.179
 8366SOL     OW37159   2.353   4.372   5.653
 8366SOL    HW137160   2.313   4.451   5.606
 8366SOL    HW237161   2.442   4.351   5.613
 8367SOL     OW37162   2.526   5.296   6.351
 8367SOL    HW137163   2.599   5.319   6.287
 8367SOL    HW237164   2.455   5.243   6.305
 8368SOL     OW37165   2.868   4.328   7.105
 8368SOL    HW137166   2.901   4.245   7.152
 8368SOL    HW237167   2.941   4.396   7.104
 8369SOL     OW37168   3.472   5.128   6.327
 8369SOL    HW137169   3.468   5.163   6.420
 8369SOL    HW237170   3.531   5.187   6.271
 8370SOL     OW37171   2.203   4.949   6.003
 8370SOL    HW137172   2.249   4.923   6.088
 8370SOL    HW237173   2.223   4.881   5.932
 8371SOL     OW37174   3.061   4.004   5.714
 8371SOL    HW137175   3.155   3.974   5.732
 8371SOL    HW237176   3.009   4.004   5.800
 8372SOL     OW37177   2.213   4.209   6.809
 8372SOL    HW137178   2.203   4.122   6.761
 8372SOL    HW237179   2.149   4.276   6.772
 8373SOL     OW37180   3.295   4.489   6.847
 8373SOL    HW137181   3.299   4.583   6.812
 8373SOL    HW237182   3.388   4.458   6.869
 8374SOL     OW37183   2.248   3.981   5.968
 8374SOL    HW137184   2.202   4.021   6.047
 8374SOL    HW237185   2.196   4.000   5.886
 8375SOL     OW37186   3.376   5.508   6.880
 8375SOL    HW137187   3.319   5.459   6.814
 8375SOL    HW237188   3.462   5.535   6.837
 8376SOL     OW37189   3.671   4.226   6.735
 8376SOL    HW137190   3.728   4.308   6.737
 8376SOL    HW237191   3.612   4.225   6.815
 8377SOL     OW37192   3.688   5.452   6.648
 8377SOL    HW137193   3.734   5.462   6.736
 8377SOL    HW237194   3.755   5.455   6.575
 8378SOL     OW37195   2.801   4.192   6.210
 8378SOL    HW137196   2.877   4.220   6.269
 8378SOL    HW237197   2.757   4.272   6.171
 8379SOL     OW37198   3.036   4.656   5.727
 8379SOL    HW137199   3.073   4.606   5.805
 8379SOL    HW237200   2.966   4.601   5.682
 8380SOL     OW37201   3.619   4.325   5.806
 8380SOL    HW137202   3.640   4.244   5.752
 8380SOL    HW237203   3.636   4.306   5.903
 8381SOL     OW37204   2.913   5.463   5.714
 8381SOL    HW137205   2.947   5.376   5.679
 8381SOL    HW237206   2.881   5.451   5.808
 8382SOL     OW37207   2.594   3.730   7.246
 8382SOL    HW137208   2.601   3.636   7.213
 8382SOL    HW237209   2.651   3.740   7.328
 8383SOL     OW37210   3.517   4.331   6.514
 8383SOL    HW137211   3.502   4.422   6.551
 8383SOL    HW237212   3.587   4.284   6.568
 8384SOL     OW37213   2.927   4.997   7.280
 8384SOL    HW137214   2.949   4.907   7.242
 8384SOL    HW237215   2.862   5.044   7.221
 8385SOL     OW37216   2.582   4.839   7.284
 8385SOL    HW137217   2.553   4.916   7.341
 8385SOL    HW237218   2.592   4.758   7.342
 8386SOL     OW37219   3.217   3.703   6.390
 8386SOL    HW137220   3.166   3.787   6.372
 8386SOL    HW237221   3.303   3.705   6.339
 8387SOL     OW37222   3.572   3.909   7.319
 8387SOL    HW137223   3.549   3.930   7.414
 8387SOL    HW237224   3.548   3.814   7.299
 8388SOL     OW37225   1.875   4.313   6.063
 8388SOL    HW137226   1.877   4.264   6.150
 8388SOL    HW237227   1.877   4.412   6.081
 8389SOL     OW37228   2.196   3.901   6.384
 8389SOL    HW137229   2.248   3.941   6.459
 8389SOL    HW237230   2.249   3.828   6.341
 8390SOL     OW37231   2.180   3.949   6.718
 8390SOL    HW137232   2.145   3.856   6.718
 8390SOL    HW237233   2.267   3.952   6.669
 8391SOL     OW37234   2.847   4.571   6.458
 8391SOL    HW137235   2.873   4.651   6.404
 8391SOL    HW237236   2.841   4.491   6.398
 8392SOL     OW37237   2.048   5.198   5.917
 8392SOL    HW137238   2.075   5.104   5.937
 8392SOL    HW237239   2.073   5.220   5.823
 8393SOL     OW37240   3.330   5.067   6.791
 8393SOL    HW137241   3.301   5.104   6.702
 8393SOL    HW237242   3.252   5.067   6.853
 8394SOL     OW37243   2.062   5.341   6.154
 8394SOL    HW137244   1.978   5.392   6.172
 8394SOL    HW237245   2.053   5.290   6.069
 8395SOL     OW37246   3.583   5.138   6.829
 8395SOL    HW137247   3.614   5.152   6.923
 8395SOL    HW237248   3.484   5.125   6.828
 8396SOL     OW37249   2.335   4.638   5.556
 8396SOL    HW137250   2.304   4.672   5.468
 8396SOL    HW237251   2.339   4.713   5.622
 8397SOL     OW37252   2.852   4.825   6.855
 8397SOL    HW137253   2.902   4.740   6.839
 8397SOL    HW237254   2.806   4.852   6.770
 8398SOL     OW37255   1.939   4.530   5.729
 8398SOL    HW137256   1.999   4.477   5.789
 8398SOL    HW237257   1.845   4.498   5.741
 8399SOL     OW37258   3.459   4.528   5.929
 8399SOL    HW137259   3.527   4.462   5.896
 8399SOL    HW237260   3.474   4.616   5.885
 8400SOL     OW37261   2.707   5.515   6.577
 8400SOL    HW137262   2.753   5.448   6.519
 8400SOL    HW237263   2.633   5.471   6.627
 8401SOL     OW37264   2.614   4.584   5.613
 8401SOL    HW137265   2.643   4.503   5.664
 8401SOL    HW237266   2.514   4.583   5.604
 8402SOL     OW37267   3.210   4.116   5.959
 8402SOL    HW137268   3.147   4.174   5.907
 8402SOL    HW237269   3.303   4.150   5.947
 8403SOL     OW37270   2.107   4.317   7.059
 8403SOL    HW137271   2.127   4.222   7.034
 8403SOL    HW237272   2.070   4.320   7.152
 8404SOL     OW37273   1.989   3.972   6.949
 8404SOL    HW137274   2.061   3.982   6.880
 8404SOL    HW237275   1.900   3.971   6.904
 8405SOL     OW37276   2.887   4.593   6.714
 8405SOL    HW137277   2.881   4.579   6.615
 8405SOL    HW237278   2.806   4.554   6.758
 8406SOL     OW37279   3.478   4.127   6.029
 8406SOL    HW137280   3.574   4.098   6.026
 8406SOL    HW237281   3.439   4.105   6.118
 8407SOL     OW37282   2.762   5.202   6.466
 8407SOL    HW137283   2.820   5.213   6.385
 8407SOL    HW237284   2.668   5.226   6.444
 8408SOL     OW37285   2.712   4.068   5.751
 8408SOL    HW137286   2.621   4.081   5.789
 8408SOL    HW237287   2.772   4.028   5.821
 8409SOL     OW37288   2.823   5.013   5.686
 8409SOL    HW137289   2.876   4.953   5.746
 8409SOL    HW237290   2.862   5.014   5.595
 8410SOL     OW37291   3.574   5.308   6.171
 8410SOL    HW137292   3.541   5.401   6.190
 8410SOL    HW237293   3.572   5.292   6.072
 8411SOL     OW37294   2.989   4.581   6.160
 8411SOL    HW137295   3.054   4.609   6.231
 8411SOL    HW237296   2.910   4.642   6.162
 8412SOL     OW37297   2.737   5.307   7.184
 8412SOL    HW137298   2.725   5.238   7.113
 8412SOL    HW237299   2.700   5.272   7.271
 8413SOL     OW37300   3.181   4.621   6.363
 8413SOL    HW137301   3.202   4.563   6.441
 8413SOL    HW237302   3.190   4.717   6.389
 8414SOL     OW37303   2.137   4.750   6.409
 8414SOL    HW137304   2.060   4.812   6.402
 8414SOL    HW237305   2.174   4.751   6.502
 8415SOL     OW37306   2.770   4.698   6.108
 8415SOL    HW137307   2.757   4.609   6.065
 8415SOL    HW237308   2.701   4.712   6.179
 8416SOL     OW37309   3.074   5.086   6.947
 8416SOL    HW137310   3.107   5.171   6.988
 8416SOL    HW237311   2.975   5.082   6.954
 8417SOL     OW37312   1.881   4.003   6.011
 8417SOL    HW137313   1.941   3.954   5.949
 8417SOL    HW237314   1.936   4.055   6.076
 8418SOL     OW37315   3.504   5.501   5.702
 8418SOL    HW137316   3.594   5.545   5.704
 8418SOL    HW237317   3.503   5.432   5.630
 8419SOL     OW37318   2.668   4.468   6.860
 8419SOL    HW137319   2.670   4.554   6.911
 8419SOL    HW237320   2.725   4.400   6.907
 8420SOL     OW37321   1.905   5.495   6.931
 8420SOL    HW137322   1.913   5.595   6.929
 8420SOL    HW237323   1.881   5.466   7.024
 8421SOL     OW37324   2.686   4.514   5.925
 8421SOL    HW137325   2.597   4.542   5.890
 8421SOL    HW237326   2.727   4.448   5.861
 8422SOL     OW37327   2.208   4.232   6.464
 8422SOL    HW137328   2.264   4.225   6.381
 8422SOL    HW237329   2.265   4.210   6.544
 8423SOL     OW37330   2.205   5.430   5.735
 8423SOL    HW137331   2.297   5.460   5.710
 8423SOL    HW237332   2.180   5.469   5.824
 8424SOL     OW37333   3.181   5.452   6.672
 8424SOL    HW137334   3.200   5.515   6.598
 8424SOL    HW237335   3.189   5.358   6.639
 8425SOL     OW37336   1.886   4.847   6.484
 8425SOL    HW137337   1.796   4.863   6.445
 8425SOL    HW237338   1.884   4.763   6.539
 8426SOL     OW37339   2.637   3.752   5.934
 8426SOL    HW137340   2.598   3.741   5.843
 8426SOL    HW237341   2.593   3.828   5.981
 8427SOL     OW37342   1.882   4.888   6.028
 8427SOL    HW137343   1.960   4.946   6.052
 8427SOL    HW237344   1.901   4.839   5.943
 8428SOL     OW37345   3.412   4.016   7.112
 8428SOL    HW137346   3.351   4.094   7.109
 8428SOL    HW237347   3.467   4.020   7.195
 8429SOL     OW37348   3.128   3.962   6.403
 8429SOL    HW137349   3.127   4.040   6.340
 8429SOL    HW237350   3.171   3.989   6.489
 8430SOL     OW37351   3.248   3.768   5.699
 8430SOL    HW137352   3.328   3.708   5.696
 8430SOL    HW237353   3.174   3.721   5.747
 8431SOL     OW37354   3.461   3.740   7.133
 8431SOL    HW137355   3.487   3.697   7.047
 8431SOL    HW237356   3.411   3.824   7.115
 8432SOL     OW37357   2.563   3.999   6.265
 8432SOL    HW137358   2.552   3.941   6.346
 8432SOL    HW237359   2.648   4.051   6.273
 8433SOL     OW37360   3.143   4.350   6.657
 8433SOL    HW137361   3.197   4.390   6.583
 8433SOL    HW237362   3.181   4.379   6.745
 8434SOL     OW37363   3.436   3.756   5.973
 8434SOL    HW137364   3.443   3.710   5.885
 8434SOL    HW237365   3.340   3.766   5.998
 8435SOL     OW37366   2.412   5.071   7.336
 8435SOL    HW137367   2.373   5.134   7.269
 8435SOL    HW237368   2.495   5.111   7.376
 8436SOL     OW37369   2.288   4.803   7.168
 8436SOL    HW137370   2.307   4.827   7.073
 8436SOL    HW237371   2.281   4.886   7.223
 8437SOL     OW37372   1.949   5.093   6.642
 8437SOL    HW137373   1.918   5.019   6.583
 8437SOL    HW237374   1.881   5.111   6.713
 8438SOL     OW37375   3.035   4.294   6.375
 8438SOL    HW137376   3.117   4.271   6.323
 8438SOL    HW237377   3.030   4.235   6.456
 8439SOL     OW37378   3.635   4.321   7.211
 8439SOL    HW137379   3.624   4.407   7.160
 8439SOL    HW237380   3.729   4.312   7.241
 8440SOL     OW37381   3.206   4.094   6.630
 8440SOL    HW137382   3.180   4.191   6.636
 8440SOL    HW237383   3.206   4.054   6.722
 8441SOL     OW37384   3.436   4.226   7.381
 8441SOL    HW137385   3.516   4.251   7.325
 8441SOL    HW237386   3.467   4.191   7.469
 8442SOL     OW37387   3.147   4.529   5.961
 8442SOL    HW137388   3.093   4.527   6.045
 8442SOL    HW237389   3.224   4.592   5.972
 8443SOL     OW37390   3.444   4.625   6.181
 8443SOL    HW137391   3.458   4.588   6.088
 8443SOL    HW237392   3.355   4.595   6.215
 8444SOL     OW37393   3.600   4.562   7.076
 8444SOL    HW137394   3.502   4.583   7.078
 8444SOL    HW237395   3.649   4.638   7.035
 8445SOL     OW37396   3.454   3.982   5.755
 8445SOL    HW137397   3.459   4.024   5.846
 8445SOL    HW237398   3.387   3.907   5.757
 8446SOL     OW37399   2.601   5.197   6.975
 8446SOL    HW137400   2.538   5.275   6.982
 8446SOL    HW237401   2.569   5.135   6.903
 8447SOL     OW37402   1.992   3.992   7.240
 8447SOL    HW137403   2.010   3.981   7.142
 8447SOL    HW237404   1.894   3.988   7.257
 8448SOL     OW37405   1.872   5.406   7.184
 8448SOL    HW137406   1.944   5.392   7.252
 8448SOL    HW237407   1.783   5.409   7.229
 8449SOL     OW37408   2.040   4.062   6.208
 8449SOL    HW137409   1.983   4.117   6.269
 8449SOL    HW237410   2.110   4.014   6.261
 8450SOL     OW37411   3.212   5.294   7.071
 8450SOL    HW137412   3.165   5.362   7.126
 8450SOL    HW237413   3.279   5.340   7.012
 8451SOL     OW37414   2.177   4.253   5.806
 8451SOL    HW137415   2.249   4.282   5.743
 8451SOL    HW237416   2.133   4.333   5.846
 8452SOL     OW37417   3.563   3.915   6.909
 8452SOL    HW137418   3.519   3.963   6.985
 8452SOL    HW237419   3.541   3.961   6.823
 8453SOL     OW37420   2.292   5.516   6.272
 8453SOL    HW137421   2.216   5.482   6.217
 8453SOL    HW237422   2.378   5.479   6.237
 8454SOL     OW37423   2.217   5.025   6.717
 8454SOL    HW137424   2.229   5.041   6.814
 8454SOL    HW237425   2.130   5.065   6.687
 8455SOL     OW37426   3.101   5.229   7.363
 8455SOL    HW137427   3.060   5.144   7.329
 8455SOL    HW237428   3.081   5.303   7.299
 8456SOL     OW37429   2.591   4.949   6.053
 8456SOL    HW137430   2.634   4.880   5.995
 8456SOL    HW237431   2.555   4.906   6.136
 8457SOL     OW37432   2.223   4.500   6.255
 8457SOL    HW137433   2.215   4.598   6.273
 8457SOL    HW237434   2.307   4.466   6.296
 8458SOL     OW37435   2.069   3.980   5.770
 8458SOL    HW137436   2.113   3.949   5.687
 8458SOL    HW237437   2.070   4.080   5.774
 8459SOL     OW37438   1.922   4.232   6.381
 8459SOL    HW137439   1.886   4.325   6.373
 8459SOL    HW237440   2.005   4.233   6.437
 8460SOL     OW37441   2.357   4.819   5.767
 8460SOL    HW137442   2.457   4.819   5.778
 8460SOL    HW237443   2.326   4.912   5.746
 8461SOL     OW37444   2.983   4.411   5.583
 8461SOL    HW137445   2.914   4.468   5.539
 8461SOL    HW237446   3.064   4.405   5.524
 8462SOL     OW37447   2.718   4.330   5.726
 8462SOL    HW137448   2.808   4.331   5.681
 8462SOL    HW237449   2.695   4.236   5.751
 8463SOL     OW37450   3.169   3.847   6.020
 8463SOL    HW137451   3.079   3.831   6.061
 8463SOL    HW237452   3.177   3.943   5.994
 8464SOL     OW37453   3.283   4.247   7.036
 8464SOL    HW137454   3.235   4.270   7.120
 8464SOL    HW237455   3.217   4.217   6.967
 8465SOL     OW37456   2.191   4.737   6.681
 8465SOL    HW137457   2.202   4.692   6.770
 8465SOL    HW237458   2.218   4.833   6.688
 8466SOL     OW37459   3.490   4.749   5.781
 8466SOL    HW137460   3.561   4.819   5.783
 8466SOL    HW237461   3.477   4.719   5.686
 8467SOL     OW37462   2.472   4.350   6.703
 8467SOL    HW137463   2.547   4.393   6.752
 8467SOL    HW237464   2.405   4.315   6.769
 8468SOL     OW37465   2.615   4.719   7.020
 8468SOL    HW137466   2.684   4.771   6.970
 8468SOL    HW237467   2.610   4.752   7.115
 8469SOL     OW37468   3.007   4.740   7.180
 8469SOL    HW137469   2.929   4.686   7.213
 8469SOL    HW237470   3.088   4.718   7.235
 8470SOL     OW37471   2.936   3.922   6.176
 8470SOL    HW137472   2.995   3.982   6.231
 8470SOL    HW237473   2.863   3.886   6.233
 8471SOL     OW37474   3.046   5.454   7.216
 8471SOL    HW137475   2.951   5.452   7.184
 8471SOL    HW237476   3.067   5.545   7.253
 8472SOL     OW37477   2.464   3.799   6.447
 8472SOL    HW137478   2.392   3.732   6.433
 8472SOL    HW237479   2.546   3.753   6.482
 8473SOL     OW37480   2.164   5.464   6.814
 8473SOL    HW137481   2.144   5.446   6.718
 8473SOL    HW237482   2.091   5.426   6.871
 8474SOL     OW37483   2.857   4.928   6.359
 8474SOL    HW137484   2.896   4.971   6.278
 8474SOL    HW237485   2.930   4.911   6.426
 8475SOL     OW37486   2.551   4.656   6.561
 8475SOL    HW137487   2.549   4.572   6.506
 8475SOL    HW237488   2.500   4.642   6.646
 8476SOL     OW37489   1.890   4.666   6.687
 8476SOL    HW137490   1.979   4.644   6.727
 8476SOL    HW237491   1.835   4.582   6.683
 8477SOL     OW37492   2.118   3.711   5.967
 8477SOL    HW137493   2.156   3.799   5.994
 8477SOL    HW237494   2.041   3.687   6.027
 8478SOL     OW37495   1.940   4.798   5.787
 8478SOL    HW137496   1.930   4.701   5.766
 8478SOL    HW237497   1.993   4.843   5.715
 8479SOL     OW37498   3.637   3.910   6.388
 8479SOL    HW137499   3.592   3.892   6.475
 8479SOL    HW237500   3.735   3.927   6.404
 8480SOL     OW37501   2.685   4.886   6.640
 8480SOL    HW137502   2.636   4.801   6.621
 8480SOL    HW237503   2.755   4.901   6.571
 8481SOL     OW37504   3.023   4.309   5.849
 8481SOL    HW137505   3.075   4.381   5.895
 8481SOL    HW237506   3.036   4.316   5.751
 8482SOL     OW37507   3.384   5.124   7.176
 8482SOL    HW137508   3.369   5.026   7.190
 8482SOL    HW237509   3.301   5.166   7.140
 8483SOL     OW37510   2.141   4.566   6.916
 8483SOL    HW137511   2.105   4.476   6.942
 8483SOL    HW237512   2.102   4.636   6.976
 8484SOL     OW37513   2.643   5.192   5.574
 8484SOL    HW137514   2.618   5.269   5.633
 8484SOL    HW237515   2.707   5.132   5.622
 8485SOL     OW37516   2.461   5.399   6.608
 8485SOL    HW137517   2.481   5.369   6.515
 8485SOL    HW237518   2.386   5.344   6.645
 8486SOL     OW37519   2.604   4.810   6.325
 8486SOL    HW137520   2.693   4.856   6.325
 8486SOL    HW237521   2.597   4.750   6.404
 8487SOL     OW37522   2.782   5.157   5.994
 8487SOL    HW137523   2.832   5.145   5.909
 8487SOL    HW237524   2.728   5.074   6.013
 8488SOL     OW37525   1.972   4.504   6.394
 8488SOL    HW137526   2.067   4.495   6.362
 8488SOL    HW237527   1.938   4.596   6.373
 8489SOL     OW37528   1.909   4.621   7.321
 8489SOL    HW137529   1.824   4.572   7.302
 8489SOL    HW237530   1.936   4.608   7.416
 8490SOL     OW37531   2.806   5.530   7.027
 8490SOL    HW137532   2.778   5.443   7.068
 8490SOL    HW237533   2.750   5.604   7.064
 8491SOL     OW37534   3.035   4.877   6.557
 8491SOL    HW137535   3.019   4.971   6.588
 8491SOL    HW237536   3.038   4.816   6.637
 8492SOL     OW37537   2.309   4.148   7.321
 8492SOL    HW137538   2.345   4.095   7.244
 8492SOL    HW237539   2.370   4.225   7.339
 8493SOL     OW37540   2.373   4.565   5.893
 8493SOL    HW137541   2.323   4.630   5.837
 8493SOL    HW237542   2.315   4.486   5.912
 8494SOL     OW37543   3.454   4.596   6.591
 8494SOL    HW137544   3.473   4.635   6.500
 8494SOL    HW237545   3.408   4.665   6.647
 8495SOL     OW37546   3.146   4.039   6.887
 8495SOL    HW137547   3.217   4.011   6.951
 8495SOL    HW237548   3.093   3.959   6.859
 8496SOL     OW37549   1.847   3.738   6.088
 8496SOL    HW137550   1.760   3.725   6.041
 8496SOL    HW237551   1.855   3.833   6.118
 8497SOL     OW37552   3.068   3.839   7.329
 8497SOL    HW137553   3.127   3.855   7.409
 8497SOL    HW237554   3.015   3.922   7.310
 8498SOL     OW37555   2.284   5.258   7.154
 8498SOL    HW137556   2.226   5.323   7.203
 8498SOL    HW237557   2.346   5.308   7.094
 8499SOL     OW37558   3.640   5.145   7.095
 8499SOL    HW137559   3.668   5.238   7.117
 8499SOL    HW237560   3.547   5.129   7.128
 8500SOL     OW37561   2.890   4.258   6.645
 8500SOL    HW137562   2.976   4.309   6.644
 8500SOL    HW237563   2.896   4.184   6.712
 8501SOL     OW37564   2.294   5.204   6.217
 8501SOL    HW137565   2.292   5.105   6.230
 8501SOL    HW237566   2.203   5.237   6.194
 8502SOL     OW37567   2.935   5.321   6.805
 8502SOL    HW137568   2.861   5.385   6.823
 8502SOL    HW237569   3.014   5.370   6.767
 8503SOL     OW37570   2.144   5.451   7.304
 8503SOL    HW137571   2.187   5.535   7.270
 8503SOL    HW237572   2.169   5.438   7.400
 8504SOL     OW37573   2.004   4.987   7.175
 8504SOL    HW137574   1.983   4.892   7.148
 8504SOL    HW237575   1.935   5.048   7.137
 8505SOL     OW37576   2.093   5.352   6.579
 8505SOL    HW137577   2.035   5.272   6.593
 8505SOL    HW237578   2.117   5.359   6.482
 8506SOL     OW37579   2.839   3.873   6.434
 8506SOL    HW137580   2.935   3.874   6.462
 8506SOL    HW237581   2.784   3.830   6.506
 8507SOL     OW37582   2.901   4.879   5.950
 8507SOL    HW137583   2.981   4.915   5.998
 8507SOL    HW237584   2.859   4.806   6.006
 8508SOL     OW37585   3.492   4.146   6.314
 8508SOL    HW137586   3.511   4.232   6.361
 8508SOL    HW237587   3.560   4.077   6.342
 8509SOL     OW37588   2.635   4.818   5.800
 8509SOL    HW137589   2.707   4.877   5.765
 8509SOL    HW237590   2.675   4.734   5.836
 8510SOL     OW37591   2.706   3.794   5.652
 8510SOL    HW137592   2.781   3.728   5.664
 8510SOL    HW237593   2.737   3.885   5.680
 8511SOL     OW37594   2.385   4.223   6.264
 8511SOL    HW137595   2.423   4.134   6.290
 8511SOL    HW237596   2.452   4.273   6.209
 8512SOL     OW37597   2.373   4.781   6.918
 8512SOL    HW137598   2.469   4.761   6.938
 8512SOL    HW237599   2.362   4.879   6.900
 8513SOL     OW37600   3.595   4.824   6.887
 8513SOL    HW137601   3.609   4.922   6.901
 8513SOL    HW237602   3.652   4.793   6.811
 8514SOL     OW37603   2.078   4.933   5.579
 8514SOL    HW137604   2.070   4.945   5.480
 8514SOL    HW237605   2.137   5.004   5.617
 8515SOL     OW37606   2.505   5.372   5.739
 8515SOL    HW137607   2.480   5.467   5.723
 8515SOL    HW237608   2.472   5.344   5.829
 8516SOL     OW37609   3.155   4.795   6.963
 8516SOL    HW137610   3.099   4.754   7.034
 8516SOL    HW237611   3.135   4.893   6.957
 8517SOL     OW37612   2.422   5.411   6.963
 8517SOL    HW137613   2.471   5.491   6.927
 8517SOL    HW237614   2.330   5.409   6.924
 8518SOL     OW37615   2.065   4.292   7.325
 8518SOL    HW137616   2.082   4.193   7.330
 8518SOL    HW237617   2.129   4.340   7.386
 8519SOL     OW37618   3.504   5.253   6.564
 8519SOL    HW137619   3.476   5.346   6.588
 8519SOL    HW237620   3.554   5.212   6.640
 8520SOL     OW37621   1.900   4.626   6.125
 8520SOL    HW137622   1.907   4.725   6.112
 8520SOL    HW237623   1.809   4.603   6.159
 8521SOL     OW37624   2.409   4.424   7.063
 8521SOL    HW137625   2.315   4.394   7.044
 8521SOL    HW237626   2.418   4.521   7.040
 8522SOL     OW37627   3.476   4.800   6.375
 8522SOL    HW137628   3.438   4.889   6.348
 8522SOL    HW237629   3.476   4.738   6.297
 8523SOL     OW37630   2.634   4.206   6.544
 8523SOL    HW137631   2.726   4.234   6.571
 8523SOL    HW237632   2.566   4.257   6.598
 8524SOL     OW37633   2.487   5.057   6.771
 8524SOL    HW137634   2.400   5.056   6.722
 8524SOL    HW237635   2.553   4.997   6.724
 8525SOL     OW37636   2.053   4.399   6.685
 8525SOL    HW137637   2.091   4.458   6.756
 8525SOL    HW237638   2.036   4.452   6.603
 8526SOL     OW37639   2.224   5.045   6.983
 8526SOL    HW137640   2.243   5.133   7.027
 8526SOL    HW237641   2.129   5.019   7.001
 8527SOL     OW37642   3.467   5.361   7.331
 8527SOL    HW137643   3.436   5.283   7.276
 8527SOL    HW237644   3.436   5.446   7.289
 8528SOL     OW37645   3.175   4.899   6.052
 8528SOL    HW137646   3.274   4.903   6.068
 8528SOL    HW237647   3.158   4.885   5.954
 8529SOL     OW37648   2.528   4.065   6.000
 8529SOL    HW137649   2.430   4.059   5.980
 8529SOL    HW237650   2.547   4.022   6.088
 8530SOL     OW37651   3.448   3.748   6.259
 8530SOL    HW137652   3.443   3.789   6.168
 8530SOL    HW237653   3.529   3.782   6.306
 8531SOL     OW37654   3.051   4.504   6.952
 8531SOL    HW137655   3.150   4.513   6.942
 8531SOL    HW237656   3.007   4.506   6.862
 8532SOL     OW37657   2.545   4.464   6.354
 8532SOL    HW137658   2.567   4.386   6.412
 8532SOL    HW237659   2.554   4.438   6.258
 8533SOL     OW37660   3.210   5.171   6.566
 8533SOL    HW137661   3.124   5.128   6.595
 8533SOL    HW237662   3.199   5.211   6.475
 8534SOL     OW37663   3.213   4.156   6.241
 8534SOL    HW137664   3.212   4.148   6.142
 8534SOL    HW237665   3.302   4.128   6.276
 8535SOL     OW37666   2.940   5.172   8.074
 8535SOL    HW137667   3.031   5.206   8.097
 8535SOL    HW237668   2.912   5.210   7.986
 8536SOL     OW37669   3.451   4.968   7.932
 8536SOL    HW137670   3.462   5.052   7.986
 8536SOL    HW237671   3.541   4.931   7.909
 8537SOL     OW37672   3.531   4.250   8.796
 8537SOL    HW137673   3.433   4.242   8.818
 8537SOL    HW237674   3.584   4.239   8.880
 8538SOL     OW37675   2.198   3.887   7.401
 8538SOL    HW137676   2.111   3.884   7.352
 8538SOL    HW237677   2.249   3.969   7.373
 8539SOL     OW37678   3.185   5.276   8.176
 8539SOL    HW137679   3.174   5.373   8.199
 8539SOL    HW237680   3.278   5.259   8.146
 8540SOL     OW37681   3.063   3.787   8.734
 8540SOL    HW137682   2.987   3.742   8.781
 8540SOL    HW237683   3.092   3.732   8.656
 8541SOL     OW37684   2.801   4.567   9.111
 8541SOL    HW137685   2.766   4.542   9.021
 8541SOL    HW237686   2.725   4.588   9.172
 8542SOL     OW37687   2.408   5.241   7.805
 8542SOL    HW137688   2.364   5.250   7.894
 8542SOL    HW237689   2.479   5.171   7.809
 8543SOL     OW37690   2.426   3.774   7.527
 8543SOL    HW137691   2.514   3.802   7.488
 8543SOL    HW237692   2.354   3.837   7.497
 8544SOL     OW37693   3.396   4.759   8.910
 8544SOL    HW137694   3.304   4.764   8.872
 8544SOL    HW237695   3.461   4.797   8.844
 8545SOL     OW37696   3.296   4.766   8.591
 8545SOL    HW137697   3.221   4.755   8.656
 8545SOL    HW237698   3.333   4.859   8.597
 8546SOL     OW37699   2.335   4.914   8.100
 8546SOL    HW137700   2.268   4.868   8.159
 8546SOL    HW237701   2.427   4.882   8.123
 8547SOL     OW37702   2.562   4.320   7.931
 8547SOL    HW137703   2.601   4.390   7.872
 8547SOL    HW237704   2.536   4.240   7.877
 8548SOL     OW37705   3.182   4.228   9.140
 8548SOL    HW137706   3.278   4.232   9.166
 8548SOL    HW237707   3.138   4.152   9.187
 8549SOL     OW37708   2.265   5.083   7.584
 8549SOL    HW137709   2.329   5.099   7.509
 8549SOL    HW237710   2.289   5.141   7.662
 8550SOL     OW37711   2.416   4.039   8.394
 8550SOL    HW137712   2.492   4.104   8.390
 8550SOL    HW237713   2.446   3.950   8.361
 8551SOL     OW37714   2.113   4.465   7.812
 8551SOL    HW137715   2.128   4.399   7.886
 8551SOL    HW237716   2.063   4.544   7.847
 8552SOL     OW37717   2.699   5.410   7.989
 8552SOL    HW137718   2.764   5.343   7.953
 8552SOL    HW237719   2.689   5.486   7.925
 8553SOL     OW37720   3.591   5.292   7.731
 8553SOL    HW137721   3.687   5.266   7.724
 8553SOL    HW237722   3.567   5.352   7.655
 8554SOL     OW37723   3.503   3.985   8.502
 8554SOL    HW137724   3.554   4.057   8.455
 8554SOL    HW237725   3.408   4.012   8.511
 8555SOL     OW37726   2.903   4.014   7.771
 8555SOL    HW137727   2.928   4.108   7.792
 8555SOL    HW237728   2.904   3.960   7.855
 8556SOL     OW37729   2.027   4.727   8.956
 8556SOL    HW137730   2.123   4.742   8.974
 8556SOL    HW237731   1.989   4.665   9.025
 8557SOL     OW37732   2.353   4.372   7.499
 8557SOL    HW137733   2.313   4.451   7.452
 8557SOL    HW237734   2.442   4.351   7.459
 8558SOL     OW37735   2.526   5.296   8.197
 8558SOL    HW137736   2.599   5.319   8.133
 8558SOL    HW237737   2.455   5.243   8.151
 8559SOL     OW37738   2.868   4.328   8.951
 8559SOL    HW137739   2.901   4.245   8.998
 8559SOL    HW237740   2.941   4.396   8.950
 8560SOL     OW37741   3.472   5.128   8.173
 8560SOL    HW137742   3.468   5.163   8.266
 8560SOL    HW237743   3.531   5.187   8.117
 8561SOL     OW37744   2.203   4.949   7.849
 8561SOL    HW137745   2.249   4.923   7.934
 8561SOL    HW237746   2.223   4.881   7.778
 8562SOL     OW37747   3.061   4.004   7.560
 8562SOL    HW137748   3.155   3.974   7.578
 8562SOL    HW237749   3.009   4.004   7.646
 8563SOL     OW37750   2.213   4.209   8.655
 8563SOL    HW137751   2.203   4.122   8.607
 8563SOL    HW237752   2.149   4.276   8.618
 8564SOL     OW37753   3.295   4.489   8.693
 8564SOL    HW137754   3.299   4.583   8.658
 8564SOL    HW237755   3.388   4.458   8.715
 8565SOL     OW37756   2.248   3.981   7.814
 8565SOL    HW137757   2.202   4.021   7.893
 8565SOL    HW237758   2.196   4.000   7.732
 8566SOL     OW37759   3.376   5.508   8.726
 8566SOL    HW137760   3.319   5.459   8.660
 8566SOL    HW237761   3.462   5.535   8.683
 8567SOL     OW37762   3.671   4.226   8.581
 8567SOL    HW137763   3.728   4.308   8.583
 8567SOL    HW237764   3.612   4.225   8.661
 8568SOL     OW37765   3.688   5.452   8.494
 8568SOL    HW137766   3.734   5.462   8.582
 8568SOL    HW237767   3.755   5.455   8.421
 8569SOL     OW37768   2.801   4.192   8.056
 8569SOL    HW137769   2.877   4.220   8.115
 8569SOL    HW237770   2.757   4.272   8.017
 8570SOL     OW37771   3.036   4.656   7.573
 8570SOL    HW137772   3.073   4.606   7.651
 8570SOL    HW237773   2.966   4.601   7.528
 8571SOL     OW37774   2.878   4.078   9.194
 8571SOL    HW137775   2.941   4.083   9.271
 8571SOL    HW237776   2.786   4.056   9.227
 8572SOL     OW37777   2.913   5.463   7.560
 8572SOL    HW137778   2.947   5.376   7.525
 8572SOL    HW237779   2.881   5.451   7.654
 8573SOL     OW37780   2.594   3.730   9.092
 8573SOL    HW137781   2.601   3.636   9.059
 8573SOL    HW237782   2.651   3.740   9.174
 8574SOL     OW37783   3.517   4.331   8.360
 8574SOL    HW137784   3.502   4.422   8.397
 8574SOL    HW237785   3.587   4.284   8.414
 8575SOL     OW37786   2.927   4.997   9.126
 8575SOL    HW137787   2.949   4.907   9.088
 8575SOL    HW237788   2.862   5.044   9.067
 8576SOL     OW37789   2.582   4.839   9.130
 8576SOL    HW137790   2.553   4.916   9.187
 8576SOL    HW237791   2.592   4.758   9.188
 8577SOL     OW37792   3.217   3.703   8.236
 8577SOL    HW137793   3.166   3.787   8.218
 8577SOL    HW237794   3.303   3.705   8.185
 8578SOL     OW37795   3.572   3.909   9.165
 8578SOL    HW137796   3.549   3.930   9.260
 8578SOL    HW237797   3.548   3.814   9.145
 8579SOL     OW37798   1.875   4.313   7.909
 8579SOL    HW137799   1.877   4.264   7.996
 8579SOL    HW237800   1.877   4.412   7.927
 8580SOL     OW37801   2.196   3.901   8.230
 8580SOL    HW137802   2.248   3.941   8.305
 8580SOL    HW237803   2.249   3.828   8.187
 8581SOL     OW37804   2.180   3.949   8.564
 8581SOL    HW137805   2.145   3.856   8.564
 8581SOL    HW237806   2.267   3.952   8.515
 8582SOL     OW37807   2.847   4.571   8.304
 8582SOL    HW137808   2.873   4.651   8.250
 8582SOL    HW237809   2.841   4.491   8.244
 8583SOL     OW37810   2.048   5.198   7.763
 8583SOL    HW137811   2.075   5.104   7.783
 8583SOL    HW237812   2.073   5.220   7.669
 8584SOL     OW37813   3.330   5.067   8.637
 8584SOL    HW137814   3.301   5.104   8.548
 8584SOL    HW237815   3.252   5.067   8.699
 8585SOL     OW37816   2.062   5.341   8.000
 8585SOL    HW137817   1.978   5.392   8.018
 8585SOL    HW237818   2.053   5.290   7.915
 8586SOL     OW37819   3.583   5.138   8.675
 8586SOL    HW137820   3.614   5.152   8.769
 8586SOL    HW237821   3.484   5.125   8.674
 8587SOL     OW37822   2.335   4.638   7.402
 8587SOL    HW137823   2.304   4.672   7.314
 8587SOL    HW237824   2.339   4.713   7.468
 8588SOL     OW37825   1.939   4.530   7.575
 8588SOL    HW137826   1.999   4.477   7.635
 8588SOL    HW237827   1.845   4.498   7.587
 8589SOL     OW37828   2.707   5.515   8.423
 8589SOL    HW137829   2.753   5.448   8.365
 8589SOL    HW237830   2.633   5.471   8.473
 8590SOL     OW37831   2.614   4.584   7.459
 8590SOL    HW137832   2.643   4.503   7.510
 8590SOL    HW237833   2.514   4.583   7.450
 8591SOL     OW37834   3.210   4.116   7.805
 8591SOL    HW137835   3.147   4.174   7.753
 8591SOL    HW237836   3.303   4.150   7.793
 8592SOL     OW37837   2.107   4.317   8.905
 8592SOL    HW137838   2.127   4.222   8.880
 8592SOL    HW237839   2.070   4.320   8.998
 8593SOL     OW37840   1.989   3.972   8.795
 8593SOL    HW137841   2.061   3.982   8.726
 8593SOL    HW237842   1.900   3.971   8.750
 8594SOL     OW37843   2.762   5.202   8.312
 8594SOL    HW137844   2.820   5.213   8.231
 8594SOL    HW237845   2.668   5.226   8.290
 8595SOL     OW37846   2.712   4.068   7.597
 8595SOL    HW137847   2.621   4.081   7.635
 8595SOL    HW237848   2.772   4.028   7.667
 8596SOL     OW37849   2.823   5.013   7.532
 8596SOL    HW137850   2.876   4.953   7.592
 8596SOL    HW237851   2.862   5.014   7.441
 8597SOL     OW37852   3.574   5.308   8.017
 8597SOL    HW137853   3.541   5.401   8.036
 8597SOL    HW237854   3.572   5.292   7.918
 8598SOL     OW37855   2.989   4.581   8.006
 8598SOL    HW137856   3.054   4.609   8.077
 8598SOL    HW237857   2.910   4.642   8.008
 8599SOL     OW37858   2.737   5.307   9.030
 8599SOL    HW137859   2.725   5.238   8.959
 8599SOL    HW237860   2.700   5.272   9.117
 8600SOL     OW37861   3.181   4.621   8.209
 8600SOL    HW137862   3.202   4.563   8.287
 8600SOL    HW237863   3.190   4.717   8.235
 8601SOL     OW37864   2.137   4.750   8.255
 8601SOL    HW137865   2.060   4.812   8.248
 8601SOL    HW237866   2.174   4.751   8.348
 8602SOL     OW37867   2.770   4.698   7.954
 8602SOL    HW137868   2.757   4.609   7.911
 8602SOL    HW237869   2.701   4.712   8.025
 8603SOL     OW37870   3.074   5.086   8.793
 8603SOL    HW137871   3.107   5.171   8.834
 8603SOL    HW237872   2.975   5.082   8.800
 8604SOL     OW37873   1.881   4.003   7.857
 8604SOL    HW137874   1.941   3.954   7.795
 8604SOL    HW237875   1.936   4.055   7.922
 8605SOL     OW37876   3.504   5.501   7.548
 8605SOL    HW137877   3.594   5.545   7.550
 8605SOL    HW237878   3.503   5.432   7.476
 8606SOL     OW37879   2.668   4.468   8.706
 8606SOL    HW137880   2.670   4.554   8.757
 8606SOL    HW237881   2.725   4.400   8.753
 8607SOL     OW37882   1.905   5.495   8.777
 8607SOL    HW137883   1.913   5.595   8.775
 8607SOL    HW237884   1.881   5.466   8.870
 8608SOL     OW37885   2.686   4.514   7.771
 8608SOL    HW137886   2.597   4.542   7.736
 8608SOL    HW237887   2.727   4.448   7.707
 8609SOL     OW37888   2.208   4.232   8.310
 8609SOL    HW137889   2.264   4.225   8.227
 8609SOL    HW237890   2.265   4.210   8.390
 8610SOL     OW37891   2.205   5.430   7.581
 8610SOL    HW137892   2.297   5.460   7.556
 8610SOL    HW237893   2.180   5.469   7.670
 8611SOL     OW37894   3.181   5.452   8.518
 8611SOL    HW137895   3.200   5.515   8.444
 8611SOL    HW237896   3.189   5.358   8.485
 8612SOL     OW37897   1.886   4.847   8.330
 8612SOL    HW137898   1.796   4.863   8.291
 8612SOL    HW237899   1.884   4.763   8.385
 8613SOL     OW37900   2.637   3.752   7.780
 8613SOL    HW137901   2.598   3.741   7.689
 8613SOL    HW237902   2.593   3.828   7.827
 8614SOL     OW37903   1.882   4.888   7.874
 8614SOL    HW137904   1.960   4.946   7.898
 8614SOL    HW237905   1.901   4.839   7.789
 8615SOL     OW37906   3.412   4.016   8.958
 8615SOL    HW137907   3.351   4.094   8.955
 8615SOL    HW237908   3.467   4.020   9.041
 8616SOL     OW37909   3.128   3.962   8.249
 8616SOL    HW137910   3.127   4.040   8.186
 8616SOL    HW237911   3.171   3.989   8.335
 8617SOL     OW37912   3.248   3.768   7.545
 8617SOL    HW137913   3.328   3.708   7.542
 8617SOL    HW237914   3.174   3.721   7.593
 8618SOL     OW37915   3.461   3.740   8.979
 8618SOL    HW137916   3.487   3.697   8.893
 8618SOL    HW237917   3.411   3.824   8.961
 8619SOL     OW37918   2.563   3.999   8.111
 8619SOL    HW137919   2.552   3.941   8.192
 8619SOL    HW237920   2.648   4.051   8.119
 8620SOL     OW37921   3.143   4.350   8.503
 8620SOL    HW137922   3.197   4.390   8.429
 8620SOL    HW237923   3.181   4.379   8.591
 8621SOL     OW37924   3.436   3.756   7.819
 8621SOL    HW137925   3.443   3.710   7.731
 8621SOL    HW237926   3.340   3.766   7.844
 8622SOL     OW37927   2.412   5.071   9.182
 8622SOL    HW137928   2.373   5.134   9.115
 8622SOL    HW237929   2.495   5.111   9.222
 8623SOL     OW37930   2.288   4.803   9.014
 8623SOL    HW137931   2.307   4.827   8.919
 8623SOL    HW237932   2.281   4.886   9.069
 8624SOL     OW37933   1.949   5.093   8.488
 8624SOL    HW137934   1.918   5.019   8.429
 8624SOL    HW237935   1.881   5.111   8.559
 8625SOL     OW37936   3.035   4.294   8.221
 8625SOL    HW137937   3.117   4.271   8.169
 8625SOL    HW237938   3.030   4.235   8.302
 8626SOL     OW37939   3.635   4.321   9.057
 8626SOL    HW137940   3.624   4.407   9.006
 8626SOL    HW237941   3.729   4.312   9.087
 8627SOL     OW37942   3.206   4.094   8.476
 8627SOL    HW137943   3.180   4.191   8.482
 8627SOL    HW237944   3.206   4.054   8.568
 8628SOL     OW37945   3.436   4.226   9.227
 8628SOL    HW137946   3.516   4.251   9.171
 8628SOL    HW237947   3.467   4.191   9.315
 8629SOL     OW37948   3.147   4.529   7.807
 8629SOL    HW137949   3.093   4.527   7.891
 8629SOL    HW237950   3.224   4.592   7.818
 8630SOL     OW37951   3.444   4.625   8.027
 8630SOL    HW137952   3.458   4.588   7.934
 8630SOL    HW237953   3.355   4.595   8.061
 8631SOL     OW37954   3.600   4.562   8.922
 8631SOL    HW137955   3.502   4.583   8.924
 8631SOL    HW237956   3.649   4.638   8.881
 8632SOL     OW37957   3.454   3.982   7.601
 8632SOL    HW137958   3.459   4.024   7.692
 8632SOL    HW237959   3.387   3.907   7.603
 8633SOL     OW37960   2.601   5.197   8.821
 8633SOL    HW137961   2.538   5.275   8.828
 8633SOL    HW237962   2.569   5.135   8.749
 8634SOL     OW37963   1.992   3.992   9.086
 8634SOL    HW137964   2.010   3.981   8.988
 8634SOL    HW237965   1.894   3.988   9.103
 8635SOL     OW37966   1.872   5.406   9.030
 8635SOL    HW137967   1.944   5.392   9.098
 8635SOL    HW237968   1.783   5.409   9.075
 8636SOL     OW37969   2.040   4.062   8.054
 8636SOL    HW137970   1.983   4.117   8.115
 8636SOL    HW237971   2.110   4.014   8.107
 8637SOL     OW37972   3.212   5.294   8.917
 8637SOL    HW137973   3.165   5.362   8.972
 8637SOL    HW237974   3.279   5.340   8.858
 8638SOL     OW37975   2.177   4.253   7.652
 8638SOL    HW137976   2.249   4.282   7.589
 8638SOL    HW237977   2.133   4.333   7.692
 8639SOL     OW37978   3.563   3.915   8.755
 8639SOL    HW137979   3.519   3.963   8.831
 8639SOL    HW237980   3.541   3.961   8.669
 8640SOL     OW37981   2.292   5.516   8.118
 8640SOL    HW137982   2.216   5.482   8.063
 8640SOL    HW237983   2.378   5.479   8.083
 8641SOL     OW37984   2.217   5.025   8.563
 8641SOL    HW137985   2.229   5.041   8.660
 8641SOL    HW237986   2.130   5.065   8.533
 8642SOL     OW37987   3.101   5.229   9.209
 8642SOL    HW137988   3.060   5.144   9.175
 8642SOL    HW237989   3.081   5.303   9.145
 8643SOL     OW37990   2.591   4.949   7.899
 8643SOL    HW137991   2.634   4.880   7.841
 8643SOL    HW237992   2.555   4.906   7.982
 8644SOL     OW37993   2.223   4.500   8.101
 8644SOL    HW137994   2.215   4.598   8.119
 8644SOL    HW237995   2.307   4.466   8.142
 8645SOL     OW37996   2.069   3.980   7.616
 8645SOL    HW137997   2.113   3.949   7.533
 8645SOL    HW237998   2.070   4.080   7.620
 8646SOL     OW37999   1.922   4.232   8.227
 8646SOL    HW138000   1.886   4.325   8.219
 8646SOL    HW238001   2.005   4.233   8.283
 8647SOL     OW38002   2.357   4.819   7.613
 8647SOL    HW138003   2.457   4.819   7.624
 8647SOL    HW238004   2.326   4.912   7.592
 8648SOL     OW38005   3.169   3.847   7.866
 8648SOL    HW138006   3.079   3.831   7.907
 8648SOL    HW238007   3.177   3.943   7.840
 8649SOL     OW38008   3.283   4.247   8.882
 8649SOL    HW138009   3.235   4.270   8.966
 8649SOL    HW238010   3.217   4.217   8.813
 8650SOL     OW38011   1.918   3.762   7.526
 8650SOL    HW138012   1.981   3.685   7.534
 8650SOL    HW238013   1.938   3.830   7.597
 8651SOL     OW38014   2.191   4.737   8.527
 8651SOL    HW138015   2.202   4.692   8.616
 8651SOL    HW238016   2.218   4.833   8.534
 8652SOL     OW38017   3.490   4.749   7.627
 8652SOL    HW138018   3.561   4.819   7.629
 8652SOL    HW238019   3.477   4.719   7.532
 8653SOL     OW38020   2.472   4.350   8.549
 8653SOL    HW138021   2.547   4.393   8.598
 8653SOL    HW238022   2.405   4.315   8.615
 8654SOL     OW38023   3.007   4.740   9.026
 8654SOL    HW138024   2.929   4.686   9.059
 8654SOL    HW238025   3.088   4.718   9.081
 8655SOL     OW38026   2.936   3.922   8.022
 8655SOL    HW138027   2.995   3.982   8.077
 8655SOL    HW238028   2.863   3.886   8.079
 8656SOL     OW38029   3.046   5.454   9.062
 8656SOL    HW138030   2.951   5.452   9.030
 8656SOL    HW238031   3.067   5.545   9.099
 8657SOL     OW38032   2.464   3.799   8.293
 8657SOL    HW138033   2.392   3.732   8.279
 8657SOL    HW238034   2.546   3.753   8.328
 8658SOL     OW38035   2.164   5.464   8.660
 8658SOL    HW138036   2.144   5.446   8.564
 8658SOL    HW238037   2.091   5.426   8.717
 8659SOL     OW38038   2.857   4.928   8.205
 8659SOL    HW138039   2.896   4.971   8.124
 8659SOL    HW238040   2.930   4.911   8.272
 8660SOL     OW38041   2.551   4.656   8.407
 8660SOL    HW138042   2.549   4.572   8.352
 8660SOL    HW238043   2.500   4.642   8.492
 8661SOL     OW38044   1.890   4.666   8.533
 8661SOL    HW138045   1.979   4.644   8.573
 8661SOL    HW238046   1.835   4.582   8.529
 8662SOL     OW38047   2.118   3.711   7.813
 8662SOL    HW138048   2.156   3.799   7.840
 8662SOL    HW238049   2.041   3.687   7.873
 8663SOL     OW38050   2.534   4.328   9.141
 8663SOL    HW138051   2.486   4.379   9.070
 8663SOL    HW238052   2.627   4.307   9.111
 8664SOL     OW38053   1.940   4.798   7.633
 8664SOL    HW138054   1.930   4.701   7.612
 8664SOL    HW238055   1.993   4.843   7.561
 8665SOL     OW38056   3.637   3.910   8.234
 8665SOL    HW138057   3.592   3.892   8.321
 8665SOL    HW238058   3.735   3.927   8.250
 8666SOL     OW38059   2.685   4.886   8.486
 8666SOL    HW138060   2.636   4.801   8.467
 8666SOL    HW238061   2.755   4.901   8.417
 8667SOL     OW38062   3.384   5.124   9.022
 8667SOL    HW138063   3.369   5.026   9.036
 8667SOL    HW238064   3.301   5.166   8.986
 8668SOL     OW38065   2.141   4.566   8.762
 8668SOL    HW138066   2.105   4.476   8.788
 8668SOL    HW238067   2.102   4.636   8.822
 8669SOL     OW38068   2.643   5.192   7.420
 8669SOL    HW138069   2.618   5.269   7.479
 8669SOL    HW238070   2.707   5.132   7.468
 8670SOL     OW38071   2.461   5.399   8.454
 8670SOL    HW138072   2.481   5.369   8.361
 8670SOL    HW238073   2.386   5.344   8.491
 8671SOL     OW38074   2.604   4.810   8.171
 8671SOL    HW138075   2.693   4.856   8.171
 8671SOL    HW238076   2.597   4.750   8.250
 8672SOL     OW38077   2.782   5.157   7.840
 8672SOL    HW138078   2.832   5.145   7.755
 8672SOL    HW238079   2.728   5.074   7.859
 8673SOL     OW38080   1.972   4.504   8.240
 8673SOL    HW138081   2.067   4.495   8.208
 8673SOL    HW238082   1.938   4.596   8.219
 8674SOL     OW38083   1.909   4.621   9.167
 8674SOL    HW138084   1.824   4.572   9.148
 8674SOL    HW238085   1.936   4.608   9.262
 8675SOL     OW38086   2.806   5.530   8.873
 8675SOL    HW138087   2.778   5.443   8.914
 8675SOL    HW238088   2.750   5.604   8.910
 8676SOL     OW38089   3.035   4.877   8.403
 8676SOL    HW138090   3.019   4.971   8.434
 8676SOL    HW238091   3.038   4.816   8.483
 8677SOL     OW38092   2.309   4.148   9.167
 8677SOL    HW138093   2.345   4.095   9.090
 8677SOL    HW238094   2.370   4.225   9.185
 8678SOL     OW38095   2.373   4.565   7.739
 8678SOL    HW138096   2.323   4.630   7.683
 8678SOL    HW238097   2.315   4.486   7.758
 8679SOL     OW38098   3.454   4.596   8.437
 8679SOL    HW138099   3.473   4.635   8.346
 8679SOL    HW238100   3.408   4.665   8.493
 8680SOL     OW38101   3.146   4.039   8.733
 8680SOL    HW138102   3.217   4.011   8.797
 8680SOL    HW238103   3.093   3.959   8.705
 8681SOL     OW38104   1.847   3.738   7.934
 8681SOL    HW138105   1.760   3.725   7.887
 8681SOL    HW238106   1.855   3.833   7.964
 8682SOL     OW38107   3.068   3.839   9.175
 8682SOL    HW138108   3.127   3.855   9.255
 8682SOL    HW238109   3.015   3.922   9.156
 8683SOL     OW38110   2.284   5.258   9.000
 8683SOL    HW138111   2.226   5.323   9.049
 8683SOL    HW238112   2.346   5.308   8.940
 8684SOL     OW38113   3.640   5.145   8.941
 8684SOL    HW138114   3.668   5.238   8.963
 8684SOL    HW238115   3.547   5.129   8.974
 8685SOL     OW38116   2.890   4.258   8.491
 8685SOL    HW138117   2.976   4.309   8.490
 8685SOL    HW238118   2.896   4.184   8.558
 8686SOL     OW38119   2.294   5.204   8.063
 8686SOL    HW138120   2.292   5.105   8.076
 8686SOL    HW238121   2.203   5.237   8.040
 8687SOL     OW38122   2.935   5.321   8.651
 8687SOL    HW138123   2.861   5.385   8.669
 8687SOL    HW238124   3.014   5.370   8.613
 8688SOL     OW38125   2.144   5.451   9.150
 8688SOL    HW138126   2.187   5.535   9.116
 8688SOL    HW238127   2.169   5.438   9.246
 8689SOL     OW38128   2.004   4.987   9.021
 8689SOL    HW138129   1.983   4.892   8.994
 8689SOL    HW238130   1.935   5.048   8.983
 8690SOL     OW38131   2.093   5.352   8.425
 8690SOL    HW138132   2.035   5.272   8.439
 8690SOL    HW238133   2.117   5.359   8.328
 8691SOL     OW38134   2.839   3.873   8.280
 8691SOL    HW138135   2.935   3.874   8.308
 8691SOL    HW238136   2.784   3.830   8.352
 8692SOL     OW38137   2.901   4.879   7.796
 8692SOL    HW138138   2.981   4.915   7.844
 8692SOL    HW238139   2.859   4.806   7.852
 8693SOL     OW38140   2.635   4.818   7.646
 8693SOL    HW138141   2.707   4.877   7.611
 8693SOL    HW238142   2.675   4.734   7.682
 8694SOL     OW38143   2.706   3.794   7.498
 8694SOL    HW138144   2.781   3.728   7.510
 8694SOL    HW238145   2.737   3.885   7.526
 8695SOL     OW38146   2.385   4.223   8.110
 8695SOL    HW138147   2.423   4.134   8.136
 8695SOL    HW238148   2.452   4.273   8.055
 8696SOL     OW38149   3.595   4.824   8.733
 8696SOL    HW138150   3.609   4.922   8.747
 8696SOL    HW238151   3.652   4.793   8.657
 8697SOL     OW38152   2.078   4.933   7.425
 8697SOL    HW138153   2.070   4.945   7.326
 8697SOL    HW238154   2.137   5.004   7.463
 8698SOL     OW38155   2.505   5.372   7.585
 8698SOL    HW138156   2.480   5.467   7.569
 8698SOL    HW238157   2.472   5.344   7.675
 8699SOL     OW38158   3.155   4.795   8.809
 8699SOL    HW138159   3.099   4.754   8.880
 8699SOL    HW238160   3.135   4.893   8.803
 8700SOL     OW38161   2.422   5.411   8.809
 8700SOL    HW138162   2.471   5.491   8.773
 8700SOL    HW238163   2.330   5.409   8.770
 8701SOL     OW38164   2.065   4.292   9.171
 8701SOL    HW138165   2.082   4.193   9.176
 8701SOL    HW238166   2.129   4.340   9.232
 8702SOL     OW38167   3.504   5.253   8.410
 8702SOL    HW138168   3.476   5.346   8.434
 8702SOL    HW238169   3.554   5.212   8.486
 8703SOL     OW38170   1.900   4.626   7.971
 8703SOL    HW138171   1.907   4.725   7.958
 8703SOL    HW238172   1.809   4.603   8.005
 8704SOL     OW38173   2.409   4.424   8.909
 8704SOL    HW138174   2.315   4.394   8.890
 8704SOL    HW238175   2.418   4.521   8.886
 8705SOL     OW38176   3.476   4.800   8.221
 8705SOL    HW138177   3.438   4.889   8.194
 8705SOL    HW238178   3.476   4.738   8.143
 8706SOL     OW38179   2.634   4.206   8.390
 8706SOL    HW138180   2.726   4.234   8.417
 8706SOL    HW238181   2.566   4.257   8.444
 8707SOL     OW38182   2.487   5.057   8.617
 8707SOL    HW138183   2.400   5.056   8.568
 8707SOL    HW238184   2.553   4.997   8.570
 8708SOL     OW38185   2.053   4.399   8.531
 8708SOL    HW138186   2.091   4.458   8.602
 8708SOL    HW238187   2.036   4.452   8.449
 8709SOL     OW38188   2.224   5.045   8.829
 8709SOL    HW138189   2.243   5.133   8.873
 8709SOL    HW238190   2.129   5.019   8.847
 8710SOL     OW38191   3.467   5.361   9.177
 8710SOL    HW138192   3.436   5.283   9.122
 8710SOL    HW238193   3.436   5.446   9.135
 8711SOL     OW38194   3.175   4.899   7.898
 8711SOL    HW138195   3.274   4.903   7.914
 8711SOL    HW238196   3.158   4.885   7.800
 8712SOL     OW38197   2.528   4.065   7.846
 8712SOL    HW138198   2.430   4.059   7.826
 8712SOL    HW238199   2.547   4.022   7.934
 8713SOL     OW38200   3.448   3.748   8.105
 8713SOL    HW138201   3.443   3.789   8.014
 8713SOL    HW238202   3.529   3.782   8.152
 8714SOL     OW38203   3.051   4.504   8.798
 8714SOL    HW138204   3.150   4.513   8.788
 8714SOL    HW238205   3.007   4.506   8.708
 8715SOL     OW38206   2.545   4.464   8.200
 8715SOL    HW138207   2.567   4.386   8.258
 8715SOL    HW238208   2.554   4.438   8.104
 8716SOL     OW38209   3.210   5.171   8.412
 8716SOL    HW138210   3.124   5.128   8.441
 8716SOL    HW238211   3.199   5.211   8.321
 8717SOL     OW38212   3.213   4.156   8.087
 8717SOL    HW138213   3.212   4.148   7.988
 8717SOL    HW238214   3.302   4.128   8.122
 8718SOL     OW38215   2.940   5.172   9.919
 8718SOL    HW138216   3.031   5.206   9.942
 8718SOL    HW238217   2.912   5.210   9.831
 8719SOL     OW38218   3.451   4.968   9.777
 8719SOL    HW138219   3.462   5.052   9.831
 8719SOL    HW238220   3.541   4.931   9.754
 8720SOL     OW38221   2.198   3.887   9.246
 8720SOL    HW138222   2.111   3.884   9.197
 8720SOL    HW238223   2.249   3.969   9.218
 8721SOL     OW38224   2.408   5.241   9.650
 8721SOL    HW138225   2.364   5.250   9.739
 8721SOL    HW238226   2.479   5.171   9.654
 8722SOL     OW38227   2.426   3.774   9.372
 8722SOL    HW138228   2.514   3.802   9.333
 8722SOL    HW238229   2.354   3.837   9.342
 8723SOL     OW38230   2.335   4.914   9.945
 8723SOL    HW138231   2.268   4.868  10.004
 8723SOL    HW238232   2.427   4.882   9.968
 8724SOL     OW38233   2.562   4.320   9.776
 8724SOL    HW138234   2.601   4.390   9.717
 8724SOL    HW238235   2.536   4.240   9.722
 8725SOL     OW38236   2.265   5.083   9.429
 8725SOL    HW138237   2.329   5.099   9.354
 8725SOL    HW238238   2.289   5.141   9.507
 8726SOL     OW38239   2.113   4.465   9.657
 8726SOL    HW138240   2.128   4.399   9.731
 8726SOL    HW238241   2.063   4.544   9.692
 8727SOL     OW38242   2.699   5.410   9.834
 8727SOL    HW138243   2.764   5.343   9.798
 8727SOL    HW238244   2.689   5.486   9.770
 8728SOL     OW38245   3.591   5.292   9.576
 8728SOL    HW138246   3.687   5.266   9.569
 8728SOL    HW238247   3.567   5.352   9.500
 8729SOL     OW38248   2.903   4.014   9.616
 8729SOL    HW138249   2.928   4.108   9.637
 8729SOL    HW238250   2.904   3.960   9.700
 8730SOL     OW38251   2.353   4.372   9.344
 8730SOL    HW138252   2.313   4.451   9.297
 8730SOL    HW238253   2.442   4.351   9.304
 8731SOL     OW38254   3.472   5.128  10.018
 8731SOL    HW138255   3.468   5.163  10.111
 8731SOL    HW238256   3.531   5.187   9.962
 8732SOL     OW38257   2.203   4.949   9.694
 8732SOL    HW138258   2.249   4.923   9.779
 8732SOL    HW238259   2.223   4.881   9.623
 8733SOL     OW38260   3.061   4.004   9.405
 8733SOL    HW138261   3.155   3.974   9.423
 8733SOL    HW238262   3.009   4.004   9.491
 8734SOL     OW38263   2.248   3.981   9.659
 8734SOL    HW138264   2.202   4.021   9.738
 8734SOL    HW238265   2.196   4.000   9.577
 8735SOL     OW38266   3.688   5.452  10.339
 8735SOL    HW138267   3.734   5.462  10.427
 8735SOL    HW238268   3.755   5.455  10.266
 8736SOL     OW38269   2.801   4.192   9.901
 8736SOL    HW138270   2.877   4.220   9.960
 8736SOL    HW238271   2.757   4.272   9.862
 8737SOL     OW38272   3.036   4.656   9.418
 8737SOL    HW138273   3.073   4.606   9.496
 8737SOL    HW238274   2.966   4.601   9.373
 8738SOL     OW38275   3.619   4.325   9.497
 8738SOL    HW138276   3.640   4.244   9.443
 8738SOL    HW238277   3.636   4.306   9.594
 8739SOL     OW38278   2.913   5.463   9.405
 8739SOL    HW138279   2.947   5.376   9.370
 8739SOL    HW238280   2.881   5.451   9.499
 8740SOL     OW38281   1.875   4.313   9.754
 8740SOL    HW138282   1.877   4.264   9.841
 8740SOL    HW238283   1.877   4.412   9.772
 8741SOL     OW38284   2.048   5.198   9.608
 8741SOL    HW138285   2.075   5.104   9.628
 8741SOL    HW238286   2.073   5.220   9.514
 8742SOL     OW38287   2.062   5.341   9.845
 8742SOL    HW138288   1.978   5.392   9.863
 8742SOL    HW238289   2.053   5.290   9.760
 8743SOL     OW38290   2.335   4.638   9.247
 8743SOL    HW138291   2.304   4.672   9.159
 8743SOL    HW238292   2.339   4.713   9.313
 8744SOL     OW38293   1.939   4.530   9.420
 8744SOL    HW138294   1.999   4.477   9.480
 8744SOL    HW238295   1.845   4.498   9.432
 8745SOL     OW38296   3.459   4.528   9.620
 8745SOL    HW138297   3.527   4.462   9.587
 8745SOL    HW238298   3.474   4.616   9.576
 8746SOL     OW38299   2.614   4.584   9.304
 8746SOL    HW138300   2.643   4.503   9.355
 8746SOL    HW238301   2.514   4.583   9.295
 8747SOL     OW38302   3.210   4.116   9.650
 8747SOL    HW138303   3.147   4.174   9.598
 8747SOL    HW238304   3.303   4.150   9.638
 8748SOL     OW38305   3.478   4.127   9.720
 8748SOL    HW138306   3.574   4.098   9.717
 8748SOL    HW238307   3.439   4.105   9.809
 8749SOL     OW38308   2.712   4.068   9.442
 8749SOL    HW138309   2.621   4.081   9.480
 8749SOL    HW238310   2.772   4.028   9.512
 8750SOL     OW38311   2.823   5.013   9.377
 8750SOL    HW138312   2.876   4.953   9.437
 8750SOL    HW238313   2.862   5.014   9.286
 8751SOL     OW38314   3.574   5.308   9.862
 8751SOL    HW138315   3.541   5.401   9.881
 8751SOL    HW238316   3.572   5.292   9.763
 8752SOL     OW38317   2.989   4.581   9.851
 8752SOL    HW138318   3.054   4.609   9.922
 8752SOL    HW238319   2.910   4.642   9.853
 8753SOL     OW38320   3.181   4.621  10.054
 8753SOL    HW138321   3.202   4.563  10.132
 8753SOL    HW238322   3.190   4.717  10.080
 8754SOL     OW38323   2.770   4.698   9.799
 8754SOL    HW138324   2.757   4.609   9.756
 8754SOL    HW238325   2.701   4.712   9.870
 8755SOL     OW38326   1.881   4.003   9.702
 8755SOL    HW138327   1.941   3.954   9.640
 8755SOL    HW238328   1.936   4.055   9.767
 8756SOL     OW38329   3.504   5.501   9.393
 8756SOL    HW138330   3.594   5.545   9.395
 8756SOL    HW238331   3.503   5.432   9.321
 8757SOL     OW38332   2.686   4.514   9.616
 8757SOL    HW138333   2.597   4.542   9.581
 8757SOL    HW238334   2.727   4.448   9.552
 8758SOL     OW38335   2.205   5.430   9.426
 8758SOL    HW138336   2.297   5.460   9.401
 8758SOL    HW238337   2.180   5.469   9.515
 8759SOL     OW38338   2.637   3.752   9.625
 8759SOL    HW138339   2.598   3.741   9.534
 8759SOL    HW238340   2.593   3.828   9.672
 8760SOL     OW38341   1.882   4.888   9.719
 8760SOL    HW138342   1.960   4.946   9.743
 8760SOL    HW238343   1.901   4.839   9.634
 8761SOL     OW38344   3.248   3.768   9.390
 8761SOL    HW138345   3.328   3.708   9.387
 8761SOL    HW238346   3.174   3.721   9.438
 8762SOL     OW38347   2.563   3.999   9.956
 8762SOL    HW138348   2.552   3.941  10.037
 8762SOL    HW238349   2.648   4.051   9.964
 8763SOL     OW38350   3.436   3.756   9.664
 8763SOL    HW138351   3.443   3.710   9.576
 8763SOL    HW238352   3.340   3.766   9.689
 8764SOL     OW38353   3.147   4.529   9.652
 8764SOL    HW138354   3.093   4.527   9.736
 8764SOL    HW238355   3.224   4.592   9.663
 8765SOL     OW38356   3.444   4.625   9.872
 8765SOL    HW138357   3.458   4.588   9.779
 8765SOL    HW238358   3.355   4.595   9.906
 8766SOL     OW38359   3.454   3.982   9.446
 8766SOL    HW138360   3.459   4.024   9.537
 8766SOL    HW238361   3.387   3.907   9.448
 8767SOL     OW38362   2.177   4.253   9.497
 8767SOL    HW138363   2.249   4.282   9.434
 8767SOL    HW238364   2.133   4.333   9.537
 8768SOL     OW38365   2.292   5.516   9.963
 8768SOL    HW138366   2.216   5.482   9.908
 8768SOL    HW238367   2.378   5.479   9.928
 8769SOL     OW38368   2.591   4.949   9.744
 8769SOL    HW138369   2.634   4.880   9.686
 8769SOL    HW238370   2.555   4.906   9.827
 8770SOL     OW38371   2.069   3.980   9.461
 8770SOL    HW138372   2.113   3.949   9.378
 8770SOL    HW238373   2.070   4.080   9.465
 8771SOL     OW38374   1.922   4.232  10.072
 8771SOL    HW138375   1.886   4.325  10.064
 8771SOL    HW238376   2.005   4.233  10.128
 8772SOL     OW38377   2.357   4.819   9.458
 8772SOL    HW138378   2.457   4.819   9.469
 8772SOL    HW238379   2.326   4.912   9.437
 8773SOL     OW38380   2.983   4.411   9.274
 8773SOL    HW138381   2.914   4.468   9.230
 8773SOL    HW238382   3.064   4.405   9.215
 8774SOL     OW38383   2.718   4.330   9.417
 8774SOL    HW138384   2.808   4.331   9.372
 8774SOL    HW238385   2.695   4.236   9.442
 8775SOL     OW38386   3.169   3.847   9.711
 8775SOL    HW138387   3.079   3.831   9.752
 8775SOL    HW238388   3.177   3.943   9.685
 8776SOL     OW38389   1.918   3.762   9.371
 8776SOL    HW138390   1.981   3.685   9.379
 8776SOL    HW238391   1.938   3.830   9.442
 8777SOL     OW38392   3.490   4.749   9.472
 8777SOL    HW138393   3.561   4.819   9.474
 8777SOL    HW238394   3.477   4.719   9.377
 8778SOL     OW38395   2.936   3.922   9.867
 8778SOL    HW138396   2.995   3.982   9.922
 8778SOL    HW238397   2.863   3.886   9.924
 8779SOL     OW38398   2.118   3.711   9.658
 8779SOL    HW138399   2.156   3.799   9.685
 8779SOL    HW238400   2.041   3.687   9.718
 8780SOL     OW38401   1.940   4.798   9.478
 8780SOL    HW138402   1.930   4.701   9.457
 8780SOL    HW238403   1.993   4.843   9.406
 8781SOL     OW38404   3.637   3.910  10.079
 8781SOL    HW138405   3.592   3.892  10.166
 8781SOL    HW238406   3.735   3.927  10.095
 8782SOL     OW38407   3.023   4.309   9.540
 8782SOL    HW138408   3.075   4.381   9.586
 8782SOL    HW238409   3.036   4.316   9.442
 8783SOL     OW38410   2.643   5.192   9.265
 8783SOL    HW138411   2.618   5.269   9.324
 8783SOL    HW238412   2.707   5.132   9.313
 8784SOL     OW38413   2.604   4.810  10.016
 8784SOL    HW138414   2.693   4.856  10.016
 8784SOL    HW238415   2.597   4.750  10.095
 8785SOL     OW38416   2.782   5.157   9.685
 8785SOL    HW138417   2.832   5.145   9.600
 8785SOL    HW238418   2.728   5.074   9.704
 8786SOL     OW38419   2.373   4.565   9.584
 8786SOL    HW138420   2.323   4.630   9.528
 8786SOL    HW238421   2.315   4.486   9.603
 8787SOL     OW38422   1.847   3.738   9.779
 8787SOL    HW138423   1.760   3.725   9.732
 8787SOL    HW238424   1.855   3.833   9.809
 8788SOL     OW38425   2.294   5.204   9.908
 8788SOL    HW138426   2.292   5.105   9.921
 8788SOL    HW238427   2.203   5.237   9.885
 8789SOL     OW38428   2.901   4.879   9.641
 8789SOL    HW138429   2.981   4.915   9.689
 8789SOL    HW238430   2.859   4.806   9.697
 8790SOL     OW38431   3.492   4.146  10.005
 8790SOL    HW138432   3.511   4.232  10.052
 8790SOL    HW238433   3.560   4.077  10.033
 8791SOL     OW38434   2.635   4.818   9.491
 8791SOL    HW138435   2.707   4.877   9.456
 8791SOL    HW238436   2.675   4.734   9.527
 8792SOL     OW38437   2.706   3.794   9.343
 8792SOL    HW138438   2.781   3.728   9.355
 8792SOL    HW238439   2.737   3.885   9.371
 8793SOL     OW38440   2.385   4.223   9.955
 8793SOL    HW138441   2.423   4.134   9.981
 8793SOL    HW238442   2.452   4.273   9.900
 8794SOL     OW38443   2.078   4.933   9.270
 8794SOL    HW138444   2.070   4.945   9.171
 8794SOL    HW238445   2.137   5.004   9.308
 8795SOL     OW38446   2.505   5.372   9.430
 8795SOL    HW138447   2.480   5.467   9.414
 8795SOL    HW238448   2.472   5.344   9.520
 8796SOL     OW38449   1.900   4.626   9.816
 8796SOL    HW138450   1.907   4.725   9.803
 8796SOL    HW238451   1.809   4.603   9.850
 8797SOL     OW38452   3.175   4.899   9.743
 8797SOL    HW138453   3.274   4.903   9.759
 8797SOL    HW238454   3.158   4.885   9.645
 8798SOL     OW38455   2.528   4.065   9.691
 8798SOL    HW138456   2.430   4.059   9.671
 8798SOL    HW238457   2.547   4.022   9.779
 8799SOL     OW38458   3.448   3.748   9.950
 8799SOL    HW138459   3.443   3.789   9.859
 8799SOL    HW238460   3.529   3.782   9.997
 8800SOL     OW38461   3.213   4.156   9.932
 8800SOL    HW138462   3.212   4.148   9.833
 8800SOL    HW238463   3.302   4.128   9.967
 8801SOL     OW38464   2.940   7.017   0.692
 8801SOL    HW138465   3.031   7.051   0.715
 8801SOL    HW238466   2.912   7.055   0.604
 8802SOL     OW38467   3.451   6.813   0.550
 8802SOL    HW138468   3.462   6.897   0.604
 8802SOL    HW238469   3.541   6.776   0.527
 8803SOL     OW38470   3.531   6.095   1.414
 8803SOL    HW138471   3.433   6.087   1.436
 8803SOL    HW238472   3.584   6.084   1.498
 8804SOL     OW38473   2.198   5.732   0.019
 8804SOL    HW138474   2.111   5.729  -0.030
 8804SOL    HW238475   2.249   5.814  -0.009
 8805SOL     OW38476   3.185   7.121   0.794
 8805SOL    HW138477   3.174   7.218   0.817
 8805SOL    HW238478   3.278   7.104   0.764
 8806SOL     OW38479   3.063   5.632   1.352
 8806SOL    HW138480   2.987   5.587   1.399
 8806SOL    HW238481   3.092   5.577   1.274
 8807SOL     OW38482   2.801   6.412   1.729
 8807SOL    HW138483   2.766   6.387   1.639
 8807SOL    HW238484   2.725   6.433   1.790
 8808SOL     OW38485   2.408   7.086   0.423
 8808SOL    HW138486   2.364   7.095   0.512
 8808SOL    HW238487   2.479   7.016   0.427
 8809SOL     OW38488   2.426   5.619   0.145
 8809SOL    HW138489   2.514   5.647   0.106
 8809SOL    HW238490   2.354   5.682   0.115
 8810SOL     OW38491   3.396   6.604   1.528
 8810SOL    HW138492   3.304   6.609   1.490
 8810SOL    HW238493   3.461   6.642   1.462
 8811SOL     OW38494   3.296   6.611   1.209
 8811SOL    HW138495   3.221   6.600   1.274
 8811SOL    HW238496   3.333   6.704   1.215
 8812SOL     OW38497   2.792   6.866   1.509
 8812SOL    HW138498   2.735   6.929   1.455
 8812SOL    HW238499   2.825   6.792   1.450
 8813SOL     OW38500   2.335   6.759   0.718
 8813SOL    HW138501   2.268   6.713   0.777
 8813SOL    HW238502   2.427   6.727   0.741
 8814SOL     OW38503   2.562   6.165   0.549
 8814SOL    HW138504   2.601   6.235   0.490
 8814SOL    HW238505   2.536   6.085   0.495
 8815SOL     OW38506   3.182   6.073   1.758
 8815SOL    HW138507   3.278   6.077   1.784
 8815SOL    HW238508   3.138   5.997   1.805
 8816SOL     OW38509   2.265   6.928   0.202
 8816SOL    HW138510   2.329   6.944   0.127
 8816SOL    HW238511   2.289   6.986   0.280
 8817SOL     OW38512   2.416   5.884   1.012
 8817SOL    HW138513   2.492   5.949   1.008
 8817SOL    HW238514   2.446   5.795   0.979
 8818SOL     OW38515   2.113   6.310   0.430
 8818SOL    HW138516   2.128   6.244   0.504
 8818SOL    HW238517   2.063   6.389   0.465
 8819SOL     OW38518   2.699   7.255   0.607
 8819SOL    HW138519   2.764   7.188   0.571
 8819SOL    HW238520   2.689   7.331   0.543
 8820SOL     OW38521   3.591   7.137   0.349
 8820SOL    HW138522   3.687   7.111   0.342
 8820SOL    HW238523   3.567   7.197   0.273
 8821SOL     OW38524   3.503   5.830   1.120
 8821SOL    HW138525   3.554   5.902   1.073
 8821SOL    HW238526   3.408   5.857   1.129
 8822SOL     OW38527   2.903   5.859   0.389
 8822SOL    HW138528   2.928   5.953   0.410
 8822SOL    HW238529   2.904   5.805   0.473
 8823SOL     OW38530   2.027   6.572   1.574
 8823SOL    HW138531   2.123   6.587   1.592
 8823SOL    HW238532   1.989   6.510   1.643
 8824SOL     OW38533   2.353   6.217   0.117
 8824SOL    HW138534   2.313   6.296   0.070
 8824SOL    HW238535   2.442   6.196   0.077
 8825SOL     OW38536   2.526   7.141   0.815
 8825SOL    HW138537   2.599   7.164   0.751
 8825SOL    HW238538   2.455   7.088   0.769
 8826SOL     OW38539   2.868   6.173   1.569
 8826SOL    HW138540   2.901   6.090   1.616
 8826SOL    HW238541   2.941   6.241   1.568
 8827SOL     OW38542   3.472   6.973   0.791
 8827SOL    HW138543   3.468   7.008   0.884
 8827SOL    HW238544   3.531   7.032   0.735
 8828SOL     OW38545   2.203   6.794   0.467
 8828SOL    HW138546   2.249   6.768   0.552
 8828SOL    HW238547   2.223   6.726   0.396
 8829SOL     OW38548   3.061   5.849   0.178
 8829SOL    HW138549   3.155   5.819   0.196
 8829SOL    HW238550   3.009   5.849   0.264
 8830SOL     OW38551   2.213   6.054   1.273
 8830SOL    HW138552   2.203   5.967   1.225
 8830SOL    HW238553   2.149   6.121   1.236
 8831SOL     OW38554   2.248   5.826   0.432
 8831SOL    HW138555   2.202   5.866   0.511
 8831SOL    HW238556   2.196   5.845   0.350
 8832SOL     OW38557   3.376   7.353   1.344
 8832SOL    HW138558   3.319   7.304   1.278
 8832SOL    HW238559   3.462   7.380   1.301
 8833SOL     OW38560   3.671   6.071   1.199
 8833SOL    HW138561   3.728   6.153   1.201
 8833SOL    HW238562   3.612   6.070   1.279
 8834SOL     OW38563   3.688   7.297   1.112
 8834SOL    HW138564   3.734   7.307   1.200
 8834SOL    HW238565   3.755   7.300   1.039
 8835SOL     OW38566   2.801   6.037   0.674
 8835SOL    HW138567   2.877   6.065   0.733
 8835SOL    HW238568   2.757   6.117   0.635
 8836SOL     OW38569   3.036   6.501   0.191
 8836SOL    HW138570   3.073   6.451   0.269
 8836SOL    HW238571   2.966   6.446   0.146
 8837SOL     OW38572   2.878   5.923   1.812
 8837SOL    HW138573   2.941   5.928   1.889
 8837SOL    HW238574   2.786   5.901   1.845
 8838SOL     OW38575   3.619   6.170   0.270
 8838SOL    HW138576   3.640   6.089   0.216
 8838SOL    HW238577   3.636   6.151   0.367
 8839SOL     OW38578   2.913   7.308   0.178
 8839SOL    HW138579   2.947   7.221   0.143
 8839SOL    HW238580   2.881   7.296   0.272
 8840SOL     OW38581   2.594   5.575   1.710
 8840SOL    HW138582   2.601   5.481   1.677
 8840SOL    HW238583   2.651   5.585   1.792
 8841SOL     OW38584   2.927   6.842   1.744
 8841SOL    HW138585   2.949   6.752   1.706
 8841SOL    HW238586   2.862   6.889   1.685
 8842SOL     OW38587   2.582   6.684   1.748
 8842SOL    HW138588   2.553   6.761   1.805
 8842SOL    HW238589   2.592   6.603   1.806
 8843SOL     OW38590   3.572   5.754   1.783
 8843SOL    HW138591   3.549   5.775   1.878
 8843SOL    HW238592   3.548   5.659   1.763
 8844SOL     OW38593   1.875   6.158   0.527
 8844SOL    HW138594   1.877   6.109   0.614
 8844SOL    HW238595   1.877   6.257   0.545
 8845SOL     OW38596   2.196   5.746   0.848
 8845SOL    HW138597   2.248   5.786   0.923
 8845SOL    HW238598   2.249   5.673   0.805
 8846SOL     OW38599   2.180   5.794   1.182
 8846SOL    HW138600   2.145   5.701   1.182
 8846SOL    HW238601   2.267   5.797   1.133
 8847SOL     OW38602   2.847   6.416   0.922
 8847SOL    HW138603   2.873   6.496   0.868
 8847SOL    HW238604   2.841   6.336   0.862
 8848SOL     OW38605   2.048   7.043   0.381
 8848SOL    HW138606   2.075   6.949   0.401
 8848SOL    HW238607   2.073   7.065   0.287
 8849SOL     OW38608   3.330   6.912   1.255
 8849SOL    HW138609   3.301   6.949   1.166
 8849SOL    HW238610   3.252   6.912   1.317
 8850SOL     OW38611   2.062   7.186   0.618
 8850SOL    HW138612   1.978   7.237   0.636
 8850SOL    HW238613   2.053   7.135   0.533
 8851SOL     OW38614   3.583   6.983   1.293
 8851SOL    HW138615   3.614   6.997   1.387
 8851SOL    HW238616   3.484   6.970   1.292
 8852SOL     OW38617   2.335   6.483   0.020
 8852SOL    HW138618   2.304   6.517  -0.068
 8852SOL    HW238619   2.339   6.558   0.086
 8853SOL     OW38620   2.852   6.670   1.319
 8853SOL    HW138621   2.902   6.585   1.303
 8853SOL    HW238622   2.806   6.697   1.234
 8854SOL     OW38623   1.939   6.375   0.193
 8854SOL    HW138624   1.999   6.322   0.253
 8854SOL    HW238625   1.845   6.343   0.205
 8855SOL     OW38626   3.459   6.373   0.393
 8855SOL    HW138627   3.527   6.307   0.360
 8855SOL    HW238628   3.474   6.461   0.349
 8856SOL     OW38629   2.707   7.360   1.041
 8856SOL    HW138630   2.753   7.293   0.983
 8856SOL    HW238631   2.633   7.316   1.091
 8857SOL     OW38632   2.614   6.429   0.077
 8857SOL    HW138633   2.643   6.348   0.128
 8857SOL    HW238634   2.514   6.428   0.068
 8858SOL     OW38635   3.210   5.961   0.423
 8858SOL    HW138636   3.147   6.019   0.371
 8858SOL    HW238637   3.303   5.995   0.411
 8859SOL     OW38638   2.107   6.162   1.523
 8859SOL    HW138639   2.127   6.067   1.498
 8859SOL    HW238640   2.070   6.165   1.616
 8860SOL     OW38641   1.989   5.817   1.413
 8860SOL    HW138642   2.061   5.827   1.344
 8860SOL    HW238643   1.900   5.816   1.368
 8861SOL     OW38644   2.887   6.438   1.178
 8861SOL    HW138645   2.881   6.424   1.079
 8861SOL    HW238646   2.806   6.399   1.222
 8862SOL     OW38647   3.478   5.972   0.493
 8862SOL    HW138648   3.574   5.943   0.490
 8862SOL    HW238649   3.439   5.950   0.582
 8863SOL     OW38650   2.762   7.047   0.930
 8863SOL    HW138651   2.820   7.058   0.849
 8863SOL    HW238652   2.668   7.071   0.908
 8864SOL     OW38653   2.712   5.913   0.215
 8864SOL    HW138654   2.621   5.926   0.253
 8864SOL    HW238655   2.772   5.873   0.285
 8865SOL     OW38656   2.823   6.858   0.150
 8865SOL    HW138657   2.876   6.798   0.210
 8865SOL    HW238658   2.862   6.859   0.059
 8866SOL     OW38659   3.574   7.153   0.635
 8866SOL    HW138660   3.541   7.246   0.654
 8866SOL    HW238661   3.572   7.137   0.536
 8867SOL     OW38662   2.989   6.426   0.624
 8867SOL    HW138663   3.054   6.454   0.695
 8867SOL    HW238664   2.910   6.487   0.626
 8868SOL     OW38665   2.737   7.152   1.648
 8868SOL    HW138666   2.725   7.083   1.577
 8868SOL    HW238667   2.700   7.117   1.735
 8869SOL     OW38668   3.181   6.466   0.827
 8869SOL    HW138669   3.202   6.408   0.905
 8869SOL    HW238670   3.190   6.562   0.853
 8870SOL     OW38671   2.137   6.595   0.873
 8870SOL    HW138672   2.060   6.657   0.866
 8870SOL    HW238673   2.174   6.596   0.966
 8871SOL     OW38674   2.770   6.543   0.572
 8871SOL    HW138675   2.757   6.454   0.529
 8871SOL    HW238676   2.701   6.557   0.643
 8872SOL     OW38677   3.074   6.931   1.411
 8872SOL    HW138678   3.107   7.016   1.452
 8872SOL    HW238679   2.975   6.927   1.418
 8873SOL     OW38680   1.881   5.848   0.475
 8873SOL    HW138681   1.941   5.799   0.413
 8873SOL    HW238682   1.936   5.900   0.540
 8874SOL     OW38683   3.504   7.346   0.166
 8874SOL    HW138684   3.594   7.390   0.168
 8874SOL    HW238685   3.503   7.277   0.094
 8875SOL     OW38686   2.668   6.313   1.324
 8875SOL    HW138687   2.670   6.399   1.375
 8875SOL    HW238688   2.725   6.245   1.371
 8876SOL     OW38689   2.686   6.359   0.389
 8876SOL    HW138690   2.597   6.387   0.354
 8876SOL    HW238691   2.727   6.293   0.325
 8877SOL     OW38692   2.208   6.077   0.928
 8877SOL    HW138693   2.264   6.070   0.845
 8877SOL    HW238694   2.265   6.055   1.008
 8878SOL     OW38695   2.205   7.275   0.199
 8878SOL    HW138696   2.297   7.305   0.174
 8878SOL    HW238697   2.180   7.314   0.288
 8879SOL     OW38698   3.181   7.297   1.136
 8879SOL    HW138699   3.200   7.360   1.062
 8879SOL    HW238700   3.189   7.203   1.103
 8880SOL     OW38701   1.886   6.692   0.948
 8880SOL    HW138702   1.796   6.708   0.909
 8880SOL    HW238703   1.884   6.608   1.003
 8881SOL     OW38704   2.637   5.597   0.398
 8881SOL    HW138705   2.598   5.586   0.307
 8881SOL    HW238706   2.593   5.673   0.445
 8882SOL     OW38707   1.882   6.733   0.492
 8882SOL    HW138708   1.960   6.791   0.516
 8882SOL    HW238709   1.901   6.684   0.407
 8883SOL     OW38710   3.412   5.861   1.576
 8883SOL    HW138711   3.351   5.939   1.573
 8883SOL    HW238712   3.467   5.865   1.659
 8884SOL     OW38713   3.128   5.807   0.867
 8884SOL    HW138714   3.127   5.885   0.804
 8884SOL    HW238715   3.171   5.834   0.953
 8885SOL     OW38716   3.248   5.613   0.163
 8885SOL    HW138717   3.328   5.553   0.160
 8885SOL    HW238718   3.174   5.566   0.211
 8886SOL     OW38719   3.461   5.585   1.597
 8886SOL    HW138720   3.487   5.542   1.511
 8886SOL    HW238721   3.411   5.669   1.579
 8887SOL     OW38722   2.563   5.844   0.729
 8887SOL    HW138723   2.552   5.786   0.810
 8887SOL    HW238724   2.648   5.896   0.737
 8888SOL     OW38725   3.143   6.195   1.121
 8888SOL    HW138726   3.197   6.235   1.047
 8888SOL    HW238727   3.181   6.224   1.209
 8889SOL     OW38728   3.436   5.601   0.437
 8889SOL    HW138729   3.443   5.555   0.349
 8889SOL    HW238730   3.340   5.611   0.462
 8890SOL     OW38731   2.412   6.916   1.800
 8890SOL    HW138732   2.373   6.979   1.733
 8890SOL    HW238733   2.495   6.956   1.840
 8891SOL     OW38734   2.288   6.648   1.632
 8891SOL    HW138735   2.307   6.672   1.537
 8891SOL    HW238736   2.281   6.731   1.687
 8892SOL     OW38737   1.949   6.938   1.106
 8892SOL    HW138738   1.918   6.864   1.047
 8892SOL    HW238739   1.881   6.956   1.177
 8893SOL     OW38740   3.035   6.139   0.839
 8893SOL    HW138741   3.117   6.116   0.787
 8893SOL    HW238742   3.030   6.080   0.920
 8894SOL     OW38743   3.206   5.939   1.094
 8894SOL    HW138744   3.180   6.036   1.100
 8894SOL    HW238745   3.206   5.899   1.186
 8895SOL     OW38746   3.436   6.071   1.845
 8895SOL    HW138747   3.516   6.096   1.789
 8895SOL    HW238748   3.467   6.036   1.933
 8896SOL     OW38749   3.147   6.374   0.425
 8896SOL    HW138750   3.093   6.372   0.509
 8896SOL    HW238751   3.224   6.437   0.436
 8897SOL     OW38752   3.444   6.470   0.645
 8897SOL    HW138753   3.458   6.433   0.552
 8897SOL    HW238754   3.355   6.440   0.679
 8898SOL     OW38755   3.454   5.827   0.219
 8898SOL    HW138756   3.459   5.869   0.310
 8898SOL    HW238757   3.387   5.752   0.221
 8899SOL     OW38758   2.601   7.042   1.439
 8899SOL    HW138759   2.538   7.120   1.446
 8899SOL    HW238760   2.569   6.980   1.367
 8900SOL     OW38761   1.992   5.837   1.704
 8900SOL    HW138762   2.010   5.826   1.606
 8900SOL    HW238763   1.894   5.833   1.721
 8901SOL     OW38764   2.040   5.907   0.672
 8901SOL    HW138765   1.983   5.962   0.733
 8901SOL    HW238766   2.110   5.859   0.725
 8902SOL     OW38767   3.212   7.139   1.535
 8902SOL    HW138768   3.165   7.207   1.590
 8902SOL    HW238769   3.279   7.185   1.476
 8903SOL     OW38770   2.177   6.098   0.270
 8903SOL    HW138771   2.249   6.127   0.207
 8903SOL    HW238772   2.133   6.178   0.310
 8904SOL     OW38773   3.563   5.760   1.373
 8904SOL    HW138774   3.519   5.808   1.449
 8904SOL    HW238775   3.541   5.806   1.287
 8905SOL     OW38776   2.292   7.361   0.736
 8905SOL    HW138777   2.216   7.327   0.681
 8905SOL    HW238778   2.378   7.324   0.701
 8906SOL     OW38779   2.217   6.870   1.181
 8906SOL    HW138780   2.229   6.886   1.278
 8906SOL    HW238781   2.130   6.910   1.151
 8907SOL     OW38782   3.101   7.074   1.827
 8907SOL    HW138783   3.060   6.989   1.793
 8907SOL    HW238784   3.081   7.148   1.763
 8908SOL     OW38785   2.591   6.794   0.517
 8908SOL    HW138786   2.634   6.725   0.459
 8908SOL    HW238787   2.555   6.751   0.600
 8909SOL     OW38788   2.223   6.345   0.719
 8909SOL    HW138789   2.215   6.443   0.737
 8909SOL    HW238790   2.307   6.311   0.760
 8910SOL     OW38791   2.069   5.825   0.234
 8910SOL    HW138792   2.113   5.794   0.151
 8910SOL    HW238793   2.070   5.925   0.238
 8911SOL     OW38794   1.922   6.077   0.845
 8911SOL    HW138795   1.886   6.170   0.837
 8911SOL    HW238796   2.005   6.078   0.901
 8912SOL     OW38797   2.357   6.664   0.231
 8912SOL    HW138798   2.457   6.664   0.242
 8912SOL    HW238799   2.326   6.757   0.210
 8913SOL     OW38800   2.983   6.256   0.047
 8913SOL    HW138801   2.914   6.313   0.003
 8913SOL    HW238802   3.064   6.250  -0.012
 8914SOL     OW38803   2.718   6.175   0.190
 8914SOL    HW138804   2.808   6.176   0.145
 8914SOL    HW238805   2.695   6.081   0.215
 8915SOL     OW38806   3.283   6.092   1.500
 8915SOL    HW138807   3.235   6.115   1.584
 8915SOL    HW238808   3.217   6.062   1.431
 8916SOL     OW38809   1.918   5.607   0.144
 8916SOL    HW138810   1.981   5.530   0.152
 8916SOL    HW238811   1.938   5.675   0.215
 8917SOL     OW38812   2.191   6.582   1.145
 8917SOL    HW138813   2.202   6.537   1.234
 8917SOL    HW238814   2.218   6.678   1.152
 8918SOL     OW38815   3.490   6.594   0.245
 8918SOL    HW138816   3.561   6.664   0.247
 8918SOL    HW238817   3.477   6.564   0.150
 8919SOL     OW38818   2.472   6.195   1.167
 8919SOL    HW138819   2.547   6.238   1.216
 8919SOL    HW238820   2.405   6.160   1.233
 8920SOL     OW38821   2.615   6.564   1.484
 8920SOL    HW138822   2.684   6.616   1.434
 8920SOL    HW238823   2.610   6.597   1.579
 8921SOL     OW38824   3.007   6.585   1.644
 8921SOL    HW138825   2.929   6.531   1.677
 8921SOL    HW238826   3.088   6.563   1.699
 8922SOL     OW38827   2.164   7.309   1.278
 8922SOL    HW138828   2.144   7.291   1.182
 8922SOL    HW238829   2.091   7.271   1.335
 8923SOL     OW38830   2.857   6.773   0.823
 8923SOL    HW138831   2.896   6.816   0.742
 8923SOL    HW238832   2.930   6.756   0.890
 8924SOL     OW38833   2.551   6.501   1.025
 8924SOL    HW138834   2.549   6.417   0.970
 8924SOL    HW238835   2.500   6.487   1.110
 8925SOL     OW38836   1.890   6.511   1.151
 8925SOL    HW138837   1.979   6.489   1.191
 8925SOL    HW238838   1.835   6.427   1.147
 8926SOL     OW38839   2.118   5.556   0.431
 8926SOL    HW138840   2.156   5.644   0.458
 8926SOL    HW238841   2.041   5.532   0.491
 8927SOL     OW38842   2.534   6.173   1.759
 8927SOL    HW138843   2.486   6.224   1.688
 8927SOL    HW238844   2.627   6.152   1.729
 8928SOL     OW38845   1.940   6.643   0.251
 8928SOL    HW138846   1.930   6.546   0.230
 8928SOL    HW238847   1.993   6.688   0.179
 8929SOL     OW38848   3.637   5.755   0.852
 8929SOL    HW138849   3.592   5.737   0.939
 8929SOL    HW238850   3.735   5.772   0.868
 8930SOL     OW38851   2.685   6.731   1.104
 8930SOL    HW138852   2.636   6.646   1.085
 8930SOL    HW238853   2.755   6.746   1.035
 8931SOL     OW38854   3.023   6.154   0.313
 8931SOL    HW138855   3.075   6.226   0.359
 8931SOL    HW238856   3.036   6.161   0.215
 8932SOL     OW38857   3.384   6.969   1.640
 8932SOL    HW138858   3.369   6.871   1.654
 8932SOL    HW238859   3.301   7.011   1.604
 8933SOL     OW38860   2.141   6.411   1.380
 8933SOL    HW138861   2.105   6.321   1.406
 8933SOL    HW238862   2.102   6.481   1.440
 8934SOL     OW38863   2.643   7.037   0.038
 8934SOL    HW138864   2.618   7.114   0.097
 8934SOL    HW238865   2.707   6.977   0.086
 8935SOL     OW38866   2.461   7.244   1.072
 8935SOL    HW138867   2.481   7.214   0.979
 8935SOL    HW238868   2.386   7.189   1.109
 8936SOL     OW38869   2.604   6.655   0.789
 8936SOL    HW138870   2.693   6.701   0.789
 8936SOL    HW238871   2.597   6.595   0.868
 8937SOL     OW38872   2.782   7.002   0.458
 8937SOL    HW138873   2.832   6.990   0.373
 8937SOL    HW238874   2.728   6.919   0.477
 8938SOL     OW38875   1.972   6.349   0.858
 8938SOL    HW138876   2.067   6.340   0.826
 8938SOL    HW238877   1.938   6.441   0.837
 8939SOL     OW38878   1.909   6.466   1.785
 8939SOL    HW138879   1.824   6.417   1.766
 8939SOL    HW238880   1.936   6.453   1.880
 8940SOL     OW38881   2.806   7.375   1.491
 8940SOL    HW138882   2.778   7.288   1.532
 8940SOL    HW238883   2.750   7.449   1.528
 8941SOL     OW38884   3.035   6.722   1.021
 8941SOL    HW138885   3.019   6.816   1.052
 8941SOL    HW238886   3.038   6.661   1.101
 8942SOL     OW38887   2.309   5.993   1.785
 8942SOL    HW138888   2.345   5.940   1.708
 8942SOL    HW238889   2.370   6.070   1.803
 8943SOL     OW38890   2.373   6.410   0.357
 8943SOL    HW138891   2.323   6.475   0.301
 8943SOL    HW238892   2.315   6.331   0.376
 8944SOL     OW38893   3.146   5.884   1.351
 8944SOL    HW138894   3.217   5.856   1.415
 8944SOL    HW238895   3.093   5.804   1.323
 8945SOL     OW38896   1.847   5.583   0.552
 8945SOL    HW138897   1.760   5.570   0.505
 8945SOL    HW238898   1.855   5.678   0.582
 8946SOL     OW38899   3.068   5.684   1.793
 8946SOL    HW138900   3.127   5.700   1.873
 8946SOL    HW238901   3.015   5.767   1.774
 8947SOL     OW38902   2.284   7.103   1.618
 8947SOL    HW138903   2.226   7.168   1.667
 8947SOL    HW238904   2.346   7.153   1.558
 8948SOL     OW38905   3.640   6.990   1.559
 8948SOL    HW138906   3.668   7.083   1.581
 8948SOL    HW238907   3.547   6.974   1.592
 8949SOL     OW38908   2.890   6.103   1.109
 8949SOL    HW138909   2.976   6.154   1.108
 8949SOL    HW238910   2.896   6.029   1.176
 8950SOL     OW38911   2.294   7.049   0.681
 8950SOL    HW138912   2.292   6.950   0.694
 8950SOL    HW238913   2.203   7.082   0.658
 8951SOL     OW38914   2.935   7.166   1.269
 8951SOL    HW138915   2.861   7.230   1.287
 8951SOL    HW238916   3.014   7.215   1.231
 8952SOL     OW38917   2.144   7.296   1.768
 8952SOL    HW138918   2.187   7.380   1.734
 8952SOL    HW238919   2.169   7.283   1.864
 8953SOL     OW38920   2.004   6.832   1.639
 8953SOL    HW138921   1.983   6.737   1.612
 8953SOL    HW238922   1.935   6.893   1.601
 8954SOL     OW38923   2.093   7.197   1.043
 8954SOL    HW138924   2.035   7.117   1.057
 8954SOL    HW238925   2.117   7.204   0.946
 8955SOL     OW38926   2.839   5.718   0.898
 8955SOL    HW138927   2.935   5.719   0.926
 8955SOL    HW238928   2.784   5.675   0.970
 8956SOL     OW38929   2.901   6.724   0.414
 8956SOL    HW138930   2.981   6.760   0.462
 8956SOL    HW238931   2.859   6.651   0.470
 8957SOL     OW38932   3.492   5.991   0.778
 8957SOL    HW138933   3.511   6.077   0.825
 8957SOL    HW238934   3.560   5.922   0.806
 8958SOL     OW38935   2.635   6.663   0.264
 8958SOL    HW138936   2.707   6.722   0.229
 8958SOL    HW238937   2.675   6.579   0.300
 8959SOL     OW38938   2.706   5.639   0.116
 8959SOL    HW138939   2.781   5.573   0.128
 8959SOL    HW238940   2.737   5.730   0.144
 8960SOL     OW38941   2.385   6.068   0.728
 8960SOL    HW138942   2.423   5.979   0.754
 8960SOL    HW238943   2.452   6.118   0.673
 8961SOL     OW38944   2.373   6.626   1.382
 8961SOL    HW138945   2.469   6.606   1.402
 8961SOL    HW238946   2.362   6.724   1.364
 8962SOL     OW38947   2.078   6.778   0.043
 8962SOL    HW138948   2.070   6.790  -0.056
 8962SOL    HW238949   2.137   6.849   0.081
 8963SOL     OW38950   2.505   7.217   0.203
 8963SOL    HW138951   2.480   7.312   0.187
 8963SOL    HW238952   2.472   7.189   0.293
 8964SOL     OW38953   3.155   6.640   1.427
 8964SOL    HW138954   3.099   6.599   1.498
 8964SOL    HW238955   3.135   6.738   1.421
 8965SOL     OW38956   2.422   7.256   1.427
 8965SOL    HW138957   2.471   7.336   1.391
 8965SOL    HW238958   2.330   7.254   1.388
 8966SOL     OW38959   2.065   6.137   1.789
 8966SOL    HW138960   2.082   6.038   1.794
 8966SOL    HW238961   2.129   6.185   1.850
 8967SOL     OW38962   3.504   7.098   1.028
 8967SOL    HW138963   3.476   7.191   1.052
 8967SOL    HW238964   3.554   7.057   1.104
 8968SOL     OW38965   1.900   6.471   0.589
 8968SOL    HW138966   1.907   6.570   0.576
 8968SOL    HW238967   1.809   6.448   0.623
 8969SOL     OW38968   2.409   6.269   1.527
 8969SOL    HW138969   2.315   6.239   1.508
 8969SOL    HW238970   2.418   6.366   1.504
 8970SOL     OW38971   3.476   6.645   0.839
 8970SOL    HW138972   3.438   6.734   0.812
 8970SOL    HW238973   3.476   6.583   0.761
 8971SOL     OW38974   2.634   6.051   1.008
 8971SOL    HW138975   2.726   6.079   1.035
 8971SOL    HW238976   2.566   6.102   1.062
 8972SOL     OW38977   2.487   6.902   1.235
 8972SOL    HW138978   2.400   6.901   1.186
 8972SOL    HW238979   2.553   6.842   1.188
 8973SOL     OW38980   2.053   6.244   1.149
 8973SOL    HW138981   2.091   6.303   1.220
 8973SOL    HW238982   2.036   6.297   1.067
 8974SOL     OW38983   2.224   6.890   1.447
 8974SOL    HW138984   2.243   6.978   1.491
 8974SOL    HW238985   2.129   6.864   1.465
 8975SOL     OW38986   3.175   6.744   0.516
 8975SOL    HW138987   3.274   6.748   0.532
 8975SOL    HW238988   3.158   6.730   0.418
 8976SOL     OW38989   2.528   5.910   0.464
 8976SOL    HW138990   2.430   5.904   0.444
 8976SOL    HW238991   2.547   5.867   0.552
 8977SOL     OW38992   3.448   5.593   0.723
 8977SOL    HW138993   3.443   5.634   0.632
 8977SOL    HW238994   3.529   5.627   0.770
 8978SOL     OW38995   3.051   6.349   1.416
 8978SOL    HW138996   3.150   6.358   1.406
 8978SOL    HW238997   3.007   6.351   1.326
 8979SOL     OW38998   2.545   6.309   0.818
 8979SOL    HW138999   2.567   6.231   0.876
 8979SOL    HW239000   2.554   6.283   0.722
 8980SOL     OW39001   3.210   7.016   1.030
 8980SOL    HW139002   3.124   6.973   1.059
 8980SOL    HW239003   3.199   7.056   0.939
 8981SOL     OW39004   3.213   6.001   0.705
 8981SOL    HW139005   3.212   5.993   0.606
 8981SOL    HW239006   3.302   5.973   0.740
 8982SOL     OW39007   2.940   7.017   2.537
 8982SOL    HW139008   3.031   7.051   2.560
 8982SOL    HW239009   2.912   7.055   2.449
 8983SOL     OW39010   3.451   6.813   2.395
 8983SOL    HW139011   3.462   6.897   2.449
 8983SOL    HW239012   3.541   6.776   2.372
 8984SOL     OW39013   3.531   6.095   3.259
 8984SOL    HW139014   3.433   6.087   3.281
 8984SOL    HW239015   3.584   6.084   3.343
 8985SOL     OW39016   2.198   5.732   1.864
 8985SOL    HW139017   2.111   5.729   1.815
 8985SOL    HW239018   2.249   5.814   1.836
 8986SOL     OW39019   3.063   5.632   3.197
 8986SOL    HW139020   2.987   5.587   3.244
 8986SOL    HW239021   3.092   5.577   3.119
 8987SOL     OW39022   2.801   6.412   3.574
 8987SOL    HW139023   2.766   6.387   3.484
 8987SOL    HW239024   2.725   6.433   3.635
 8988SOL     OW39025   2.408   7.086   2.268
 8988SOL    HW139026   2.364   7.095   2.357
 8988SOL    HW239027   2.479   7.016   2.272
 8989SOL     OW39028   2.426   5.619   1.990
 8989SOL    HW139029   2.514   5.647   1.951
 8989SOL    HW239030   2.354   5.682   1.960
 8990SOL     OW39031   3.396   6.604   3.373
 8990SOL    HW139032   3.304   6.609   3.335
 8990SOL    HW239033   3.461   6.642   3.307
 8991SOL     OW39034   3.296   6.611   3.054
 8991SOL    HW139035   3.221   6.600   3.119
 8991SOL    HW239036   3.333   6.704   3.060
 8992SOL     OW39037   2.792   6.866   3.354
 8992SOL    HW139038   2.735   6.929   3.300
 8992SOL    HW239039   2.825   6.792   3.295
 8993SOL     OW39040   2.335   6.759   2.563
 8993SOL    HW139041   2.268   6.713   2.622
 8993SOL    HW239042   2.427   6.727   2.586
 8994SOL     OW39043   2.562   6.165   2.394
 8994SOL    HW139044   2.601   6.235   2.335
 8994SOL    HW239045   2.536   6.085   2.340
 8995SOL     OW39046   3.182   6.073   3.603
 8995SOL    HW139047   3.278   6.077   3.629
 8995SOL    HW239048   3.138   5.997   3.650
 8996SOL     OW39049   2.265   6.928   2.047
 8996SOL    HW139050   2.329   6.944   1.972
 8996SOL    HW239051   2.289   6.986   2.125
 8997SOL     OW39052   2.416   5.884   2.857
 8997SOL    HW139053   2.492   5.949   2.853
 8997SOL    HW239054   2.446   5.795   2.824
 8998SOL     OW39055   2.113   6.310   2.275
 8998SOL    HW139056   2.128   6.244   2.349
 8998SOL    HW239057   2.063   6.389   2.310
 8999SOL     OW39058   2.699   7.255   2.452
 8999SOL    HW139059   2.764   7.188   2.416
 8999SOL    HW239060   2.689   7.331   2.388
 9000SOL     OW39061   3.503   5.830   2.965
 9000SOL    HW139062   3.554   5.902   2.918
 9000SOL    HW239063   3.408   5.857   2.974
 9001SOL     OW39064   2.903   5.859   2.234
 9001SOL    HW139065   2.928   5.953   2.255
 9001SOL    HW239066   2.904   5.805   2.318
 9002SOL     OW39067   2.027   6.572   3.419
 9002SOL    HW139068   2.123   6.587   3.437
 9002SOL    HW239069   1.989   6.510   3.488
 9003SOL     OW39070   2.353   6.217   1.962
 9003SOL    HW139071   2.313   6.296   1.915
 9003SOL    HW239072   2.442   6.196   1.922
 9004SOL     OW39073   2.526   7.141   2.660
 9004SOL    HW139074   2.599   7.164   2.596
 9004SOL    HW239075   2.455   7.088   2.614
 9005SOL     OW39076   2.868   6.173   3.414
 9005SOL    HW139077   2.901   6.090   3.461
 9005SOL    HW239078   2.941   6.241   3.413
 9006SOL     OW39079   3.472   6.973   2.636
 9006SOL    HW139080   3.468   7.008   2.729
 9006SOL    HW239081   3.531   7.032   2.580
 9007SOL     OW39082   2.203   6.794   2.312
 9007SOL    HW139083   2.249   6.768   2.397
 9007SOL    HW239084   2.223   6.726   2.241
 9008SOL     OW39085   3.061   5.849   2.023
 9008SOL    HW139086   3.155   5.819   2.041
 9008SOL    HW239087   3.009   5.849   2.109
 9009SOL     OW39088   2.213   6.054   3.118
 9009SOL    HW139089   2.203   5.967   3.070
 9009SOL    HW239090   2.149   6.121   3.081
 9010SOL     OW39091   3.295   6.334   3.156
 9010SOL    HW139092   3.299   6.428   3.121
 9010SOL    HW239093   3.388   6.303   3.178
 9011SOL     OW39094   2.248   5.826   2.277
 9011SOL    HW139095   2.202   5.866   2.356
 9011SOL    HW239096   2.196   5.845   2.195
 9012SOL     OW39097   3.376   7.353   3.189
 9012SOL    HW139098   3.319   7.304   3.123
 9012SOL    HW239099   3.462   7.380   3.146
 9013SOL     OW39100   3.671   6.071   3.044
 9013SOL    HW139101   3.728   6.153   3.046
 9013SOL    HW239102   3.612   6.070   3.124
 9014SOL     OW39103   3.688   7.297   2.957
 9014SOL    HW139104   3.734   7.307   3.045
 9014SOL    HW239105   3.755   7.300   2.884
 9015SOL     OW39106   2.801   6.037   2.519
 9015SOL    HW139107   2.877   6.065   2.578
 9015SOL    HW239108   2.757   6.117   2.480
 9016SOL     OW39109   3.036   6.501   2.036
 9016SOL    HW139110   3.073   6.451   2.114
 9016SOL    HW239111   2.966   6.446   1.991
 9017SOL     OW39112   2.878   5.923   3.657
 9017SOL    HW139113   2.941   5.928   3.734
 9017SOL    HW239114   2.786   5.901   3.690
 9018SOL     OW39115   3.619   6.170   2.115
 9018SOL    HW139116   3.640   6.089   2.061
 9018SOL    HW239117   3.636   6.151   2.212
 9019SOL     OW39118   2.913   7.308   2.023
 9019SOL    HW139119   2.947   7.221   1.988
 9019SOL    HW239120   2.881   7.296   2.117
 9020SOL     OW39121   2.594   5.575   3.555
 9020SOL    HW139122   2.601   5.481   3.522
 9020SOL    HW239123   2.651   5.585   3.637
 9021SOL     OW39124   3.517   6.176   2.823
 9021SOL    HW139125   3.502   6.267   2.860
 9021SOL    HW239126   3.587   6.129   2.877
 9022SOL     OW39127   2.927   6.842   3.589
 9022SOL    HW139128   2.949   6.752   3.551
 9022SOL    HW239129   2.862   6.889   3.530
 9023SOL     OW39130   2.582   6.684   3.593
 9023SOL    HW139131   2.553   6.761   3.650
 9023SOL    HW239132   2.592   6.603   3.651
 9024SOL     OW39133   3.572   5.754   3.628
 9024SOL    HW139134   3.549   5.775   3.723
 9024SOL    HW239135   3.548   5.659   3.608
 9025SOL     OW39136   1.875   6.158   2.372
 9025SOL    HW139137   1.877   6.109   2.459
 9025SOL    HW239138   1.877   6.257   2.390
 9026SOL     OW39139   2.196   5.746   2.693
 9026SOL    HW139140   2.248   5.786   2.768
 9026SOL    HW239141   2.249   5.673   2.650
 9027SOL     OW39142   2.180   5.794   3.027
 9027SOL    HW139143   2.145   5.701   3.027
 9027SOL    HW239144   2.267   5.797   2.978
 9028SOL     OW39145   2.847   6.416   2.767
 9028SOL    HW139146   2.873   6.496   2.713
 9028SOL    HW239147   2.841   6.336   2.707
 9029SOL     OW39148   2.048   7.043   2.226
 9029SOL    HW139149   2.075   6.949   2.246
 9029SOL    HW239150   2.073   7.065   2.132
 9030SOL     OW39151   3.330   6.912   3.100
 9030SOL    HW139152   3.301   6.949   3.011
 9030SOL    HW239153   3.252   6.912   3.162
 9031SOL     OW39154   2.062   7.186   2.463
 9031SOL    HW139155   1.978   7.237   2.481
 9031SOL    HW239156   2.053   7.135   2.378
 9032SOL     OW39157   3.583   6.983   3.138
 9032SOL    HW139158   3.614   6.997   3.232
 9032SOL    HW239159   3.484   6.970   3.137
 9033SOL     OW39160   2.335   6.483   1.865
 9033SOL    HW139161   2.304   6.517   1.777
 9033SOL    HW239162   2.339   6.558   1.931
 9034SOL     OW39163   2.852   6.670   3.164
 9034SOL    HW139164   2.902   6.585   3.148
 9034SOL    HW239165   2.806   6.697   3.079
 9035SOL     OW39166   1.939   6.375   2.038
 9035SOL    HW139167   1.999   6.322   2.098
 9035SOL    HW239168   1.845   6.343   2.050
 9036SOL     OW39169   3.459   6.373   2.238
 9036SOL    HW139170   3.527   6.307   2.205
 9036SOL    HW239171   3.474   6.461   2.194
 9037SOL     OW39172   2.707   7.360   2.886
 9037SOL    HW139173   2.753   7.293   2.828
 9037SOL    HW239174   2.633   7.316   2.936
 9038SOL     OW39175   2.614   6.429   1.922
 9038SOL    HW139176   2.643   6.348   1.973
 9038SOL    HW239177   2.514   6.428   1.913
 9039SOL     OW39178   3.210   5.961   2.268
 9039SOL    HW139179   3.147   6.019   2.216
 9039SOL    HW239180   3.303   5.995   2.256
 9040SOL     OW39181   2.107   6.162   3.368
 9040SOL    HW139182   2.127   6.067   3.343
 9040SOL    HW239183   2.070   6.165   3.461
 9041SOL     OW39184   2.887   6.438   3.023
 9041SOL    HW139185   2.881   6.424   2.924
 9041SOL    HW239186   2.806   6.399   3.067
 9042SOL     OW39187   3.478   5.972   2.338
 9042SOL    HW139188   3.574   5.943   2.335
 9042SOL    HW239189   3.439   5.950   2.427
 9043SOL     OW39190   2.762   7.047   2.775
 9043SOL    HW139191   2.820   7.058   2.694
 9043SOL    HW239192   2.668   7.071   2.753
 9044SOL     OW39193   2.712   5.913   2.060
 9044SOL    HW139194   2.621   5.926   2.098
 9044SOL    HW239195   2.772   5.873   2.130
 9045SOL     OW39196   2.823   6.858   1.995
 9045SOL    HW139197   2.876   6.798   2.055
 9045SOL    HW239198   2.862   6.859   1.904
 9046SOL     OW39199   3.574   7.153   2.480
 9046SOL    HW139200   3.541   7.246   2.499
 9046SOL    HW239201   3.572   7.137   2.381
 9047SOL     OW39202   2.989   6.426   2.469
 9047SOL    HW139203   3.054   6.454   2.540
 9047SOL    HW239204   2.910   6.487   2.471
 9048SOL     OW39205   2.737   7.152   3.493
 9048SOL    HW139206   2.725   7.083   3.422
 9048SOL    HW239207   2.700   7.117   3.580
 9049SOL     OW39208   3.181   6.466   2.672
 9049SOL    HW139209   3.202   6.408   2.750
 9049SOL    HW239210   3.190   6.562   2.698
 9050SOL     OW39211   2.137   6.595   2.718
 9050SOL    HW139212   2.060   6.657   2.711
 9050SOL    HW239213   2.174   6.596   2.811
 9051SOL     OW39214   2.770   6.543   2.417
 9051SOL    HW139215   2.757   6.454   2.374
 9051SOL    HW239216   2.701   6.557   2.488
 9052SOL     OW39217   3.074   6.931   3.256
 9052SOL    HW139218   3.107   7.016   3.297
 9052SOL    HW239219   2.975   6.927   3.263
 9053SOL     OW39220   1.881   5.848   2.320
 9053SOL    HW139221   1.941   5.799   2.258
 9053SOL    HW239222   1.936   5.900   2.385
 9054SOL     OW39223   2.668   6.313   3.169
 9054SOL    HW139224   2.670   6.399   3.220
 9054SOL    HW239225   2.725   6.245   3.216
 9055SOL     OW39226   1.905   7.340   3.240
 9055SOL    HW139227   1.913   7.440   3.238
 9055SOL    HW239228   1.881   7.311   3.333
 9056SOL     OW39229   2.686   6.359   2.234
 9056SOL    HW139230   2.597   6.387   2.199
 9056SOL    HW239231   2.727   6.293   2.170
 9057SOL     OW39232   2.208   6.077   2.773
 9057SOL    HW139233   2.264   6.070   2.690
 9057SOL    HW239234   2.265   6.055   2.853
 9058SOL     OW39235   2.205   7.275   2.044
 9058SOL    HW139236   2.297   7.305   2.019
 9058SOL    HW239237   2.180   7.314   2.133
 9059SOL     OW39238   1.886   6.692   2.793
 9059SOL    HW139239   1.796   6.708   2.754
 9059SOL    HW239240   1.884   6.608   2.848
 9060SOL     OW39241   1.882   6.733   2.337
 9060SOL    HW139242   1.960   6.791   2.361
 9060SOL    HW239243   1.901   6.684   2.252
 9061SOL     OW39244   3.412   5.861   3.421
 9061SOL    HW139245   3.351   5.939   3.418
 9061SOL    HW239246   3.467   5.865   3.504
 9062SOL     OW39247   3.128   5.807   2.712
 9062SOL    HW139248   3.127   5.885   2.649
 9062SOL    HW239249   3.171   5.834   2.798
 9063SOL     OW39250   3.248   5.613   2.008
 9063SOL    HW139251   3.328   5.553   2.005
 9063SOL    HW239252   3.174   5.566   2.056
 9064SOL     OW39253   3.461   5.585   3.442
 9064SOL    HW139254   3.487   5.542   3.356
 9064SOL    HW239255   3.411   5.669   3.424
 9065SOL     OW39256   3.143   6.195   2.966
 9065SOL    HW139257   3.197   6.235   2.892
 9065SOL    HW239258   3.181   6.224   3.054
 9066SOL     OW39259   3.436   5.601   2.282
 9066SOL    HW139260   3.443   5.555   2.194
 9066SOL    HW239261   3.340   5.611   2.307
 9067SOL     OW39262   2.412   6.916   3.645
 9067SOL    HW139263   2.373   6.979   3.578
 9067SOL    HW239264   2.495   6.956   3.685
 9068SOL     OW39265   2.288   6.648   3.477
 9068SOL    HW139266   2.307   6.672   3.382
 9068SOL    HW239267   2.281   6.731   3.532
 9069SOL     OW39268   1.949   6.938   2.951
 9069SOL    HW139269   1.918   6.864   2.892
 9069SOL    HW239270   1.881   6.956   3.022
 9070SOL     OW39271   3.035   6.139   2.684
 9070SOL    HW139272   3.117   6.116   2.632
 9070SOL    HW239273   3.030   6.080   2.765
 9071SOL     OW39274   3.635   6.166   3.520
 9071SOL    HW139275   3.624   6.252   3.469
 9071SOL    HW239276   3.729   6.157   3.550
 9072SOL     OW39277   3.206   5.939   2.939
 9072SOL    HW139278   3.180   6.036   2.945
 9072SOL    HW239279   3.206   5.899   3.031
 9073SOL     OW39280   3.436   6.071   3.690
 9073SOL    HW139281   3.516   6.096   3.634
 9073SOL    HW239282   3.467   6.036   3.778
 9074SOL     OW39283   3.147   6.374   2.270
 9074SOL    HW139284   3.093   6.372   2.354
 9074SOL    HW239285   3.224   6.437   2.281
 9075SOL     OW39286   3.444   6.470   2.490
 9075SOL    HW139287   3.458   6.433   2.397
 9075SOL    HW239288   3.355   6.440   2.524
 9076SOL     OW39289   3.600   6.407   3.385
 9076SOL    HW139290   3.502   6.428   3.387
 9076SOL    HW239291   3.649   6.483   3.344
 9077SOL     OW39292   3.454   5.827   2.064
 9077SOL    HW139293   3.459   5.869   2.155
 9077SOL    HW239294   3.387   5.752   2.066
 9078SOL     OW39295   2.601   7.042   3.284
 9078SOL    HW139296   2.538   7.120   3.291
 9078SOL    HW239297   2.569   6.980   3.212
 9079SOL     OW39298   1.992   5.837   3.549
 9079SOL    HW139299   2.010   5.826   3.451
 9079SOL    HW239300   1.894   5.833   3.566
 9080SOL     OW39301   1.872   7.251   3.493
 9080SOL    HW139302   1.944   7.237   3.561
 9080SOL    HW239303   1.783   7.254   3.538
 9081SOL     OW39304   2.040   5.907   2.517
 9081SOL    HW139305   1.983   5.962   2.578
 9081SOL    HW239306   2.110   5.859   2.570
 9082SOL     OW39307   3.212   7.139   3.380
 9082SOL    HW139308   3.165   7.207   3.435
 9082SOL    HW239309   3.279   7.185   3.321
 9083SOL     OW39310   2.177   6.098   2.115
 9083SOL    HW139311   2.249   6.127   2.052
 9083SOL    HW239312   2.133   6.178   2.155
 9084SOL     OW39313   3.563   5.760   3.218
 9084SOL    HW139314   3.519   5.808   3.294
 9084SOL    HW239315   3.541   5.806   3.132
 9085SOL     OW39316   2.292   7.361   2.581
 9085SOL    HW139317   2.216   7.327   2.526
 9085SOL    HW239318   2.378   7.324   2.546
 9086SOL     OW39319   2.217   6.870   3.026
 9086SOL    HW139320   2.229   6.886   3.123
 9086SOL    HW239321   2.130   6.910   2.996
 9087SOL     OW39322   3.101   7.074   3.672
 9087SOL    HW139323   3.060   6.989   3.638
 9087SOL    HW239324   3.081   7.148   3.608
 9088SOL     OW39325   2.591   6.794   2.362
 9088SOL    HW139326   2.634   6.725   2.304
 9088SOL    HW239327   2.555   6.751   2.445
 9089SOL     OW39328   2.223   6.345   2.564
 9089SOL    HW139329   2.215   6.443   2.582
 9089SOL    HW239330   2.307   6.311   2.605
 9090SOL     OW39331   2.069   5.825   2.079
 9090SOL    HW139332   2.113   5.794   1.996
 9090SOL    HW239333   2.070   5.925   2.083
 9091SOL     OW39334   1.922   6.077   2.690
 9091SOL    HW139335   1.886   6.170   2.682
 9091SOL    HW239336   2.005   6.078   2.746
 9092SOL     OW39337   2.357   6.664   2.076
 9092SOL    HW139338   2.457   6.664   2.087
 9092SOL    HW239339   2.326   6.757   2.055
 9093SOL     OW39340   2.983   6.256   1.892
 9093SOL    HW139341   2.914   6.313   1.848
 9093SOL    HW239342   3.064   6.250   1.833
 9094SOL     OW39343   2.718   6.175   2.035
 9094SOL    HW139344   2.808   6.176   1.990
 9094SOL    HW239345   2.695   6.081   2.060
 9095SOL     OW39346   3.169   5.692   2.329
 9095SOL    HW139347   3.079   5.676   2.370
 9095SOL    HW239348   3.177   5.788   2.303
 9096SOL     OW39349   3.283   6.092   3.345
 9096SOL    HW139350   3.235   6.115   3.429
 9096SOL    HW239351   3.217   6.062   3.276
 9097SOL     OW39352   1.918   5.607   1.989
 9097SOL    HW139353   1.981   5.530   1.997
 9097SOL    HW239354   1.938   5.675   2.060
 9098SOL     OW39355   2.191   6.582   2.990
 9098SOL    HW139356   2.202   6.537   3.079
 9098SOL    HW239357   2.218   6.678   2.997
 9099SOL     OW39358   3.490   6.594   2.090
 9099SOL    HW139359   3.561   6.664   2.092
 9099SOL    HW239360   3.477   6.564   1.995
 9100SOL     OW39361   2.472   6.195   3.012
 9100SOL    HW139362   2.547   6.238   3.061
 9100SOL    HW239363   2.405   6.160   3.078
 9101SOL     OW39364   2.615   6.564   3.329
 9101SOL    HW139365   2.684   6.616   3.279
 9101SOL    HW239366   2.610   6.597   3.424
 9102SOL     OW39367   3.007   6.585   3.489
 9102SOL    HW139368   2.929   6.531   3.522
 9102SOL    HW239369   3.088   6.563   3.544
 9103SOL     OW39370   2.936   5.767   2.485
 9103SOL    HW139371   2.995   5.827   2.540
 9103SOL    HW239372   2.863   5.731   2.542
 9104SOL     OW39373   3.046   7.299   3.525
 9104SOL    HW139374   2.951   7.297   3.493
 9104SOL    HW239375   3.067   7.390   3.562
 9105SOL     OW39376   2.164   7.309   3.123
 9105SOL    HW139377   2.144   7.291   3.027
 9105SOL    HW239378   2.091   7.271   3.180
 9106SOL     OW39379   2.857   6.773   2.668
 9106SOL    HW139380   2.896   6.816   2.587
 9106SOL    HW239381   2.930   6.756   2.735
 9107SOL     OW39382   2.551   6.501   2.870
 9107SOL    HW139383   2.549   6.417   2.815
 9107SOL    HW239384   2.500   6.487   2.955
 9108SOL     OW39385   1.890   6.511   2.996
 9108SOL    HW139386   1.979   6.489   3.036
 9108SOL    HW239387   1.835   6.427   2.992
 9109SOL     OW39388   2.118   5.556   2.276
 9109SOL    HW139389   2.156   5.644   2.303
 9109SOL    HW239390   2.041   5.532   2.336
 9110SOL     OW39391   2.534   6.173   3.604
 9110SOL    HW139392   2.486   6.224   3.533
 9110SOL    HW239393   2.627   6.152   3.574
 9111SOL     OW39394   1.940   6.643   2.096
 9111SOL    HW139395   1.930   6.546   2.075
 9111SOL    HW239396   1.993   6.688   2.024
 9112SOL     OW39397   3.637   5.755   2.697
 9112SOL    HW139398   3.592   5.737   2.784
 9112SOL    HW239399   3.735   5.772   2.713
 9113SOL     OW39400   2.685   6.731   2.949
 9113SOL    HW139401   2.636   6.646   2.930
 9113SOL    HW239402   2.755   6.746   2.880
 9114SOL     OW39403   3.023   6.154   2.158
 9114SOL    HW139404   3.075   6.226   2.204
 9114SOL    HW239405   3.036   6.161   2.060
 9115SOL     OW39406   3.384   6.969   3.485
 9115SOL    HW139407   3.369   6.871   3.499
 9115SOL    HW239408   3.301   7.011   3.449
 9116SOL     OW39409   2.141   6.411   3.225
 9116SOL    HW139410   2.105   6.321   3.251
 9116SOL    HW239411   2.102   6.481   3.285
 9117SOL     OW39412   2.643   7.037   1.883
 9117SOL    HW139413   2.618   7.114   1.942
 9117SOL    HW239414   2.707   6.977   1.931
 9118SOL     OW39415   2.461   7.244   2.917
 9118SOL    HW139416   2.481   7.214   2.824
 9118SOL    HW239417   2.386   7.189   2.954
 9119SOL     OW39418   2.604   6.655   2.634
 9119SOL    HW139419   2.693   6.701   2.634
 9119SOL    HW239420   2.597   6.595   2.713
 9120SOL     OW39421   2.782   7.002   2.303
 9120SOL    HW139422   2.832   6.990   2.218
 9120SOL    HW239423   2.728   6.919   2.322
 9121SOL     OW39424   1.972   6.349   2.703
 9121SOL    HW139425   2.067   6.340   2.671
 9121SOL    HW239426   1.938   6.441   2.682
 9122SOL     OW39427   1.909   6.466   3.630
 9122SOL    HW139428   1.824   6.417   3.611
 9122SOL    HW239429   1.936   6.453   3.725
 9123SOL     OW39430   2.806   7.375   3.336
 9123SOL    HW139431   2.778   7.288   3.377
 9123SOL    HW239432   2.750   7.449   3.373
 9124SOL     OW39433   3.035   6.722   2.866
 9124SOL    HW139434   3.019   6.816   2.897
 9124SOL    HW239435   3.038   6.661   2.946
 9125SOL     OW39436   2.309   5.993   3.630
 9125SOL    HW139437   2.345   5.940   3.553
 9125SOL    HW239438   2.370   6.070   3.648
 9126SOL     OW39439   2.373   6.410   2.202
 9126SOL    HW139440   2.323   6.475   2.146
 9126SOL    HW239441   2.315   6.331   2.221
 9127SOL     OW39442   3.454   6.441   2.900
 9127SOL    HW139443   3.473   6.480   2.809
 9127SOL    HW239444   3.408   6.510   2.956
 9128SOL     OW39445   3.146   5.884   3.196
 9128SOL    HW139446   3.217   5.856   3.260
 9128SOL    HW239447   3.093   5.804   3.168
 9129SOL     OW39448   1.847   5.583   2.397
 9129SOL    HW139449   1.760   5.570   2.350
 9129SOL    HW239450   1.855   5.678   2.427
 9130SOL     OW39451   3.068   5.684   3.638
 9130SOL    HW139452   3.127   5.700   3.718
 9130SOL    HW239453   3.015   5.767   3.619
 9131SOL     OW39454   2.284   7.103   3.463
 9131SOL    HW139455   2.226   7.168   3.512
 9131SOL    HW239456   2.346   7.153   3.403
 9132SOL     OW39457   3.640   6.990   3.404
 9132SOL    HW139458   3.668   7.083   3.426
 9132SOL    HW239459   3.547   6.974   3.437
 9133SOL     OW39460   2.890   6.103   2.954
 9133SOL    HW139461   2.976   6.154   2.953
 9133SOL    HW239462   2.896   6.029   3.021
 9134SOL     OW39463   2.294   7.049   2.526
 9134SOL    HW139464   2.292   6.950   2.539
 9134SOL    HW239465   2.203   7.082   2.503
 9135SOL     OW39466   2.935   7.166   3.114
 9135SOL    HW139467   2.861   7.230   3.132
 9135SOL    HW239468   3.014   7.215   3.076
 9136SOL     OW39469   2.144   7.296   3.613
 9136SOL    HW139470   2.187   7.380   3.579
 9136SOL    HW239471   2.169   7.283   3.709
 9137SOL     OW39472   2.004   6.832   3.484
 9137SOL    HW139473   1.983   6.737   3.457
 9137SOL    HW239474   1.935   6.893   3.446
 9138SOL     OW39475   2.093   7.197   2.888
 9138SOL    HW139476   2.035   7.117   2.902
 9138SOL    HW239477   2.117   7.204   2.791
 9139SOL     OW39478   2.839   5.718   2.743
 9139SOL    HW139479   2.935   5.719   2.771
 9139SOL    HW239480   2.784   5.675   2.815
 9140SOL     OW39481   2.901   6.724   2.259
 9140SOL    HW139482   2.981   6.760   2.307
 9140SOL    HW239483   2.859   6.651   2.315
 9141SOL     OW39484   3.492   5.991   2.623
 9141SOL    HW139485   3.511   6.077   2.670
 9141SOL    HW239486   3.560   5.922   2.651
 9142SOL     OW39487   2.635   6.663   2.109
 9142SOL    HW139488   2.707   6.722   2.074
 9142SOL    HW239489   2.675   6.579   2.145
 9143SOL     OW39490   2.706   5.639   1.961
 9143SOL    HW139491   2.781   5.573   1.973
 9143SOL    HW239492   2.737   5.730   1.989
 9144SOL     OW39493   2.385   6.068   2.573
 9144SOL    HW139494   2.423   5.979   2.599
 9144SOL    HW239495   2.452   6.118   2.518
 9145SOL     OW39496   2.373   6.626   3.227
 9145SOL    HW139497   2.469   6.606   3.247
 9145SOL    HW239498   2.362   6.724   3.209
 9146SOL     OW39499   3.595   6.669   3.196
 9146SOL    HW139500   3.609   6.767   3.210
 9146SOL    HW239501   3.652   6.638   3.120
 9147SOL     OW39502   2.078   6.778   1.888
 9147SOL    HW139503   2.070   6.790   1.789
 9147SOL    HW239504   2.137   6.849   1.926
 9148SOL     OW39505   2.505   7.217   2.048
 9148SOL    HW139506   2.480   7.312   2.032
 9148SOL    HW239507   2.472   7.189   2.138
 9149SOL     OW39508   3.155   6.640   3.272
 9149SOL    HW139509   3.099   6.599   3.343
 9149SOL    HW239510   3.135   6.738   3.266
 9150SOL     OW39511   2.422   7.256   3.272
 9150SOL    HW139512   2.471   7.336   3.236
 9150SOL    HW239513   2.330   7.254   3.233
 9151SOL     OW39514   2.065   6.137   3.634
 9151SOL    HW139515   2.082   6.038   3.639
 9151SOL    HW239516   2.129   6.185   3.695
 9152SOL     OW39517   3.504   7.098   2.873
 9152SOL    HW139518   3.476   7.191   2.897
 9152SOL    HW239519   3.554   7.057   2.949
 9153SOL     OW39520   1.900   6.471   2.434
 9153SOL    HW139521   1.907   6.570   2.421
 9153SOL    HW239522   1.809   6.448   2.468
 9154SOL     OW39523   2.409   6.269   3.372
 9154SOL    HW139524   2.315   6.239   3.353
 9154SOL    HW239525   2.418   6.366   3.349
 9155SOL     OW39526   3.476   6.645   2.684
 9155SOL    HW139527   3.438   6.734   2.657
 9155SOL    HW239528   3.476   6.583   2.606
 9156SOL     OW39529   2.634   6.051   2.853
 9156SOL    HW139530   2.726   6.079   2.880
 9156SOL    HW239531   2.566   6.102   2.907
 9157SOL     OW39532   2.487   6.902   3.080
 9157SOL    HW139533   2.400   6.901   3.031
 9157SOL    HW239534   2.553   6.842   3.033
 9158SOL     OW39535   2.053   6.244   2.994
 9158SOL    HW139536   2.091   6.303   3.065
 9158SOL    HW239537   2.036   6.297   2.912
 9159SOL     OW39538   2.224   6.890   3.292
 9159SOL    HW139539   2.243   6.978   3.336
 9159SOL    HW239540   2.129   6.864   3.310
 9160SOL     OW39541   3.467   7.206   3.640
 9160SOL    HW139542   3.436   7.128   3.585
 9160SOL    HW239543   3.436   7.291   3.598
 9161SOL     OW39544   3.175   6.744   2.361
 9161SOL    HW139545   3.274   6.748   2.377
 9161SOL    HW239546   3.158   6.730   2.263
 9162SOL     OW39547   2.528   5.910   2.309
 9162SOL    HW139548   2.430   5.904   2.289
 9162SOL    HW239549   2.547   5.867   2.397
 9163SOL     OW39550   3.448   5.593   2.568
 9163SOL    HW139551   3.443   5.634   2.477
 9163SOL    HW239552   3.529   5.627   2.615
 9164SOL     OW39553   3.051   6.349   3.261
 9164SOL    HW139554   3.150   6.358   3.251
 9164SOL    HW239555   3.007   6.351   3.171
 9165SOL     OW39556   2.545   6.309   2.663
 9165SOL    HW139557   2.567   6.231   2.721
 9165SOL    HW239558   2.554   6.283   2.567
 9166SOL     OW39559   3.210   7.016   2.875
 9166SOL    HW139560   3.124   6.973   2.904
 9166SOL    HW239561   3.199   7.056   2.784
 9167SOL     OW39562   3.213   6.001   2.550
 9167SOL    HW139563   3.212   5.993   2.451
 9167SOL    HW239564   3.302   5.973   2.585
 9168SOL     OW39565   2.940   7.017   4.383
 9168SOL    HW139566   3.031   7.051   4.406
 9168SOL    HW239567   2.912   7.055   4.295
 9169SOL     OW39568   3.451   6.813   4.241
 9169SOL    HW139569   3.462   6.897   4.295
 9169SOL    HW239570   3.541   6.776   4.218
 9170SOL     OW39571   2.198   5.732   3.710
 9170SOL    HW139572   2.111   5.729   3.661
 9170SOL    HW239573   2.249   5.814   3.682
 9171SOL     OW39574   3.185   7.121   4.485
 9171SOL    HW139575   3.174   7.218   4.508
 9171SOL    HW239576   3.278   7.104   4.455
 9172SOL     OW39577   3.063   5.632   5.043
 9172SOL    HW139578   2.987   5.587   5.090
 9172SOL    HW239579   3.092   5.577   4.965
 9173SOL     OW39580   2.408   7.086   4.114
 9173SOL    HW139581   2.364   7.095   4.203
 9173SOL    HW239582   2.479   7.016   4.118
 9174SOL     OW39583   3.396   6.604   5.219
 9174SOL    HW139584   3.304   6.609   5.181
 9174SOL    HW239585   3.461   6.642   5.153
 9175SOL     OW39586   3.296   6.611   4.900
 9175SOL    HW139587   3.221   6.600   4.965
 9175SOL    HW239588   3.333   6.704   4.906
 9176SOL     OW39589   2.792   6.866   5.200
 9176SOL    HW139590   2.735   6.929   5.146
 9176SOL    HW239591   2.825   6.792   5.141
 9177SOL     OW39592   2.335   6.759   4.409
 9177SOL    HW139593   2.268   6.713   4.468
 9177SOL    HW239594   2.427   6.727   4.432
 9178SOL     OW39595   2.562   6.165   4.240
 9178SOL    HW139596   2.601   6.235   4.181
 9178SOL    HW239597   2.536   6.085   4.186
 9179SOL     OW39598   3.182   6.073   5.449
 9179SOL    HW139599   3.278   6.077   5.475
 9179SOL    HW239600   3.138   5.997   5.496
 9180SOL     OW39601   2.265   6.928   3.893
 9180SOL    HW139602   2.329   6.944   3.818
 9180SOL    HW239603   2.289   6.986   3.971
 9181SOL     OW39604   2.416   5.884   4.703
 9181SOL    HW139605   2.492   5.949   4.699
 9181SOL    HW239606   2.446   5.795   4.670
 9182SOL     OW39607   2.113   6.310   4.121
 9182SOL    HW139608   2.128   6.244   4.195
 9182SOL    HW239609   2.063   6.389   4.156
 9183SOL     OW39610   2.699   7.255   4.298
 9183SOL    HW139611   2.764   7.188   4.262
 9183SOL    HW239612   2.689   7.331   4.234
 9184SOL     OW39613   3.591   7.137   4.040
 9184SOL    HW139614   3.687   7.111   4.033
 9184SOL    HW239615   3.567   7.197   3.964
 9185SOL     OW39616   2.903   5.859   4.080
 9185SOL    HW139617   2.928   5.953   4.101
 9185SOL    HW239618   2.904   5.805   4.164
 9186SOL     OW39619   2.027   6.572   5.265
 9186SOL    HW139620   2.123   6.587   5.283
 9186SOL    HW239621   1.989   6.510   5.334
 9187SOL     OW39622   2.353   6.217   3.808
 9187SOL    HW139623   2.313   6.296   3.761
 9187SOL    HW239624   2.442   6.196   3.768
 9188SOL     OW39625   2.526   7.141   4.506
 9188SOL    HW139626   2.599   7.164   4.442
 9188SOL    HW239627   2.455   7.088   4.460
 9189SOL     OW39628   3.472   6.973   4.482
 9189SOL    HW139629   3.468   7.008   4.575
 9189SOL    HW239630   3.531   7.032   4.426
 9190SOL     OW39631   2.203   6.794   4.158
 9190SOL    HW139632   2.249   6.768   4.243
 9190SOL    HW239633   2.223   6.726   4.087
 9191SOL     OW39634   3.061   5.849   3.869
 9191SOL    HW139635   3.155   5.819   3.887
 9191SOL    HW239636   3.009   5.849   3.955
 9192SOL     OW39637   2.213   6.054   4.964
 9192SOL    HW139638   2.203   5.967   4.916
 9192SOL    HW239639   2.149   6.121   4.927
 9193SOL     OW39640   3.295   6.334   5.002
 9193SOL    HW139641   3.299   6.428   4.967
 9193SOL    HW239642   3.388   6.303   5.024
 9194SOL     OW39643   2.248   5.826   4.123
 9194SOL    HW139644   2.202   5.866   4.202
 9194SOL    HW239645   2.196   5.845   4.041
 9195SOL     OW39646   3.376   7.353   5.035
 9195SOL    HW139647   3.319   7.304   4.969
 9195SOL    HW239648   3.462   7.380   4.992
 9196SOL     OW39649   3.688   7.297   4.803
 9196SOL    HW139650   3.734   7.307   4.891
 9196SOL    HW239651   3.755   7.300   4.730
 9197SOL     OW39652   2.801   6.037   4.365
 9197SOL    HW139653   2.877   6.065   4.424
 9197SOL    HW239654   2.757   6.117   4.326
 9198SOL     OW39655   3.036   6.501   3.882
 9198SOL    HW139656   3.073   6.451   3.960
 9198SOL    HW239657   2.966   6.446   3.837
 9199SOL     OW39658   2.913   7.308   3.869
 9199SOL    HW139659   2.947   7.221   3.834
 9199SOL    HW239660   2.881   7.296   3.963
 9200SOL     OW39661   2.594   5.575   5.401
 9200SOL    HW139662   2.601   5.481   5.368
 9200SOL    HW239663   2.651   5.585   5.483
 9201SOL     OW39664   2.927   6.842   5.435
 9201SOL    HW139665   2.949   6.752   5.397
 9201SOL    HW239666   2.862   6.889   5.376
 9202SOL     OW39667   3.217   5.548   4.545
 9202SOL    HW139668   3.166   5.632   4.527
 9202SOL    HW239669   3.303   5.550   4.494
 9203SOL     OW39670   3.572   5.754   5.474
 9203SOL    HW139671   3.549   5.775   5.569
 9203SOL    HW239672   3.548   5.659   5.454
 9204SOL     OW39673   1.875   6.158   4.218
 9204SOL    HW139674   1.877   6.109   4.305
 9204SOL    HW239675   1.877   6.257   4.236
 9205SOL     OW39676   2.196   5.746   4.539
 9205SOL    HW139677   2.248   5.786   4.614
 9205SOL    HW239678   2.249   5.673   4.496
 9206SOL     OW39679   2.180   5.794   4.873
 9206SOL    HW139680   2.145   5.701   4.873
 9206SOL    HW239681   2.267   5.797   4.824
 9207SOL     OW39682   2.847   6.416   4.613
 9207SOL    HW139683   2.873   6.496   4.559
 9207SOL    HW239684   2.841   6.336   4.553
 9208SOL     OW39685   2.048   7.043   4.072
 9208SOL    HW139686   2.075   6.949   4.092
 9208SOL    HW239687   2.073   7.065   3.978
 9209SOL     OW39688   3.330   6.912   4.946
 9209SOL    HW139689   3.301   6.949   4.857
 9209SOL    HW239690   3.252   6.912   5.008
 9210SOL     OW39691   2.062   7.186   4.309
 9210SOL    HW139692   1.978   7.237   4.327
 9210SOL    HW239693   2.053   7.135   4.224
 9211SOL     OW39694   3.583   6.983   4.984
 9211SOL    HW139695   3.614   6.997   5.078
 9211SOL    HW239696   3.484   6.970   4.983
 9212SOL     OW39697   2.335   6.483   3.711
 9212SOL    HW139698   2.304   6.517   3.623
 9212SOL    HW239699   2.339   6.558   3.777
 9213SOL     OW39700   2.852   6.670   5.010
 9213SOL    HW139701   2.902   6.585   4.994
 9213SOL    HW239702   2.806   6.697   4.925
 9214SOL     OW39703   1.939   6.375   3.884
 9214SOL    HW139704   1.999   6.322   3.944
 9214SOL    HW239705   1.845   6.343   3.896
 9215SOL     OW39706   3.459   6.373   4.084
 9215SOL    HW139707   3.527   6.307   4.051
 9215SOL    HW239708   3.474   6.461   4.040
 9216SOL     OW39709   2.707   7.360   4.732
 9216SOL    HW139710   2.753   7.293   4.674
 9216SOL    HW239711   2.633   7.316   4.782
 9217SOL     OW39712   2.614   6.429   3.768
 9217SOL    HW139713   2.643   6.348   3.819
 9217SOL    HW239714   2.514   6.428   3.759
 9218SOL     OW39715   3.210   5.961   4.114
 9218SOL    HW139716   3.147   6.019   4.062
 9218SOL    HW239717   3.303   5.995   4.102
 9219SOL     OW39718   2.107   6.162   5.214
 9219SOL    HW139719   2.127   6.067   5.189
 9219SOL    HW239720   2.070   6.165   5.307
 9220SOL     OW39721   1.989   5.817   5.104
 9220SOL    HW139722   2.061   5.827   5.035
 9220SOL    HW239723   1.900   5.816   5.059
 9221SOL     OW39724   2.887   6.438   4.869
 9221SOL    HW139725   2.881   6.424   4.770
 9221SOL    HW239726   2.806   6.399   4.913
 9222SOL     OW39727   3.478   5.972   4.184
 9222SOL    HW139728   3.574   5.943   4.181
 9222SOL    HW239729   3.439   5.950   4.273
 9223SOL     OW39730   2.762   7.047   4.621
 9223SOL    HW139731   2.820   7.058   4.540
 9223SOL    HW239732   2.668   7.071   4.599
 9224SOL     OW39733   2.712   5.913   3.906
 9224SOL    HW139734   2.621   5.926   3.944
 9224SOL    HW239735   2.772   5.873   3.976
 9225SOL     OW39736   2.823   6.858   3.841
 9225SOL    HW139737   2.876   6.798   3.901
 9225SOL    HW239738   2.862   6.859   3.750
 9226SOL     OW39739   3.574   7.153   4.326
 9226SOL    HW139740   3.541   7.246   4.345
 9226SOL    HW239741   3.572   7.137   4.227
 9227SOL     OW39742   2.989   6.426   4.315
 9227SOL    HW139743   3.054   6.454   4.386
 9227SOL    HW239744   2.910   6.487   4.317
 9228SOL     OW39745   2.737   7.152   5.339
 9228SOL    HW139746   2.725   7.083   5.268
 9228SOL    HW239747   2.700   7.117   5.426
 9229SOL     OW39748   3.181   6.466   4.518
 9229SOL    HW139749   3.202   6.408   4.596
 9229SOL    HW239750   3.190   6.562   4.544
 9230SOL     OW39751   2.137   6.595   4.564
 9230SOL    HW139752   2.060   6.657   4.557
 9230SOL    HW239753   2.174   6.596   4.657
 9231SOL     OW39754   2.770   6.543   4.263
 9231SOL    HW139755   2.757   6.454   4.220
 9231SOL    HW239756   2.701   6.557   4.334
 9232SOL     OW39757   3.074   6.931   5.102
 9232SOL    HW139758   3.107   7.016   5.143
 9232SOL    HW239759   2.975   6.927   5.109
 9233SOL     OW39760   1.881   5.848   4.166
 9233SOL    HW139761   1.941   5.799   4.104
 9233SOL    HW239762   1.936   5.900   4.231
 9234SOL     OW39763   3.504   7.346   3.857
 9234SOL    HW139764   3.594   7.390   3.859
 9234SOL    HW239765   3.503   7.277   3.785
 9235SOL     OW39766   1.905   7.340   5.086
 9235SOL    HW139767   1.913   7.440   5.084
 9235SOL    HW239768   1.881   7.311   5.179
 9236SOL     OW39769   2.686   6.359   4.080
 9236SOL    HW139770   2.597   6.387   4.045
 9236SOL    HW239771   2.727   6.293   4.016
 9237SOL     OW39772   2.208   6.077   4.619
 9237SOL    HW139773   2.264   6.070   4.536
 9237SOL    HW239774   2.265   6.055   4.699
 9238SOL     OW39775   2.205   7.275   3.890
 9238SOL    HW139776   2.297   7.305   3.865
 9238SOL    HW239777   2.180   7.314   3.979
 9239SOL     OW39778   3.181   7.297   4.827
 9239SOL    HW139779   3.200   7.360   4.753
 9239SOL    HW239780   3.189   7.203   4.794
 9240SOL     OW39781   1.886   6.692   4.639
 9240SOL    HW139782   1.796   6.708   4.600
 9240SOL    HW239783   1.884   6.608   4.694
 9241SOL     OW39784   1.882   6.733   4.183
 9241SOL    HW139785   1.960   6.791   4.207
 9241SOL    HW239786   1.901   6.684   4.098
 9242SOL     OW39787   3.412   5.861   5.267
 9242SOL    HW139788   3.351   5.939   5.264
 9242SOL    HW239789   3.467   5.865   5.350
 9243SOL     OW39790   3.248   5.613   3.854
 9243SOL    HW139791   3.328   5.553   3.851
 9243SOL    HW239792   3.174   5.566   3.902
 9244SOL     OW39793   3.461   5.585   5.288
 9244SOL    HW139794   3.487   5.542   5.202
 9244SOL    HW239795   3.411   5.669   5.270
 9245SOL     OW39796   2.563   5.844   4.420
 9245SOL    HW139797   2.552   5.786   4.501
 9245SOL    HW239798   2.648   5.896   4.428
 9246SOL     OW39799   3.436   5.601   4.128
 9246SOL    HW139800   3.443   5.555   4.040
 9246SOL    HW239801   3.340   5.611   4.153
 9247SOL     OW39802   2.288   6.648   5.323
 9247SOL    HW139803   2.307   6.672   5.228
 9247SOL    HW239804   2.281   6.731   5.378
 9248SOL     OW39805   1.949   6.938   4.797
 9248SOL    HW139806   1.918   6.864   4.738
 9248SOL    HW239807   1.881   6.956   4.868
 9249SOL     OW39808   3.035   6.139   4.530
 9249SOL    HW139809   3.117   6.116   4.478
 9249SOL    HW239810   3.030   6.080   4.611
 9250SOL     OW39811   3.436   6.071   5.536
 9250SOL    HW139812   3.516   6.096   5.480
 9250SOL    HW239813   3.467   6.036   5.624
 9251SOL     OW39814   3.147   6.374   4.116
 9251SOL    HW139815   3.093   6.372   4.200
 9251SOL    HW239816   3.224   6.437   4.127
 9252SOL     OW39817   3.444   6.470   4.336
 9252SOL    HW139818   3.458   6.433   4.243
 9252SOL    HW239819   3.355   6.440   4.370
 9253SOL     OW39820   3.600   6.407   5.231
 9253SOL    HW139821   3.502   6.428   5.233
 9253SOL    HW239822   3.649   6.483   5.190
 9254SOL     OW39823   3.454   5.827   3.910
 9254SOL    HW139824   3.459   5.869   4.001
 9254SOL    HW239825   3.387   5.752   3.912
 9255SOL     OW39826   2.601   7.042   5.130
 9255SOL    HW139827   2.538   7.120   5.137
 9255SOL    HW239828   2.569   6.980   5.058
 9256SOL     OW39829   1.992   5.837   5.395
 9256SOL    HW139830   2.010   5.826   5.297
 9256SOL    HW239831   1.894   5.833   5.412
 9257SOL     OW39832   1.872   7.251   5.339
 9257SOL    HW139833   1.944   7.237   5.407
 9257SOL    HW239834   1.783   7.254   5.384
 9258SOL     OW39835   2.040   5.907   4.363
 9258SOL    HW139836   1.983   5.962   4.424
 9258SOL    HW239837   2.110   5.859   4.416
 9259SOL     OW39838   3.212   7.139   5.226
 9259SOL    HW139839   3.165   7.207   5.281
 9259SOL    HW239840   3.279   7.185   5.167
 9260SOL     OW39841   2.177   6.098   3.961
 9260SOL    HW139842   2.249   6.127   3.898
 9260SOL    HW239843   2.133   6.178   4.001
 9261SOL     OW39844   3.563   5.760   5.064
 9261SOL    HW139845   3.519   5.808   5.140
 9261SOL    HW239846   3.541   5.806   4.978
 9262SOL     OW39847   2.292   7.361   4.427
 9262SOL    HW139848   2.216   7.327   4.372
 9262SOL    HW239849   2.378   7.324   4.392
 9263SOL     OW39850   2.217   6.870   4.872
 9263SOL    HW139851   2.229   6.886   4.969
 9263SOL    HW239852   2.130   6.910   4.842
 9264SOL     OW39853   2.591   6.794   4.208
 9264SOL    HW139854   2.634   6.725   4.150
 9264SOL    HW239855   2.555   6.751   4.291
 9265SOL     OW39856   2.223   6.345   4.410
 9265SOL    HW139857   2.215   6.443   4.428
 9265SOL    HW239858   2.307   6.311   4.451
 9266SOL     OW39859   2.069   5.825   3.925
 9266SOL    HW139860   2.113   5.794   3.842
 9266SOL    HW239861   2.070   5.925   3.929
 9267SOL     OW39862   1.922   6.077   4.536
 9267SOL    HW139863   1.886   6.170   4.528
 9267SOL    HW239864   2.005   6.078   4.592
 9268SOL     OW39865   2.357   6.664   3.922
 9268SOL    HW139866   2.457   6.664   3.933
 9268SOL    HW239867   2.326   6.757   3.901
 9269SOL     OW39868   2.983   6.256   3.738
 9269SOL    HW139869   2.914   6.313   3.694
 9269SOL    HW239870   3.064   6.250   3.679
 9270SOL     OW39871   2.718   6.175   3.881
 9270SOL    HW139872   2.808   6.176   3.836
 9270SOL    HW239873   2.695   6.081   3.906
 9271SOL     OW39874   3.169   5.692   4.175
 9271SOL    HW139875   3.079   5.676   4.216
 9271SOL    HW239876   3.177   5.788   4.149
 9272SOL     OW39877   1.918   5.607   3.835
 9272SOL    HW139878   1.981   5.530   3.843
 9272SOL    HW239879   1.938   5.675   3.906
 9273SOL     OW39880   2.191   6.582   4.836
 9273SOL    HW139881   2.202   6.537   4.925
 9273SOL    HW239882   2.218   6.678   4.843
 9274SOL     OW39883   3.490   6.594   3.936
 9274SOL    HW139884   3.561   6.664   3.938
 9274SOL    HW239885   3.477   6.564   3.841
 9275SOL     OW39886   2.472   6.195   4.858
 9275SOL    HW139887   2.547   6.238   4.907
 9275SOL    HW239888   2.405   6.160   4.924
 9276SOL     OW39889   2.615   6.564   5.175
 9276SOL    HW139890   2.684   6.616   5.125
 9276SOL    HW239891   2.610   6.597   5.270
 9277SOL     OW39892   3.007   6.585   5.335
 9277SOL    HW139893   2.929   6.531   5.368
 9277SOL    HW239894   3.088   6.563   5.390
 9278SOL     OW39895   2.936   5.767   4.331
 9278SOL    HW139896   2.995   5.827   4.386
 9278SOL    HW239897   2.863   5.731   4.388
 9279SOL     OW39898   3.046   7.299   5.371
 9279SOL    HW139899   2.951   7.297   5.339
 9279SOL    HW239900   3.067   7.390   5.408
 9280SOL     OW39901   2.164   7.309   4.969
 9280SOL    HW139902   2.144   7.291   4.873
 9280SOL    HW239903   2.091   7.271   5.026
 9281SOL     OW39904   2.857   6.773   4.514
 9281SOL    HW139905   2.896   6.816   4.433
 9281SOL    HW239906   2.930   6.756   4.581
 9282SOL     OW39907   2.551   6.501   4.716
 9282SOL    HW139908   2.549   6.417   4.661
 9282SOL    HW239909   2.500   6.487   4.801
 9283SOL     OW39910   1.890   6.511   4.842
 9283SOL    HW139911   1.979   6.489   4.882
 9283SOL    HW239912   1.835   6.427   4.838
 9284SOL     OW39913   1.940   6.643   3.942
 9284SOL    HW139914   1.930   6.546   3.921
 9284SOL    HW239915   1.993   6.688   3.870
 9285SOL     OW39916   2.685   6.731   4.795
 9285SOL    HW139917   2.636   6.646   4.776
 9285SOL    HW239918   2.755   6.746   4.726
 9286SOL     OW39919   3.023   6.154   4.004
 9286SOL    HW139920   3.075   6.226   4.050
 9286SOL    HW239921   3.036   6.161   3.906
 9287SOL     OW39922   3.384   6.969   5.331
 9287SOL    HW139923   3.369   6.871   5.345
 9287SOL    HW239924   3.301   7.011   5.295
 9288SOL     OW39925   2.141   6.411   5.071
 9288SOL    HW139926   2.105   6.321   5.097
 9288SOL    HW239927   2.102   6.481   5.131
 9289SOL     OW39928   2.643   7.037   3.729
 9289SOL    HW139929   2.618   7.114   3.788
 9289SOL    HW239930   2.707   6.977   3.777
 9290SOL     OW39931   2.461   7.244   4.763
 9290SOL    HW139932   2.481   7.214   4.670
 9290SOL    HW239933   2.386   7.189   4.800
 9291SOL     OW39934   2.604   6.655   4.480
 9291SOL    HW139935   2.693   6.701   4.480
 9291SOL    HW239936   2.597   6.595   4.559
 9292SOL     OW39937   2.782   7.002   4.149
 9292SOL    HW139938   2.832   6.990   4.064
 9292SOL    HW239939   2.728   6.919   4.168
 9293SOL     OW39940   1.972   6.349   4.549
 9293SOL    HW139941   2.067   6.340   4.517
 9293SOL    HW239942   1.938   6.441   4.528
 9294SOL     OW39943   2.806   7.375   5.182
 9294SOL    HW139944   2.778   7.288   5.223
 9294SOL    HW239945   2.750   7.449   5.219
 9295SOL     OW39946   3.035   6.722   4.712
 9295SOL    HW139947   3.019   6.816   4.743
 9295SOL    HW239948   3.038   6.661   4.792
 9296SOL     OW39949   2.309   5.993   5.476
 9296SOL    HW139950   2.345   5.940   5.399
 9296SOL    HW239951   2.370   6.070   5.494
 9297SOL     OW39952   2.373   6.410   4.048
 9297SOL    HW139953   2.323   6.475   3.992
 9297SOL    HW239954   2.315   6.331   4.067
 9298SOL     OW39955   1.847   5.583   4.243
 9298SOL    HW139956   1.760   5.570   4.196
 9298SOL    HW239957   1.855   5.678   4.273
 9299SOL     OW39958   3.068   5.684   5.484
 9299SOL    HW139959   3.127   5.700   5.564
 9299SOL    HW239960   3.015   5.767   5.465
 9300SOL     OW39961   2.284   7.103   5.309
 9300SOL    HW139962   2.226   7.168   5.358
 9300SOL    HW239963   2.346   7.153   5.249
 9301SOL     OW39964   3.640   6.990   5.250
 9301SOL    HW139965   3.668   7.083   5.272
 9301SOL    HW239966   3.547   6.974   5.283
 9302SOL     OW39967   2.890   6.103   4.800
 9302SOL    HW139968   2.976   6.154   4.799
 9302SOL    HW239969   2.896   6.029   4.867
 9303SOL     OW39970   2.294   7.049   4.372
 9303SOL    HW139971   2.292   6.950   4.385
 9303SOL    HW239972   2.203   7.082   4.349
 9304SOL     OW39973   2.935   7.166   4.960
 9304SOL    HW139974   2.861   7.230   4.978
 9304SOL    HW239975   3.014   7.215   4.922
 9305SOL     OW39976   2.144   7.296   5.459
 9305SOL    HW139977   2.187   7.380   5.425
 9305SOL    HW239978   2.169   7.283   5.555
 9306SOL     OW39979   2.004   6.832   5.330
 9306SOL    HW139980   1.983   6.737   5.303
 9306SOL    HW239981   1.935   6.893   5.292
 9307SOL     OW39982   2.093   7.197   4.734
 9307SOL    HW139983   2.035   7.117   4.748
 9307SOL    HW239984   2.117   7.204   4.637
 9308SOL     OW39985   2.839   5.718   4.589
 9308SOL    HW139986   2.935   5.719   4.617
 9308SOL    HW239987   2.784   5.675   4.661
 9309SOL     OW39988   2.901   6.724   4.105
 9309SOL    HW139989   2.981   6.760   4.153
 9309SOL    HW239990   2.859   6.651   4.161
 9310SOL     OW39991   2.635   6.663   3.955
 9310SOL    HW139992   2.707   6.722   3.920
 9310SOL    HW239993   2.675   6.579   3.991
 9311SOL     OW39994   2.706   5.639   3.807
 9311SOL    HW139995   2.781   5.573   3.819
 9311SOL    HW239996   2.737   5.730   3.835
 9312SOL     OW39997   2.385   6.068   4.419
 9312SOL    HW139998   2.423   5.979   4.445
 9312SOL    HW239999   2.452   6.118   4.364
 9313SOL     OW40000   2.373   6.626   5.073
 9313SOL    HW140001   2.469   6.606   5.093
 9313SOL    HW240002   2.362   6.724   5.055
 9314SOL     OW40003   3.595   6.669   5.042
 9314SOL    HW140004   3.609   6.767   5.056
 9314SOL    HW240005   3.652   6.638   4.966
 9315SOL     OW40006   2.078   6.778   3.734
 9315SOL    HW140007   2.070   6.790   3.635
 9315SOL    HW240008   2.137   6.849   3.772
 9316SOL     OW40009   2.505   7.217   3.894
 9316SOL    HW140010   2.480   7.312   3.878
 9316SOL    HW240011   2.472   7.189   3.984
 9317SOL     OW40012   3.155   6.640   5.118
 9317SOL    HW140013   3.099   6.599   5.189
 9317SOL    HW240014   3.135   6.738   5.112
 9318SOL     OW40015   2.422   7.256   5.118
 9318SOL    HW140016   2.471   7.336   5.082
 9318SOL    HW240017   2.330   7.254   5.079
 9319SOL     OW40018   2.065   6.137   5.480
 9319SOL    HW140019   2.082   6.038   5.485
 9319SOL    HW240020   2.129   6.185   5.541
 9320SOL     OW40021   3.504   7.098   4.719
 9320SOL    HW140022   3.476   7.191   4.743
 9320SOL    HW240023   3.554   7.057   4.795
 9321SOL     OW40024   1.900   6.471   4.280
 9321SOL    HW140025   1.907   6.570   4.267
 9321SOL    HW240026   1.809   6.448   4.314
 9322SOL     OW40027   3.476   6.645   4.530
 9322SOL    HW140028   3.438   6.734   4.503
 9322SOL    HW240029   3.476   6.583   4.452
 9323SOL     OW40030   2.634   6.051   4.699
 9323SOL    HW140031   2.726   6.079   4.726
 9323SOL    HW240032   2.566   6.102   4.753
 9324SOL     OW40033   2.487   6.902   4.926
 9324SOL    HW140034   2.400   6.901   4.877
 9324SOL    HW240035   2.553   6.842   4.879
 9325SOL     OW40036   2.053   6.244   4.840
 9325SOL    HW140037   2.091   6.303   4.911
 9325SOL    HW240038   2.036   6.297   4.758
 9326SOL     OW40039   2.224   6.890   5.138
 9326SOL    HW140040   2.243   6.978   5.182
 9326SOL    HW240041   2.129   6.864   5.156
 9327SOL     OW40042   3.467   7.206   5.486
 9327SOL    HW140043   3.436   7.128   5.431
 9327SOL    HW240044   3.436   7.291   5.444
 9328SOL     OW40045   3.175   6.744   4.207
 9328SOL    HW140046   3.274   6.748   4.223
 9328SOL    HW240047   3.158   6.730   4.109
 9329SOL     OW40048   2.528   5.910   4.155
 9329SOL    HW140049   2.430   5.904   4.135
 9329SOL    HW240050   2.547   5.867   4.243
 9330SOL     OW40051   3.448   5.593   4.414
 9330SOL    HW140052   3.443   5.634   4.323
 9330SOL    HW240053   3.529   5.627   4.461
 9331SOL     OW40054   2.545   6.309   4.509
 9331SOL    HW140055   2.567   6.231   4.567
 9331SOL    HW240056   2.554   6.283   4.413
 9332SOL     OW40057   3.210   7.016   4.721
 9332SOL    HW140058   3.124   6.973   4.750
 9332SOL    HW240059   3.199   7.056   4.630
 9333SOL     OW40060   3.213   6.001   4.396
 9333SOL    HW140061   3.212   5.993   4.297
 9333SOL    HW240062   3.302   5.973   4.431
 9334SOL     OW40063   3.451   6.813   6.086
 9334SOL    HW140064   3.462   6.897   6.140
 9334SOL    HW240065   3.541   6.776   6.063
 9335SOL     OW40066   2.198   5.732   5.555
 9335SOL    HW140067   2.111   5.729   5.506
 9335SOL    HW240068   2.249   5.814   5.527
 9336SOL     OW40069   3.063   5.632   6.888
 9336SOL    HW140070   2.987   5.587   6.935
 9336SOL    HW240071   3.092   5.577   6.810
 9337SOL     OW40072   2.801   6.412   7.265
 9337SOL    HW140073   2.766   6.387   7.175
 9337SOL    HW240074   2.725   6.433   7.326
 9338SOL     OW40075   2.408   7.086   5.959
 9338SOL    HW140076   2.364   7.095   6.048
 9338SOL    HW240077   2.479   7.016   5.963
 9339SOL     OW40078   2.426   5.619   5.681
 9339SOL    HW140079   2.514   5.647   5.642
 9339SOL    HW240080   2.354   5.682   5.651
 9340SOL     OW40081   2.335   6.759   6.254
 9340SOL    HW140082   2.268   6.713   6.313
 9340SOL    HW240083   2.427   6.727   6.277
 9341SOL     OW40084   2.562   6.165   6.085
 9341SOL    HW140085   2.601   6.235   6.026
 9341SOL    HW240086   2.536   6.085   6.031
 9342SOL     OW40087   3.182   6.073   7.294
 9342SOL    HW140088   3.278   6.077   7.320
 9342SOL    HW240089   3.138   5.997   7.341
 9343SOL     OW40090   2.416   5.884   6.548
 9343SOL    HW140091   2.492   5.949   6.544
 9343SOL    HW240092   2.446   5.795   6.515
 9344SOL     OW40093   3.503   5.830   6.656
 9344SOL    HW140094   3.554   5.902   6.609
 9344SOL    HW240095   3.408   5.857   6.665
 9345SOL     OW40096   2.903   5.859   5.925
 9345SOL    HW140097   2.928   5.953   5.946
 9345SOL    HW240098   2.904   5.805   6.009
 9346SOL     OW40099   2.526   7.141   6.351
 9346SOL    HW140100   2.599   7.164   6.287
 9346SOL    HW240101   2.455   7.088   6.305
 9347SOL     OW40102   2.868   6.173   7.105
 9347SOL    HW140103   2.901   6.090   7.152
 9347SOL    HW240104   2.941   6.241   7.104
 9348SOL     OW40105   2.203   6.794   6.003
 9348SOL    HW140106   2.249   6.768   6.088
 9348SOL    HW240107   2.223   6.726   5.932
 9349SOL     OW40108   3.061   5.849   5.714
 9349SOL    HW140109   3.155   5.819   5.732
 9349SOL    HW240110   3.009   5.849   5.800
 9350SOL     OW40111   2.213   6.054   6.809
 9350SOL    HW140112   2.203   5.967   6.761
 9350SOL    HW240113   2.149   6.121   6.772
 9351SOL     OW40114   2.248   5.826   5.968
 9351SOL    HW140115   2.202   5.866   6.047
 9351SOL    HW240116   2.196   5.845   5.886
 9352SOL     OW40117   3.376   7.353   6.880
 9352SOL    HW140118   3.319   7.304   6.814
 9352SOL    HW240119   3.462   7.380   6.837
 9353SOL     OW40120   3.688   7.297   6.648
 9353SOL    HW140121   3.734   7.307   6.736
 9353SOL    HW240122   3.755   7.300   6.575
 9354SOL     OW40123   2.801   6.037   6.210
 9354SOL    HW140124   2.877   6.065   6.269
 9354SOL    HW240125   2.757   6.117   6.171
 9355SOL     OW40126   2.878   5.923   7.348
 9355SOL    HW140127   2.941   5.928   7.425
 9355SOL    HW240128   2.786   5.901   7.381
 9356SOL     OW40129   3.619   6.170   5.806
 9356SOL    HW140130   3.640   6.089   5.752
 9356SOL    HW240131   3.636   6.151   5.903
 9357SOL     OW40132   2.594   5.575   7.246
 9357SOL    HW140133   2.601   5.481   7.213
 9357SOL    HW240134   2.651   5.585   7.328
 9358SOL     OW40135   2.927   6.842   7.280
 9358SOL    HW140136   2.949   6.752   7.242
 9358SOL    HW240137   2.862   6.889   7.221
 9359SOL     OW40138   3.217   5.548   6.390
 9359SOL    HW140139   3.166   5.632   6.372
 9359SOL    HW240140   3.303   5.550   6.339
 9360SOL     OW40141   3.572   5.754   7.319
 9360SOL    HW140142   3.549   5.775   7.414
 9360SOL    HW240143   3.548   5.659   7.299
 9361SOL     OW40144   2.196   5.746   6.384
 9361SOL    HW140145   2.248   5.786   6.459
 9361SOL    HW240146   2.249   5.673   6.341
 9362SOL     OW40147   2.180   5.794   6.718
 9362SOL    HW140148   2.145   5.701   6.718
 9362SOL    HW240149   2.267   5.797   6.669
 9363SOL     OW40150   2.847   6.416   6.458
 9363SOL    HW140151   2.873   6.496   6.404
 9363SOL    HW240152   2.841   6.336   6.398
 9364SOL     OW40153   2.048   7.043   5.917
 9364SOL    HW140154   2.075   6.949   5.937
 9364SOL    HW240155   2.073   7.065   5.823
 9365SOL     OW40156   2.062   7.186   6.154
 9365SOL    HW140157   1.978   7.237   6.172
 9365SOL    HW240158   2.053   7.135   6.069
 9366SOL     OW40159   2.852   6.670   6.855
 9366SOL    HW140160   2.902   6.585   6.839
 9366SOL    HW240161   2.806   6.697   6.770
 9367SOL     OW40162   3.459   6.373   5.929
 9367SOL    HW140163   3.527   6.307   5.896
 9367SOL    HW240164   3.474   6.461   5.885
 9368SOL     OW40165   2.707   7.360   6.577
 9368SOL    HW140166   2.753   7.293   6.519
 9368SOL    HW240167   2.633   7.316   6.627
 9369SOL     OW40168   3.210   5.961   5.959
 9369SOL    HW140169   3.147   6.019   5.907
 9369SOL    HW240170   3.303   5.995   5.947
 9370SOL     OW40171   2.107   6.162   7.059
 9370SOL    HW140172   2.127   6.067   7.034
 9370SOL    HW240173   2.070   6.165   7.152
 9371SOL     OW40174   1.989   5.817   6.949
 9371SOL    HW140175   2.061   5.827   6.880
 9371SOL    HW240176   1.900   5.816   6.904
 9372SOL     OW40177   2.887   6.438   6.714
 9372SOL    HW140178   2.881   6.424   6.615
 9372SOL    HW240179   2.806   6.399   6.758
 9373SOL     OW40180   3.478   5.972   6.029
 9373SOL    HW140181   3.574   5.943   6.026
 9373SOL    HW240182   3.439   5.950   6.118
 9374SOL     OW40183   2.762   7.047   6.466
 9374SOL    HW140184   2.820   7.058   6.385
 9374SOL    HW240185   2.668   7.071   6.444
 9375SOL     OW40186   2.989   6.426   6.160
 9375SOL    HW140187   3.054   6.454   6.231
 9375SOL    HW240188   2.910   6.487   6.162
 9376SOL     OW40189   2.137   6.595   6.409
 9376SOL    HW140190   2.060   6.657   6.402
 9376SOL    HW240191   2.174   6.596   6.502
 9377SOL     OW40192   2.770   6.543   6.108
 9377SOL    HW140193   2.757   6.454   6.065
 9377SOL    HW240194   2.701   6.557   6.179
 9378SOL     OW40195   3.074   6.931   6.947
 9378SOL    HW140196   3.107   7.016   6.988
 9378SOL    HW240197   2.975   6.927   6.954
 9379SOL     OW40198   1.881   5.848   6.011
 9379SOL    HW140199   1.941   5.799   5.949
 9379SOL    HW240200   1.936   5.900   6.076
 9380SOL     OW40201   2.668   6.313   6.860
 9380SOL    HW140202   2.670   6.399   6.911
 9380SOL    HW240203   2.725   6.245   6.907
 9381SOL     OW40204   1.905   7.340   6.931
 9381SOL    HW140205   1.913   7.440   6.929
 9381SOL    HW240206   1.881   7.311   7.024
 9382SOL     OW40207   2.208   6.077   6.464
 9382SOL    HW140208   2.264   6.070   6.381
 9382SOL    HW240209   2.265   6.055   6.544
 9383SOL     OW40210   2.205   7.275   5.735
 9383SOL    HW140211   2.297   7.305   5.710
 9383SOL    HW240212   2.180   7.314   5.824
 9384SOL     OW40213   3.181   7.297   6.672
 9384SOL    HW140214   3.200   7.360   6.598
 9384SOL    HW240215   3.189   7.203   6.639
 9385SOL     OW40216   1.886   6.692   6.484
 9385SOL    HW140217   1.796   6.708   6.445
 9385SOL    HW240218   1.884   6.608   6.539
 9386SOL     OW40219   2.637   5.597   5.934
 9386SOL    HW140220   2.598   5.586   5.843
 9386SOL    HW240221   2.593   5.673   5.981
 9387SOL     OW40222   1.882   6.733   6.028
 9387SOL    HW140223   1.960   6.791   6.052
 9387SOL    HW240224   1.901   6.684   5.943
 9388SOL     OW40225   3.412   5.861   7.112
 9388SOL    HW140226   3.351   5.939   7.109
 9388SOL    HW240227   3.467   5.865   7.195
 9389SOL     OW40228   3.128   5.807   6.403
 9389SOL    HW140229   3.127   5.885   6.340
 9389SOL    HW240230   3.171   5.834   6.489
 9390SOL     OW40231   3.248   5.613   5.699
 9390SOL    HW140232   3.328   5.553   5.696
 9390SOL    HW240233   3.174   5.566   5.747
 9391SOL     OW40234   3.461   5.585   7.133
 9391SOL    HW140235   3.487   5.542   7.047
 9391SOL    HW240236   3.411   5.669   7.115
 9392SOL     OW40237   2.563   5.844   6.265
 9392SOL    HW140238   2.552   5.786   6.346
 9392SOL    HW240239   2.648   5.896   6.273
 9393SOL     OW40240   3.143   6.195   6.657
 9393SOL    HW140241   3.197   6.235   6.583
 9393SOL    HW240242   3.181   6.224   6.745
 9394SOL     OW40243   3.436   5.601   5.973
 9394SOL    HW140244   3.443   5.555   5.885
 9394SOL    HW240245   3.340   5.611   5.998
 9395SOL     OW40246   1.949   6.938   6.642
 9395SOL    HW140247   1.918   6.864   6.583
 9395SOL    HW240248   1.881   6.956   6.713
 9396SOL     OW40249   3.035   6.139   6.375
 9396SOL    HW140250   3.117   6.116   6.323
 9396SOL    HW240251   3.030   6.080   6.456
 9397SOL     OW40252   3.635   6.166   7.211
 9397SOL    HW140253   3.624   6.252   7.160
 9397SOL    HW240254   3.729   6.157   7.241
 9398SOL     OW40255   3.206   5.939   6.630
 9398SOL    HW140256   3.180   6.036   6.636
 9398SOL    HW240257   3.206   5.899   6.722
 9399SOL     OW40258   3.436   6.071   7.381
 9399SOL    HW140259   3.516   6.096   7.325
 9399SOL    HW240260   3.467   6.036   7.469
 9400SOL     OW40261   3.147   6.374   5.961
 9400SOL    HW140262   3.093   6.372   6.045
 9400SOL    HW240263   3.224   6.437   5.972
 9401SOL     OW40264   3.444   6.470   6.181
 9401SOL    HW140265   3.458   6.433   6.088
 9401SOL    HW240266   3.355   6.440   6.215
 9402SOL     OW40267   3.454   5.827   5.755
 9402SOL    HW140268   3.459   5.869   5.846
 9402SOL    HW240269   3.387   5.752   5.757
 9403SOL     OW40270   1.992   5.837   7.240
 9403SOL    HW140271   2.010   5.826   7.142
 9403SOL    HW240272   1.894   5.833   7.257
 9404SOL     OW40273   1.872   7.251   7.184
 9404SOL    HW140274   1.944   7.237   7.252
 9404SOL    HW240275   1.783   7.254   7.229
 9405SOL     OW40276   2.040   5.907   6.208
 9405SOL    HW140277   1.983   5.962   6.269
 9405SOL    HW240278   2.110   5.859   6.261
 9406SOL     OW40279   3.212   7.139   7.071
 9406SOL    HW140280   3.165   7.207   7.126
 9406SOL    HW240281   3.279   7.185   7.012
 9407SOL     OW40282   2.177   6.098   5.806
 9407SOL    HW140283   2.249   6.127   5.743
 9407SOL    HW240284   2.133   6.178   5.846
 9408SOL     OW40285   3.563   5.760   6.909
 9408SOL    HW140286   3.519   5.808   6.985
 9408SOL    HW240287   3.541   5.806   6.823
 9409SOL     OW40288   2.292   7.361   6.272
 9409SOL    HW140289   2.216   7.327   6.217
 9409SOL    HW240290   2.378   7.324   6.237
 9410SOL     OW40291   2.217   6.870   6.717
 9410SOL    HW140292   2.229   6.886   6.814
 9410SOL    HW240293   2.130   6.910   6.687
 9411SOL     OW40294   3.101   7.074   7.363
 9411SOL    HW140295   3.060   6.989   7.329
 9411SOL    HW240296   3.081   7.148   7.299
 9412SOL     OW40297   2.591   6.794   6.053
 9412SOL    HW140298   2.634   6.725   5.995
 9412SOL    HW240299   2.555   6.751   6.136
 9413SOL     OW40300   2.223   6.345   6.255
 9413SOL    HW140301   2.215   6.443   6.273
 9413SOL    HW240302   2.307   6.311   6.296
 9414SOL     OW40303   2.069   5.825   5.770
 9414SOL    HW140304   2.113   5.794   5.687
 9414SOL    HW240305   2.070   5.925   5.774
 9415SOL     OW40306   1.922   6.077   6.381
 9415SOL    HW140307   1.886   6.170   6.373
 9415SOL    HW240308   2.005   6.078   6.437
 9416SOL     OW40309   2.357   6.664   5.767
 9416SOL    HW140310   2.457   6.664   5.778
 9416SOL    HW240311   2.326   6.757   5.746
 9417SOL     OW40312   2.983   6.256   5.583
 9417SOL    HW140313   2.914   6.313   5.539
 9417SOL    HW240314   3.064   6.250   5.524
 9418SOL     OW40315   3.169   5.692   6.020
 9418SOL    HW140316   3.079   5.676   6.061
 9418SOL    HW240317   3.177   5.788   5.994
 9419SOL     OW40318   3.283   6.092   7.036
 9419SOL    HW140319   3.235   6.115   7.120
 9419SOL    HW240320   3.217   6.062   6.967
 9420SOL     OW40321   1.918   5.607   5.680
 9420SOL    HW140322   1.981   5.530   5.688
 9420SOL    HW240323   1.938   5.675   5.751
 9421SOL     OW40324   2.191   6.582   6.681
 9421SOL    HW140325   2.202   6.537   6.770
 9421SOL    HW240326   2.218   6.678   6.688
 9422SOL     OW40327   3.490   6.594   5.781
 9422SOL    HW140328   3.561   6.664   5.783
 9422SOL    HW240329   3.477   6.564   5.686
 9423SOL     OW40330   2.472   6.195   6.703
 9423SOL    HW140331   2.547   6.238   6.752
 9423SOL    HW240332   2.405   6.160   6.769
 9424SOL     OW40333   2.615   6.564   7.020
 9424SOL    HW140334   2.684   6.616   6.970
 9424SOL    HW240335   2.610   6.597   7.115
 9425SOL     OW40336   3.007   6.585   7.180
 9425SOL    HW140337   2.929   6.531   7.213
 9425SOL    HW240338   3.088   6.563   7.235
 9426SOL     OW40339   2.936   5.767   6.176
 9426SOL    HW140340   2.995   5.827   6.231
 9426SOL    HW240341   2.863   5.731   6.233
 9427SOL     OW40342   3.046   7.299   7.216
 9427SOL    HW140343   2.951   7.297   7.184
 9427SOL    HW240344   3.067   7.390   7.253
 9428SOL     OW40345   2.464   5.644   6.447
 9428SOL    HW140346   2.392   5.577   6.433
 9428SOL    HW240347   2.546   5.598   6.482
 9429SOL     OW40348   2.164   7.309   6.814
 9429SOL    HW140349   2.144   7.291   6.718
 9429SOL    HW240350   2.091   7.271   6.871
 9430SOL     OW40351   2.551   6.501   6.561
 9430SOL    HW140352   2.549   6.417   6.506
 9430SOL    HW240353   2.500   6.487   6.646
 9431SOL     OW40354   1.890   6.511   6.687
 9431SOL    HW140355   1.979   6.489   6.727
 9431SOL    HW240356   1.835   6.427   6.683
 9432SOL     OW40357   2.118   5.556   5.967
 9432SOL    HW140358   2.156   5.644   5.994
 9432SOL    HW240359   2.041   5.532   6.027
 9433SOL     OW40360   2.534   6.173   7.295
 9433SOL    HW140361   2.486   6.224   7.224
 9433SOL    HW240362   2.627   6.152   7.265
 9434SOL     OW40363   3.637   5.755   6.388
 9434SOL    HW140364   3.592   5.737   6.475
 9434SOL    HW240365   3.735   5.772   6.404
 9435SOL     OW40366   2.685   6.731   6.640
 9435SOL    HW140367   2.636   6.646   6.621
 9435SOL    HW240368   2.755   6.746   6.571
 9436SOL     OW40369   3.023   6.154   5.849
 9436SOL    HW140370   3.075   6.226   5.895
 9436SOL    HW240371   3.036   6.161   5.751
 9437SOL     OW40372   3.384   6.969   7.176
 9437SOL    HW140373   3.369   6.871   7.190
 9437SOL    HW240374   3.301   7.011   7.140
 9438SOL     OW40375   2.461   7.244   6.608
 9438SOL    HW140376   2.481   7.214   6.515
 9438SOL    HW240377   2.386   7.189   6.645
 9439SOL     OW40378   2.604   6.655   6.325
 9439SOL    HW140379   2.693   6.701   6.325
 9439SOL    HW240380   2.597   6.595   6.404
 9440SOL     OW40381   1.972   6.349   6.394
 9440SOL    HW140382   2.067   6.340   6.362
 9440SOL    HW240383   1.938   6.441   6.373
 9441SOL     OW40384   2.806   7.375   7.027
 9441SOL    HW140385   2.778   7.288   7.068
 9441SOL    HW240386   2.750   7.449   7.064
 9442SOL     OW40387   2.309   5.993   7.321
 9442SOL    HW140388   2.345   5.940   7.244
 9442SOL    HW240389   2.370   6.070   7.339
 9443SOL     OW40390   2.373   6.410   5.893
 9443SOL    HW140391   2.323   6.475   5.837
 9443SOL    HW240392   2.315   6.331   5.912
 9444SOL     OW40393   3.146   5.884   6.887
 9444SOL    HW140394   3.217   5.856   6.951
 9444SOL    HW240395   3.093   5.804   6.859
 9445SOL     OW40396   1.847   5.583   6.088
 9445SOL    HW140397   1.760   5.570   6.041
 9445SOL    HW240398   1.855   5.678   6.118
 9446SOL     OW40399   3.068   5.684   7.329
 9446SOL    HW140400   3.127   5.700   7.409
 9446SOL    HW240401   3.015   5.767   7.310
 9447SOL     OW40402   3.640   6.990   7.095
 9447SOL    HW140403   3.668   7.083   7.117
 9447SOL    HW240404   3.547   6.974   7.128
 9448SOL     OW40405   2.890   6.103   6.645
 9448SOL    HW140406   2.976   6.154   6.644
 9448SOL    HW240407   2.896   6.029   6.712
 9449SOL     OW40408   2.294   7.049   6.217
 9449SOL    HW140409   2.292   6.950   6.230
 9449SOL    HW240410   2.203   7.082   6.194
 9450SOL     OW40411   2.935   7.166   6.805
 9450SOL    HW140412   2.861   7.230   6.823
 9450SOL    HW240413   3.014   7.215   6.767
 9451SOL     OW40414   2.093   7.197   6.579
 9451SOL    HW140415   2.035   7.117   6.593
 9451SOL    HW240416   2.117   7.204   6.482
 9452SOL     OW40417   2.839   5.718   6.434
 9452SOL    HW140418   2.935   5.719   6.462
 9452SOL    HW240419   2.784   5.675   6.506
 9453SOL     OW40420   2.901   6.724   5.950
 9453SOL    HW140421   2.981   6.760   5.998
 9453SOL    HW240422   2.859   6.651   6.006
 9454SOL     OW40423   3.492   5.991   6.314
 9454SOL    HW140424   3.511   6.077   6.361
 9454SOL    HW240425   3.560   5.922   6.342
 9455SOL     OW40426   2.706   5.639   5.652
 9455SOL    HW140427   2.781   5.573   5.664
 9455SOL    HW240428   2.737   5.730   5.680
 9456SOL     OW40429   2.385   6.068   6.264
 9456SOL    HW140430   2.423   5.979   6.290
 9456SOL    HW240431   2.452   6.118   6.209
 9457SOL     OW40432   2.373   6.626   6.918
 9457SOL    HW140433   2.469   6.606   6.938
 9457SOL    HW240434   2.362   6.724   6.900
 9458SOL     OW40435   2.078   6.778   5.579
 9458SOL    HW140436   2.070   6.790   5.480
 9458SOL    HW240437   2.137   6.849   5.617
 9459SOL     OW40438   2.505   7.217   5.739
 9459SOL    HW140439   2.480   7.312   5.723
 9459SOL    HW240440   2.472   7.189   5.829
 9460SOL     OW40441   3.155   6.640   6.963
 9460SOL    HW140442   3.099   6.599   7.034
 9460SOL    HW240443   3.135   6.738   6.957
 9461SOL     OW40444   2.065   6.137   7.325
 9461SOL    HW140445   2.082   6.038   7.330
 9461SOL    HW240446   2.129   6.185   7.386
 9462SOL     OW40447   2.409   6.269   7.063
 9462SOL    HW140448   2.315   6.239   7.044
 9462SOL    HW240449   2.418   6.366   7.040
 9463SOL     OW40450   3.476   6.645   6.375
 9463SOL    HW140451   3.438   6.734   6.348
 9463SOL    HW240452   3.476   6.583   6.297
 9464SOL     OW40453   2.634   6.051   6.544
 9464SOL    HW140454   2.726   6.079   6.571
 9464SOL    HW240455   2.566   6.102   6.598
 9465SOL     OW40456   2.053   6.244   6.685
 9465SOL    HW140457   2.091   6.303   6.756
 9465SOL    HW240458   2.036   6.297   6.603
 9466SOL     OW40459   2.224   6.890   6.983
 9466SOL    HW140460   2.243   6.978   7.027
 9466SOL    HW240461   2.129   6.864   7.001
 9467SOL     OW40462   3.467   7.206   7.331
 9467SOL    HW140463   3.436   7.128   7.276
 9467SOL    HW240464   3.436   7.291   7.289
 9468SOL     OW40465   3.175   6.744   6.052
 9468SOL    HW140466   3.274   6.748   6.068
 9468SOL    HW240467   3.158   6.730   5.954
 9469SOL     OW40468   2.528   5.910   6.000
 9469SOL    HW140469   2.430   5.904   5.980
 9469SOL    HW240470   2.547   5.867   6.088
 9470SOL     OW40471   3.448   5.593   6.259
 9470SOL    HW140472   3.443   5.634   6.168
 9470SOL    HW240473   3.529   5.627   6.306
 9471SOL     OW40474   3.051   6.349   6.952
 9471SOL    HW140475   3.150   6.358   6.942
 9471SOL    HW240476   3.007   6.351   6.862
 9472SOL     OW40477   2.545   6.309   6.354
 9472SOL    HW140478   2.567   6.231   6.412
 9472SOL    HW240479   2.554   6.283   6.258
 9473SOL     OW40480   3.213   6.001   6.241
 9473SOL    HW140481   3.212   5.993   6.142
 9473SOL    HW240482   3.302   5.973   6.276
 9474SOL     OW40483   2.940   7.017   8.074
 9474SOL    HW140484   3.031   7.051   8.097
 9474SOL    HW240485   2.912   7.055   7.986
 9475SOL     OW40486   3.451   6.813   7.932
 9475SOL    HW140487   3.462   6.897   7.986
 9475SOL    HW240488   3.541   6.776   7.909
 9476SOL     OW40489   3.531   6.095   8.796
 9476SOL    HW140490   3.433   6.087   8.818
 9476SOL    HW240491   3.584   6.084   8.880
 9477SOL     OW40492   2.198   5.732   7.401
 9477SOL    HW140493   2.111   5.729   7.352
 9477SOL    HW240494   2.249   5.814   7.373
 9478SOL     OW40495   3.185   7.121   8.176
 9478SOL    HW140496   3.174   7.218   8.199
 9478SOL    HW240497   3.278   7.104   8.146
 9479SOL     OW40498   3.063   5.632   8.734
 9479SOL    HW140499   2.987   5.587   8.781
 9479SOL    HW240500   3.092   5.577   8.656
 9480SOL     OW40501   2.801   6.412   9.111
 9480SOL    HW140502   2.766   6.387   9.021
 9480SOL    HW240503   2.725   6.433   9.172
 9481SOL     OW40504   2.408   7.086   7.805
 9481SOL    HW140505   2.364   7.095   7.894
 9481SOL    HW240506   2.479   7.016   7.809
 9482SOL     OW40507   2.426   5.619   7.527
 9482SOL    HW140508   2.514   5.647   7.488
 9482SOL    HW240509   2.354   5.682   7.497
 9483SOL     OW40510   3.396   6.604   8.910
 9483SOL    HW140511   3.304   6.609   8.872
 9483SOL    HW240512   3.461   6.642   8.844
 9484SOL     OW40513   3.296   6.611   8.591
 9484SOL    HW140514   3.221   6.600   8.656
 9484SOL    HW240515   3.333   6.704   8.597
 9485SOL     OW40516   2.792   6.866   8.891
 9485SOL    HW140517   2.735   6.929   8.837
 9485SOL    HW240518   2.825   6.792   8.832
 9486SOL     OW40519   2.335   6.759   8.100
 9486SOL    HW140520   2.268   6.713   8.159
 9486SOL    HW240521   2.427   6.727   8.123
 9487SOL     OW40522   2.562   6.165   7.931
 9487SOL    HW140523   2.601   6.235   7.872
 9487SOL    HW240524   2.536   6.085   7.877
 9488SOL     OW40525   3.182   6.073   9.140
 9488SOL    HW140526   3.278   6.077   9.166
 9488SOL    HW240527   3.138   5.997   9.187
 9489SOL     OW40528   2.416   5.884   8.394
 9489SOL    HW140529   2.492   5.949   8.390
 9489SOL    HW240530   2.446   5.795   8.361
 9490SOL     OW40531   2.113   6.310   7.812
 9490SOL    HW140532   2.128   6.244   7.886
 9490SOL    HW240533   2.063   6.389   7.847
 9491SOL     OW40534   2.699   7.255   7.989
 9491SOL    HW140535   2.764   7.188   7.953
 9491SOL    HW240536   2.689   7.331   7.925
 9492SOL     OW40537   3.591   7.137   7.731
 9492SOL    HW140538   3.687   7.111   7.724
 9492SOL    HW240539   3.567   7.197   7.655
 9493SOL     OW40540   3.503   5.830   8.502
 9493SOL    HW140541   3.554   5.902   8.455
 9493SOL    HW240542   3.408   5.857   8.511
 9494SOL     OW40543   2.903   5.859   7.771
 9494SOL    HW140544   2.928   5.953   7.792
 9494SOL    HW240545   2.904   5.805   7.855
 9495SOL     OW40546   2.027   6.572   8.956
 9495SOL    HW140547   2.123   6.587   8.974
 9495SOL    HW240548   1.989   6.510   9.025
 9496SOL     OW40549   2.353   6.217   7.499
 9496SOL    HW140550   2.313   6.296   7.452
 9496SOL    HW240551   2.442   6.196   7.459
 9497SOL     OW40552   2.526   7.141   8.197
 9497SOL    HW140553   2.599   7.164   8.133
 9497SOL    HW240554   2.455   7.088   8.151
 9498SOL     OW40555   2.868   6.173   8.951
 9498SOL    HW140556   2.901   6.090   8.998
 9498SOL    HW240557   2.941   6.241   8.950
 9499SOL     OW40558   3.472   6.973   8.173
 9499SOL    HW140559   3.468   7.008   8.266
 9499SOL    HW240560   3.531   7.032   8.117
 9500SOL     OW40561   2.203   6.794   7.849
 9500SOL    HW140562   2.249   6.768   7.934
 9500SOL    HW240563   2.223   6.726   7.778
 9501SOL     OW40564   3.061   5.849   7.560
 9501SOL    HW140565   3.155   5.819   7.578
 9501SOL    HW240566   3.009   5.849   7.646
 9502SOL     OW40567   2.213   6.054   8.655
 9502SOL    HW140568   2.203   5.967   8.607
 9502SOL    HW240569   2.149   6.121   8.618
 9503SOL     OW40570   3.295   6.334   8.693
 9503SOL    HW140571   3.299   6.428   8.658
 9503SOL    HW240572   3.388   6.303   8.715
 9504SOL     OW40573   2.248   5.826   7.814
 9504SOL    HW140574   2.202   5.866   7.893
 9504SOL    HW240575   2.196   5.845   7.732
 9505SOL     OW40576   3.376   7.353   8.726
 9505SOL    HW140577   3.319   7.304   8.660
 9505SOL    HW240578   3.462   7.380   8.683
 9506SOL     OW40579   3.671   6.071   8.581
 9506SOL    HW140580   3.728   6.153   8.583
 9506SOL    HW240581   3.612   6.070   8.661
 9507SOL     OW40582   3.688   7.297   8.494
 9507SOL    HW140583   3.734   7.307   8.582
 9507SOL    HW240584   3.755   7.300   8.421
 9508SOL     OW40585   2.801   6.037   8.056
 9508SOL    HW140586   2.877   6.065   8.115
 9508SOL    HW240587   2.757   6.117   8.017
 9509SOL     OW40588   3.036   6.501   7.573
 9509SOL    HW140589   3.073   6.451   7.651
 9509SOL    HW240590   2.966   6.446   7.528
 9510SOL     OW40591   2.878   5.923   9.194
 9510SOL    HW140592   2.941   5.928   9.271
 9510SOL    HW240593   2.786   5.901   9.227
 9511SOL     OW40594   3.619   6.170   7.652
 9511SOL    HW140595   3.640   6.089   7.598
 9511SOL    HW240596   3.636   6.151   7.749
 9512SOL     OW40597   2.913   7.308   7.560
 9512SOL    HW140598   2.947   7.221   7.525
 9512SOL    HW240599   2.881   7.296   7.654
 9513SOL     OW40600   2.594   5.575   9.092
 9513SOL    HW140601   2.601   5.481   9.059
 9513SOL    HW240602   2.651   5.585   9.174
 9514SOL     OW40603   3.517   6.176   8.360
 9514SOL    HW140604   3.502   6.267   8.397
 9514SOL    HW240605   3.587   6.129   8.414
 9515SOL     OW40606   2.927   6.842   9.126
 9515SOL    HW140607   2.949   6.752   9.088
 9515SOL    HW240608   2.862   6.889   9.067
 9516SOL     OW40609   2.582   6.684   9.130
 9516SOL    HW140610   2.553   6.761   9.187
 9516SOL    HW240611   2.592   6.603   9.188
 9517SOL     OW40612   3.217   5.548   8.236
 9517SOL    HW140613   3.166   5.632   8.218
 9517SOL    HW240614   3.303   5.550   8.185
 9518SOL     OW40615   3.572   5.754   9.165
 9518SOL    HW140616   3.549   5.775   9.260
 9518SOL    HW240617   3.548   5.659   9.145
 9519SOL     OW40618   1.875   6.158   7.909
 9519SOL    HW140619   1.877   6.109   7.996
 9519SOL    HW240620   1.877   6.257   7.927
 9520SOL     OW40621   2.196   5.746   8.230
 9520SOL    HW140622   2.248   5.786   8.305
 9520SOL    HW240623   2.249   5.673   8.187
 9521SOL     OW40624   2.180   5.794   8.564
 9521SOL    HW140625   2.145   5.701   8.564
 9521SOL    HW240626   2.267   5.797   8.515
 9522SOL     OW40627   2.847   6.416   8.304
 9522SOL    HW140628   2.873   6.496   8.250
 9522SOL    HW240629   2.841   6.336   8.244
 9523SOL     OW40630   2.048   7.043   7.763
 9523SOL    HW140631   2.075   6.949   7.783
 9523SOL    HW240632   2.073   7.065   7.669
 9524SOL     OW40633   3.330   6.912   8.637
 9524SOL    HW140634   3.301   6.949   8.548
 9524SOL    HW240635   3.252   6.912   8.699
 9525SOL     OW40636   2.062   7.186   8.000
 9525SOL    HW140637   1.978   7.237   8.018
 9525SOL    HW240638   2.053   7.135   7.915
 9526SOL     OW40639   3.583   6.983   8.675
 9526SOL    HW140640   3.614   6.997   8.769
 9526SOL    HW240641   3.484   6.970   8.674
 9527SOL     OW40642   2.852   6.670   8.701
 9527SOL    HW140643   2.902   6.585   8.685
 9527SOL    HW240644   2.806   6.697   8.616
 9528SOL     OW40645   1.939   6.375   7.575
 9528SOL    HW140646   1.999   6.322   7.635
 9528SOL    HW240647   1.845   6.343   7.587
 9529SOL     OW40648   3.459   6.373   7.775
 9529SOL    HW140649   3.527   6.307   7.742
 9529SOL    HW240650   3.474   6.461   7.731
 9530SOL     OW40651   2.707   7.360   8.423
 9530SOL    HW140652   2.753   7.293   8.365
 9530SOL    HW240653   2.633   7.316   8.473
 9531SOL     OW40654   2.614   6.429   7.459
 9531SOL    HW140655   2.643   6.348   7.510
 9531SOL    HW240656   2.514   6.428   7.450
 9532SOL     OW40657   3.210   5.961   7.805
 9532SOL    HW140658   3.147   6.019   7.753
 9532SOL    HW240659   3.303   5.995   7.793
 9533SOL     OW40660   1.989   5.817   8.795
 9533SOL    HW140661   2.061   5.827   8.726
 9533SOL    HW240662   1.900   5.816   8.750
 9534SOL     OW40663   2.887   6.438   8.560
 9534SOL    HW140664   2.881   6.424   8.461
 9534SOL    HW240665   2.806   6.399   8.604
 9535SOL     OW40666   3.478   5.972   7.875
 9535SOL    HW140667   3.574   5.943   7.872
 9535SOL    HW240668   3.439   5.950   7.964
 9536SOL     OW40669   2.762   7.047   8.312
 9536SOL    HW140670   2.820   7.058   8.231
 9536SOL    HW240671   2.668   7.071   8.290
 9537SOL     OW40672   2.712   5.913   7.597
 9537SOL    HW140673   2.621   5.926   7.635
 9537SOL    HW240674   2.772   5.873   7.667
 9538SOL     OW40675   2.823   6.858   7.532
 9538SOL    HW140676   2.876   6.798   7.592
 9538SOL    HW240677   2.862   6.859   7.441
 9539SOL     OW40678   3.574   7.153   8.017
 9539SOL    HW140679   3.541   7.246   8.036
 9539SOL    HW240680   3.572   7.137   7.918
 9540SOL     OW40681   2.989   6.426   8.006
 9540SOL    HW140682   3.054   6.454   8.077
 9540SOL    HW240683   2.910   6.487   8.008
 9541SOL     OW40684   2.737   7.152   9.030
 9541SOL    HW140685   2.725   7.083   8.959
 9541SOL    HW240686   2.700   7.117   9.117
 9542SOL     OW40687   3.181   6.466   8.209
 9542SOL    HW140688   3.202   6.408   8.287
 9542SOL    HW240689   3.190   6.562   8.235
 9543SOL     OW40690   2.137   6.595   8.255
 9543SOL    HW140691   2.060   6.657   8.248
 9543SOL    HW240692   2.174   6.596   8.348
 9544SOL     OW40693   2.770   6.543   7.954
 9544SOL    HW140694   2.757   6.454   7.911
 9544SOL    HW240695   2.701   6.557   8.025
 9545SOL     OW40696   3.074   6.931   8.793
 9545SOL    HW140697   3.107   7.016   8.834
 9545SOL    HW240698   2.975   6.927   8.800
 9546SOL     OW40699   1.881   5.848   7.857
 9546SOL    HW140700   1.941   5.799   7.795
 9546SOL    HW240701   1.936   5.900   7.922
 9547SOL     OW40702   3.504   7.346   7.548
 9547SOL    HW140703   3.594   7.390   7.550
 9547SOL    HW240704   3.503   7.277   7.476
 9548SOL     OW40705   2.668   6.313   8.706
 9548SOL    HW140706   2.670   6.399   8.757
 9548SOL    HW240707   2.725   6.245   8.753
 9549SOL     OW40708   1.905   7.340   8.777
 9549SOL    HW140709   1.913   7.440   8.775
 9549SOL    HW240710   1.881   7.311   8.870
 9550SOL     OW40711   2.686   6.359   7.771
 9550SOL    HW140712   2.597   6.387   7.736
 9550SOL    HW240713   2.727   6.293   7.707
 9551SOL     OW40714   2.208   6.077   8.310
 9551SOL    HW140715   2.264   6.070   8.227
 9551SOL    HW240716   2.265   6.055   8.390
 9552SOL     OW40717   3.181   7.297   8.518
 9552SOL    HW140718   3.200   7.360   8.444
 9552SOL    HW240719   3.189   7.203   8.485
 9553SOL     OW40720   1.886   6.692   8.330
 9553SOL    HW140721   1.796   6.708   8.291
 9553SOL    HW240722   1.884   6.608   8.385
 9554SOL     OW40723   2.637   5.597   7.780
 9554SOL    HW140724   2.598   5.586   7.689
 9554SOL    HW240725   2.593   5.673   7.827
 9555SOL     OW40726   1.882   6.733   7.874
 9555SOL    HW140727   1.960   6.791   7.898
 9555SOL    HW240728   1.901   6.684   7.789
 9556SOL     OW40729   3.412   5.861   8.958
 9556SOL    HW140730   3.351   5.939   8.955
 9556SOL    HW240731   3.467   5.865   9.041
 9557SOL     OW40732   3.128   5.807   8.249
 9557SOL    HW140733   3.127   5.885   8.186
 9557SOL    HW240734   3.171   5.834   8.335
 9558SOL     OW40735   3.248   5.613   7.545
 9558SOL    HW140736   3.328   5.553   7.542
 9558SOL    HW240737   3.174   5.566   7.593
 9559SOL     OW40738   3.461   5.585   8.979
 9559SOL    HW140739   3.487   5.542   8.893
 9559SOL    HW240740   3.411   5.669   8.961
 9560SOL     OW40741   2.563   5.844   8.111
 9560SOL    HW140742   2.552   5.786   8.192
 9560SOL    HW240743   2.648   5.896   8.119
 9561SOL     OW40744   3.143   6.195   8.503
 9561SOL    HW140745   3.197   6.235   8.429
 9561SOL    HW240746   3.181   6.224   8.591
 9562SOL     OW40747   3.436   5.601   7.819
 9562SOL    HW140748   3.443   5.555   7.731
 9562SOL    HW240749   3.340   5.611   7.844
 9563SOL     OW40750   2.412   6.916   9.182
 9563SOL    HW140751   2.373   6.979   9.115
 9563SOL    HW240752   2.495   6.956   9.222
 9564SOL     OW40753   2.288   6.648   9.014
 9564SOL    HW140754   2.307   6.672   8.919
 9564SOL    HW240755   2.281   6.731   9.069
 9565SOL     OW40756   1.949   6.938   8.488
 9565SOL    HW140757   1.918   6.864   8.429
 9565SOL    HW240758   1.881   6.956   8.559
 9566SOL     OW40759   3.035   6.139   8.221
 9566SOL    HW140760   3.117   6.116   8.169
 9566SOL    HW240761   3.030   6.080   8.302
 9567SOL     OW40762   3.635   6.166   9.057
 9567SOL    HW140763   3.624   6.252   9.006
 9567SOL    HW240764   3.729   6.157   9.087
 9568SOL     OW40765   3.206   5.939   8.476
 9568SOL    HW140766   3.180   6.036   8.482
 9568SOL    HW240767   3.206   5.899   8.568
 9569SOL     OW40768   3.436   6.071   9.227
 9569SOL    HW140769   3.516   6.096   9.171
 9569SOL    HW240770   3.467   6.036   9.315
 9570SOL     OW40771   3.147   6.374   7.807
 9570SOL    HW140772   3.093   6.372   7.891
 9570SOL    HW240773   3.224   6.437   7.818
 9571SOL     OW40774   3.444   6.470   8.027
 9571SOL    HW140775   3.458   6.433   7.934
 9571SOL    HW240776   3.355   6.440   8.061
 9572SOL     OW40777   3.600   6.407   8.922
 9572SOL    HW140778   3.502   6.428   8.924
 9572SOL    HW240779   3.649   6.483   8.881
 9573SOL     OW40780   3.454   5.827   7.601
 9573SOL    HW140781   3.459   5.869   7.692
 9573SOL    HW240782   3.387   5.752   7.603
 9574SOL     OW40783   2.601   7.042   8.821
 9574SOL    HW140784   2.538   7.120   8.828
 9574SOL    HW240785   2.569   6.980   8.749
 9575SOL     OW40786   1.992   5.837   9.086
 9575SOL    HW140787   2.010   5.826   8.988
 9575SOL    HW240788   1.894   5.833   9.103
 9576SOL     OW40789   1.872   7.251   9.030
 9576SOL    HW140790   1.944   7.237   9.098
 9576SOL    HW240791   1.783   7.254   9.075
 9577SOL     OW40792   2.040   5.907   8.054
 9577SOL    HW140793   1.983   5.962   8.115
 9577SOL    HW240794   2.110   5.859   8.107
 9578SOL     OW40795   3.212   7.139   8.917
 9578SOL    HW140796   3.165   7.207   8.972
 9578SOL    HW240797   3.279   7.185   8.858
 9579SOL     OW40798   2.177   6.098   7.652
 9579SOL    HW140799   2.249   6.127   7.589
 9579SOL    HW240800   2.133   6.178   7.692
 9580SOL     OW40801   3.563   5.760   8.755
 9580SOL    HW140802   3.519   5.808   8.831
 9580SOL    HW240803   3.541   5.806   8.669
 9581SOL     OW40804   2.292   7.361   8.118
 9581SOL    HW140805   2.216   7.327   8.063
 9581SOL    HW240806   2.378   7.324   8.083
 9582SOL     OW40807   2.217   6.870   8.563
 9582SOL    HW140808   2.229   6.886   8.660
 9582SOL    HW240809   2.130   6.910   8.533
 9583SOL     OW40810   3.101   7.074   9.209
 9583SOL    HW140811   3.060   6.989   9.175
 9583SOL    HW240812   3.081   7.148   9.145
 9584SOL     OW40813   2.591   6.794   7.899
 9584SOL    HW140814   2.634   6.725   7.841
 9584SOL    HW240815   2.555   6.751   7.982
 9585SOL     OW40816   2.223   6.345   8.101
 9585SOL    HW140817   2.215   6.443   8.119
 9585SOL    HW240818   2.307   6.311   8.142
 9586SOL     OW40819   2.069   5.825   7.616
 9586SOL    HW140820   2.113   5.794   7.533
 9586SOL    HW240821   2.070   5.925   7.620
 9587SOL     OW40822   1.922   6.077   8.227
 9587SOL    HW140823   1.886   6.170   8.219
 9587SOL    HW240824   2.005   6.078   8.283
 9588SOL     OW40825   2.983   6.256   7.429
 9588SOL    HW140826   2.914   6.313   7.385
 9588SOL    HW240827   3.064   6.250   7.370
 9589SOL     OW40828   2.718   6.175   7.572
 9589SOL    HW140829   2.808   6.176   7.527
 9589SOL    HW240830   2.695   6.081   7.597
 9590SOL     OW40831   3.169   5.692   7.866
 9590SOL    HW140832   3.079   5.676   7.907
 9590SOL    HW240833   3.177   5.788   7.840
 9591SOL     OW40834   3.283   6.092   8.882
 9591SOL    HW140835   3.235   6.115   8.966
 9591SOL    HW240836   3.217   6.062   8.813
 9592SOL     OW40837   1.918   5.607   7.526
 9592SOL    HW140838   1.981   5.530   7.534
 9592SOL    HW240839   1.938   5.675   7.597
 9593SOL     OW40840   2.191   6.582   8.527
 9593SOL    HW140841   2.202   6.537   8.616
 9593SOL    HW240842   2.218   6.678   8.534
 9594SOL     OW40843   3.490   6.594   7.627
 9594SOL    HW140844   3.561   6.664   7.629
 9594SOL    HW240845   3.477   6.564   7.532
 9595SOL     OW40846   2.472   6.195   8.549
 9595SOL    HW140847   2.547   6.238   8.598
 9595SOL    HW240848   2.405   6.160   8.615
 9596SOL     OW40849   2.615   6.564   8.866
 9596SOL    HW140850   2.684   6.616   8.816
 9596SOL    HW240851   2.610   6.597   8.961
 9597SOL     OW40852   3.007   6.585   9.026
 9597SOL    HW140853   2.929   6.531   9.059
 9597SOL    HW240854   3.088   6.563   9.081
 9598SOL     OW40855   2.936   5.767   8.022
 9598SOL    HW140856   2.995   5.827   8.077
 9598SOL    HW240857   2.863   5.731   8.079
 9599SOL     OW40858   3.046   7.299   9.062
 9599SOL    HW140859   2.951   7.297   9.030
 9599SOL    HW240860   3.067   7.390   9.099
 9600SOL     OW40861   2.464   5.644   8.293
 9600SOL    HW140862   2.392   5.577   8.279
 9600SOL    HW240863   2.546   5.598   8.328
 9601SOL     OW40864   2.164   7.309   8.660
 9601SOL    HW140865   2.144   7.291   8.564
 9601SOL    HW240866   2.091   7.271   8.717
 9602SOL     OW40867   2.857   6.773   8.205
 9602SOL    HW140868   2.896   6.816   8.124
 9602SOL    HW240869   2.930   6.756   8.272
 9603SOL     OW40870   2.551   6.501   8.407
 9603SOL    HW140871   2.549   6.417   8.352
 9603SOL    HW240872   2.500   6.487   8.492
 9604SOL     OW40873   1.890   6.511   8.533
 9604SOL    HW140874   1.979   6.489   8.573
 9604SOL    HW240875   1.835   6.427   8.529
 9605SOL     OW40876   2.118   5.556   7.813
 9605SOL    HW140877   2.156   5.644   7.840
 9605SOL    HW240878   2.041   5.532   7.873
 9606SOL     OW40879   2.534   6.173   9.141
 9606SOL    HW140880   2.486   6.224   9.070
 9606SOL    HW240881   2.627   6.152   9.111
 9607SOL     OW40882   3.637   5.755   8.234
 9607SOL    HW140883   3.592   5.737   8.321
 9607SOL    HW240884   3.735   5.772   8.250
 9608SOL     OW40885   2.685   6.731   8.486
 9608SOL    HW140886   2.636   6.646   8.467
 9608SOL    HW240887   2.755   6.746   8.417
 9609SOL     OW40888   3.023   6.154   7.695
 9609SOL    HW140889   3.075   6.226   7.741
 9609SOL    HW240890   3.036   6.161   7.597
 9610SOL     OW40891   3.384   6.969   9.022
 9610SOL    HW140892   3.369   6.871   9.036
 9610SOL    HW240893   3.301   7.011   8.986
 9611SOL     OW40894   2.461   7.244   8.454
 9611SOL    HW140895   2.481   7.214   8.361
 9611SOL    HW240896   2.386   7.189   8.491
 9612SOL     OW40897   2.604   6.655   8.171
 9612SOL    HW140898   2.693   6.701   8.171
 9612SOL    HW240899   2.597   6.595   8.250
 9613SOL     OW40900   2.782   7.002   7.840
 9613SOL    HW140901   2.832   6.990   7.755
 9613SOL    HW240902   2.728   6.919   7.859
 9614SOL     OW40903   1.972   6.349   8.240
 9614SOL    HW140904   2.067   6.340   8.208
 9614SOL    HW240905   1.938   6.441   8.219
 9615SOL     OW40906   1.909   6.466   9.167
 9615SOL    HW140907   1.824   6.417   9.148
 9615SOL    HW240908   1.936   6.453   9.262
 9616SOL     OW40909   2.806   7.375   8.873
 9616SOL    HW140910   2.778   7.288   8.914
 9616SOL    HW240911   2.750   7.449   8.910
 9617SOL     OW40912   3.035   6.722   8.403
 9617SOL    HW140913   3.019   6.816   8.434
 9617SOL    HW240914   3.038   6.661   8.483
 9618SOL     OW40915   2.309   5.993   9.167
 9618SOL    HW140916   2.345   5.940   9.090
 9618SOL    HW240917   2.370   6.070   9.185
 9619SOL     OW40918   2.373   6.410   7.739
 9619SOL    HW140919   2.323   6.475   7.683
 9619SOL    HW240920   2.315   6.331   7.758
 9620SOL     OW40921   3.454   6.441   8.437
 9620SOL    HW140922   3.473   6.480   8.346
 9620SOL    HW240923   3.408   6.510   8.493
 9621SOL     OW40924   3.146   5.884   8.733
 9621SOL    HW140925   3.217   5.856   8.797
 9621SOL    HW240926   3.093   5.804   8.705
 9622SOL     OW40927   1.847   5.583   7.934
 9622SOL    HW140928   1.760   5.570   7.887
 9622SOL    HW240929   1.855   5.678   7.964
 9623SOL     OW40930   3.068   5.684   9.175
 9623SOL    HW140931   3.127   5.700   9.255
 9623SOL    HW240932   3.015   5.767   9.156
 9624SOL     OW40933   2.284   7.103   9.000
 9624SOL    HW140934   2.226   7.168   9.049
 9624SOL    HW240935   2.346   7.153   8.940
 9625SOL     OW40936   3.640   6.990   8.941
 9625SOL    HW140937   3.668   7.083   8.963
 9625SOL    HW240938   3.547   6.974   8.974
 9626SOL     OW40939   2.890   6.103   8.491
 9626SOL    HW140940   2.976   6.154   8.490
 9626SOL    HW240941   2.896   6.029   8.558
 9627SOL     OW40942   2.294   7.049   8.063
 9627SOL    HW140943   2.292   6.950   8.076
 9627SOL    HW240944   2.203   7.082   8.040
 9628SOL     OW40945   2.935   7.166   8.651
 9628SOL    HW140946   2.861   7.230   8.669
 9628SOL    HW240947   3.014   7.215   8.613
 9629SOL     OW40948   2.144   7.296   9.150
 9629SOL    HW140949   2.187   7.380   9.116
 9629SOL    HW240950   2.169   7.283   9.246
 9630SOL     OW40951   2.004   6.832   9.021
 9630SOL    HW140952   1.983   6.737   8.994
 9630SOL    HW240953   1.935   6.893   8.983
 9631SOL     OW40954   2.093   7.197   8.425
 9631SOL    HW140955   2.035   7.117   8.439
 9631SOL    HW240956   2.117   7.204   8.328
 9632SOL     OW40957   2.839   5.718   8.280
 9632SOL    HW140958   2.935   5.719   8.308
 9632SOL    HW240959   2.784   5.675   8.352
 9633SOL     OW40960   2.901   6.724   7.796
 9633SOL    HW140961   2.981   6.760   7.844
 9633SOL    HW240962   2.859   6.651   7.852
 9634SOL     OW40963   3.492   5.991   8.160
 9634SOL    HW140964   3.511   6.077   8.207
 9634SOL    HW240965   3.560   5.922   8.188
 9635SOL     OW40966   2.635   6.663   7.646
 9635SOL    HW140967   2.707   6.722   7.611
 9635SOL    HW240968   2.675   6.579   7.682
 9636SOL     OW40969   2.706   5.639   7.498
 9636SOL    HW140970   2.781   5.573   7.510
 9636SOL    HW240971   2.737   5.730   7.526
 9637SOL     OW40972   2.385   6.068   8.110
 9637SOL    HW140973   2.423   5.979   8.136
 9637SOL    HW240974   2.452   6.118   8.055
 9638SOL     OW40975   2.373   6.626   8.764
 9638SOL    HW140976   2.469   6.606   8.784
 9638SOL    HW240977   2.362   6.724   8.746
 9639SOL     OW40978   3.595   6.669   8.733
 9639SOL    HW140979   3.609   6.767   8.747
 9639SOL    HW240980   3.652   6.638   8.657
 9640SOL     OW40981   2.505   7.217   7.585
 9640SOL    HW140982   2.480   7.312   7.569
 9640SOL    HW240983   2.472   7.189   7.675
 9641SOL     OW40984   3.155   6.640   8.809
 9641SOL    HW140985   3.099   6.599   8.880
 9641SOL    HW240986   3.135   6.738   8.803
 9642SOL     OW40987   2.422   7.256   8.809
 9642SOL    HW140988   2.471   7.336   8.773
 9642SOL    HW240989   2.330   7.254   8.770
 9643SOL     OW40990   2.065   6.137   9.171
 9643SOL    HW140991   2.082   6.038   9.176
 9643SOL    HW240992   2.129   6.185   9.232
 9644SOL     OW40993   3.504   7.098   8.410
 9644SOL    HW140994   3.476   7.191   8.434
 9644SOL    HW240995   3.554   7.057   8.486
 9645SOL     OW40996   1.900   6.471   7.971
 9645SOL    HW140997   1.907   6.570   7.958
 9645SOL    HW240998   1.809   6.448   8.005
 9646SOL     OW40999   2.409   6.269   8.909
 9646SOL    HW141000   2.315   6.239   8.890
 9646SOL    HW241001   2.418   6.366   8.886
 9647SOL     OW41002   3.476   6.645   8.221
 9647SOL    HW141003   3.438   6.734   8.194
 9647SOL    HW241004   3.476   6.583   8.143
 9648SOL     OW41005   2.634   6.051   8.390
 9648SOL    HW141006   2.726   6.079   8.417
 9648SOL    HW241007   2.566   6.102   8.444
 9649SOL     OW41008   2.487   6.902   8.617
 9649SOL    HW141009   2.400   6.901   8.568
 9649SOL    HW241010   2.553   6.842   8.570
 9650SOL     OW41011   2.224   6.890   8.829
 9650SOL    HW141012   2.243   6.978   8.873
 9650SOL    HW241013   2.129   6.864   8.847
 9651SOL     OW41014   3.467   7.206   9.177
 9651SOL    HW141015   3.436   7.128   9.122
 9651SOL    HW241016   3.436   7.291   9.135
 9652SOL     OW41017   3.175   6.744   7.898
 9652SOL    HW141018   3.274   6.748   7.914
 9652SOL    HW241019   3.158   6.730   7.800
 9653SOL     OW41020   2.528   5.910   7.846
 9653SOL    HW141021   2.430   5.904   7.826
 9653SOL    HW241022   2.547   5.867   7.934
 9654SOL     OW41023   3.448   5.593   8.105
 9654SOL    HW141024   3.443   5.634   8.014
 9654SOL    HW241025   3.529   5.627   8.152
 9655SOL     OW41026   3.051   6.349   8.798
 9655SOL    HW141027   3.150   6.358   8.788
 9655SOL    HW241028   3.007   6.351   8.708
 9656SOL     OW41029   2.545   6.309   8.200
 9656SOL    HW141030   2.567   6.231   8.258
 9656SOL    HW241031   2.554   6.283   8.104
 9657SOL     OW41032   3.210   7.016   8.412
 9657SOL    HW141033   3.124   6.973   8.441
 9657SOL    HW241034   3.199   7.056   8.321
 9658SOL     OW41035   3.213   6.001   8.087
 9658SOL    HW141036   3.212   5.993   7.988
 9658SOL    HW241037   3.302   5.973   8.122
 9659SOL     OW41038   2.940   7.017   9.919
 9659SOL    HW141039   3.031   7.051   9.942
 9659SOL    HW241040   2.912   7.055   9.831
 9660SOL     OW41041   3.451   6.813   9.777
 9660SOL    HW141042   3.462   6.897   9.831
 9660SOL    HW241043   3.541   6.776   9.754
 9661SOL     OW41044   2.198   5.732   9.246
 9661SOL    HW141045   2.111   5.729   9.197
 9661SOL    HW241046   2.249   5.814   9.218
 9662SOL     OW41047   2.408   7.086   9.650
 9662SOL    HW141048   2.364   7.095   9.739
 9662SOL    HW241049   2.479   7.016   9.654
 9663SOL     OW41050   2.426   5.619   9.372
 9663SOL    HW141051   2.514   5.647   9.333
 9663SOL    HW241052   2.354   5.682   9.342
 9664SOL     OW41053   2.335   6.759   9.945
 9664SOL    HW141054   2.268   6.713  10.004
 9664SOL    HW241055   2.427   6.727   9.968
 9665SOL     OW41056   2.562   6.165   9.776
 9665SOL    HW141057   2.601   6.235   9.717
 9665SOL    HW241058   2.536   6.085   9.722
 9666SOL     OW41059   2.265   6.928   9.429
 9666SOL    HW141060   2.329   6.944   9.354
 9666SOL    HW241061   2.289   6.986   9.507
 9667SOL     OW41062   2.113   6.310   9.657
 9667SOL    HW141063   2.128   6.244   9.731
 9667SOL    HW241064   2.063   6.389   9.692
 9668SOL     OW41065   2.699   7.255   9.834
 9668SOL    HW141066   2.764   7.188   9.798
 9668SOL    HW241067   2.689   7.331   9.770
 9669SOL     OW41068   3.591   7.137   9.576
 9669SOL    HW141069   3.687   7.111   9.569
 9669SOL    HW241070   3.567   7.197   9.500
 9670SOL     OW41071   2.903   5.859   9.616
 9670SOL    HW141072   2.928   5.953   9.637
 9670SOL    HW241073   2.904   5.805   9.700
 9671SOL     OW41074   2.353   6.217   9.344
 9671SOL    HW141075   2.313   6.296   9.297
 9671SOL    HW241076   2.442   6.196   9.304
 9672SOL     OW41077   2.203   6.794   9.694
 9672SOL    HW141078   2.249   6.768   9.779
 9672SOL    HW241079   2.223   6.726   9.623
 9673SOL     OW41080   3.061   5.849   9.405
 9673SOL    HW141081   3.155   5.819   9.423
 9673SOL    HW241082   3.009   5.849   9.491
 9674SOL     OW41083   2.248   5.826   9.659
 9674SOL    HW141084   2.202   5.866   9.738
 9674SOL    HW241085   2.196   5.845   9.577
 9675SOL     OW41086   3.688   7.297  10.339
 9675SOL    HW141087   3.734   7.307  10.427
 9675SOL    HW241088   3.755   7.300  10.266
 9676SOL     OW41089   2.801   6.037   9.901
 9676SOL    HW141090   2.877   6.065   9.960
 9676SOL    HW241091   2.757   6.117   9.862
 9677SOL     OW41092   3.036   6.501   9.418
 9677SOL    HW141093   3.073   6.451   9.496
 9677SOL    HW241094   2.966   6.446   9.373
 9678SOL     OW41095   3.619   6.170   9.497
 9678SOL    HW141096   3.640   6.089   9.443
 9678SOL    HW241097   3.636   6.151   9.594
 9679SOL     OW41098   2.913   7.308   9.405
 9679SOL    HW141099   2.947   7.221   9.370
 9679SOL    HW241100   2.881   7.296   9.499
 9680SOL     OW41101   1.875   6.158   9.754
 9680SOL    HW141102   1.877   6.109   9.841
 9680SOL    HW241103   1.877   6.257   9.772
 9681SOL     OW41104   2.048   7.043   9.608
 9681SOL    HW141105   2.075   6.949   9.628
 9681SOL    HW241106   2.073   7.065   9.514
 9682SOL     OW41107   2.062   7.186   9.845
 9682SOL    HW141108   1.978   7.237   9.863
 9682SOL    HW241109   2.053   7.135   9.760
 9683SOL     OW41110   2.335   6.483   9.247
 9683SOL    HW141111   2.304   6.517   9.159
 9683SOL    HW241112   2.339   6.558   9.313
 9684SOL     OW41113   1.939   6.375   9.420
 9684SOL    HW141114   1.999   6.322   9.480
 9684SOL    HW241115   1.845   6.343   9.432
 9685SOL     OW41116   3.459   6.373   9.620
 9685SOL    HW141117   3.527   6.307   9.587
 9685SOL    HW241118   3.474   6.461   9.576
 9686SOL     OW41119   2.614   6.429   9.304
 9686SOL    HW141120   2.643   6.348   9.355
 9686SOL    HW241121   2.514   6.428   9.295
 9687SOL     OW41122   3.210   5.961   9.650
 9687SOL    HW141123   3.147   6.019   9.598
 9687SOL    HW241124   3.303   5.995   9.638
 9688SOL     OW41125   3.478   5.972   9.720
 9688SOL    HW141126   3.574   5.943   9.717
 9688SOL    HW241127   3.439   5.950   9.809
 9689SOL     OW41128   2.712   5.913   9.442
 9689SOL    HW141129   2.621   5.926   9.480
 9689SOL    HW241130   2.772   5.873   9.512
 9690SOL     OW41131   2.823   6.858   9.377
 9690SOL    HW141132   2.876   6.798   9.437
 9690SOL    HW241133   2.862   6.859   9.286
 9691SOL     OW41134   3.574   7.153   9.862
 9691SOL    HW141135   3.541   7.246   9.881
 9691SOL    HW241136   3.572   7.137   9.763
 9692SOL     OW41137   2.989   6.426   9.851
 9692SOL    HW141138   3.054   6.454   9.922
 9692SOL    HW241139   2.910   6.487   9.853
 9693SOL     OW41140   3.181   6.466  10.054
 9693SOL    HW141141   3.202   6.408  10.132
 9693SOL    HW241142   3.190   6.562  10.080
 9694SOL     OW41143   2.770   6.543   9.799
 9694SOL    HW141144   2.757   6.454   9.756
 9694SOL    HW241145   2.701   6.557   9.870
 9695SOL     OW41146   1.881   5.848   9.702
 9695SOL    HW141147   1.941   5.799   9.640
 9695SOL    HW241148   1.936   5.900   9.767
 9696SOL     OW41149   3.504   7.346   9.393
 9696SOL    HW141150   3.594   7.390   9.395
 9696SOL    HW241151   3.503   7.277   9.321
 9697SOL     OW41152   2.686   6.359   9.616
 9697SOL    HW141153   2.597   6.387   9.581
 9697SOL    HW241154   2.727   6.293   9.552
 9698SOL     OW41155   2.205   7.275   9.426
 9698SOL    HW141156   2.297   7.305   9.401
 9698SOL    HW241157   2.180   7.314   9.515
 9699SOL     OW41158   2.637   5.597   9.625
 9699SOL    HW141159   2.598   5.586   9.534
 9699SOL    HW241160   2.593   5.673   9.672
 9700SOL     OW41161   1.882   6.733   9.719
 9700SOL    HW141162   1.960   6.791   9.743
 9700SOL    HW241163   1.901   6.684   9.634
 9701SOL     OW41164   3.248   5.613   9.390
 9701SOL    HW141165   3.328   5.553   9.387
 9701SOL    HW241166   3.174   5.566   9.438
 9702SOL     OW41167   2.563   5.844   9.956
 9702SOL    HW141168   2.552   5.786  10.037
 9702SOL    HW241169   2.648   5.896   9.964
 9703SOL     OW41170   3.436   5.601   9.664
 9703SOL    HW141171   3.443   5.555   9.576
 9703SOL    HW241172   3.340   5.611   9.689
 9704SOL     OW41173   3.147   6.374   9.652
 9704SOL    HW141174   3.093   6.372   9.736
 9704SOL    HW241175   3.224   6.437   9.663
 9705SOL     OW41176   3.444   6.470   9.872
 9705SOL    HW141177   3.458   6.433   9.779
 9705SOL    HW241178   3.355   6.440   9.906
 9706SOL     OW41179   3.454   5.827   9.446
 9706SOL    HW141180   3.459   5.869   9.537
 9706SOL    HW241181   3.387   5.752   9.448
 9707SOL     OW41182   2.177   6.098   9.497
 9707SOL    HW141183   2.249   6.127   9.434
 9707SOL    HW241184   2.133   6.178   9.537
 9708SOL     OW41185   2.292   7.361   9.963
 9708SOL    HW141186   2.216   7.327   9.908
 9708SOL    HW241187   2.378   7.324   9.928
 9709SOL     OW41188   2.591   6.794   9.744
 9709SOL    HW141189   2.634   6.725   9.686
 9709SOL    HW241190   2.555   6.751   9.827
 9710SOL     OW41191   2.069   5.825   9.461
 9710SOL    HW141192   2.113   5.794   9.378
 9710SOL    HW241193   2.070   5.925   9.465
 9711SOL     OW41194   1.922   6.077  10.072
 9711SOL    HW141195   1.886   6.170  10.064
 9711SOL    HW241196   2.005   6.078  10.128
 9712SOL     OW41197   2.357   6.664   9.458
 9712SOL    HW141198   2.457   6.664   9.469
 9712SOL    HW241199   2.326   6.757   9.437
 9713SOL     OW41200   2.983   6.256   9.274
 9713SOL    HW141201   2.914   6.313   9.230
 9713SOL    HW241202   3.064   6.250   9.215
 9714SOL     OW41203   2.718   6.175   9.417
 9714SOL    HW141204   2.808   6.176   9.372
 9714SOL    HW241205   2.695   6.081   9.442
 9715SOL     OW41206   3.169   5.692   9.711
 9715SOL    HW141207   3.079   5.676   9.752
 9715SOL    HW241208   3.177   5.788   9.685
 9716SOL     OW41209   1.918   5.607   9.371
 9716SOL    HW141210   1.981   5.530   9.379
 9716SOL    HW241211   1.938   5.675   9.442
 9717SOL     OW41212   3.490   6.594   9.472
 9717SOL    HW141213   3.561   6.664   9.474
 9717SOL    HW241214   3.477   6.564   9.377
 9718SOL     OW41215   2.936   5.767   9.867
 9718SOL    HW141216   2.995   5.827   9.922
 9718SOL    HW241217   2.863   5.731   9.924
 9719SOL     OW41218   2.118   5.556   9.658
 9719SOL    HW141219   2.156   5.644   9.685
 9719SOL    HW241220   2.041   5.532   9.718
 9720SOL     OW41221   1.940   6.643   9.478
 9720SOL    HW141222   1.930   6.546   9.457
 9720SOL    HW241223   1.993   6.688   9.406
 9721SOL     OW41224   3.637   5.755  10.079
 9721SOL    HW141225   3.592   5.737  10.166
 9721SOL    HW241226   3.735   5.772  10.095
 9722SOL     OW41227   3.023   6.154   9.540
 9722SOL    HW141228   3.075   6.226   9.586
 9722SOL    HW241229   3.036   6.161   9.442
 9723SOL     OW41230   2.643   7.037   9.265
 9723SOL    HW141231   2.618   7.114   9.324
 9723SOL    HW241232   2.707   6.977   9.313
 9724SOL     OW41233   2.604   6.655  10.016
 9724SOL    HW141234   2.693   6.701  10.016
 9724SOL    HW241235   2.597   6.595  10.095
 9725SOL     OW41236   2.782   7.002   9.685
 9725SOL    HW141237   2.832   6.990   9.600
 9725SOL    HW241238   2.728   6.919   9.704
 9726SOL     OW41239   2.373   6.410   9.584
 9726SOL    HW141240   2.323   6.475   9.528
 9726SOL    HW241241   2.315   6.331   9.603
 9727SOL     OW41242   1.847   5.583   9.779
 9727SOL    HW141243   1.760   5.570   9.732
 9727SOL    HW241244   1.855   5.678   9.809
 9728SOL     OW41245   2.294   7.049   9.908
 9728SOL    HW141246   2.292   6.950   9.921
 9728SOL    HW241247   2.203   7.082   9.885
 9729SOL     OW41248   2.901   6.724   9.641
 9729SOL    HW141249   2.981   6.760   9.689
 9729SOL    HW241250   2.859   6.651   9.697
 9730SOL     OW41251   3.492   5.991  10.005
 9730SOL    HW141252   3.511   6.077  10.052
 9730SOL    HW241253   3.560   5.922  10.033
 9731SOL     OW41254   2.635   6.663   9.491
 9731SOL    HW141255   2.707   6.722   9.456
 9731SOL    HW241256   2.675   6.579   9.527
 9732SOL     OW41257   2.706   5.639   9.343
 9732SOL    HW141258   2.781   5.573   9.355
 9732SOL    HW241259   2.737   5.730   9.371
 9733SOL     OW41260   2.385   6.068   9.955
 9733SOL    HW141261   2.423   5.979   9.981
 9733SOL    HW241262   2.452   6.118   9.900
 9734SOL     OW41263   2.078   6.778   9.270
 9734SOL    HW141264   2.070   6.790   9.171
 9734SOL    HW241265   2.137   6.849   9.308
 9735SOL     OW41266   2.505   7.217   9.430
 9735SOL    HW141267   2.480   7.312   9.414
 9735SOL    HW241268   2.472   7.189   9.520
 9736SOL     OW41269   1.900   6.471   9.816
 9736SOL    HW141270   1.907   6.570   9.803
 9736SOL    HW241271   1.809   6.448   9.850
 9737SOL     OW41272   3.175   6.744   9.743
 9737SOL    HW141273   3.274   6.748   9.759
 9737SOL    HW241274   3.158   6.730   9.645
 9738SOL     OW41275   2.528   5.910   9.691
 9738SOL    HW141276   2.430   5.904   9.671
 9738SOL    HW241277   2.547   5.867   9.779
 9739SOL     OW41278   3.448   5.593   9.950
 9739SOL    HW141279   3.443   5.634   9.859
 9739SOL    HW241280   3.529   5.627   9.997
 9740SOL     OW41281   3.213   6.001   9.932
 9740SOL    HW141282   3.212   5.993   9.833
 9740SOL    HW241283   3.302   5.973   9.967
 9741SOL     OW41284   2.940   8.863   0.692
 9741SOL    HW141285   3.031   8.897   0.715
 9741SOL    HW241286   2.912   8.901   0.604
 9742SOL     OW41287   3.451   8.659   0.550
 9742SOL    HW141288   3.462   8.743   0.604
 9742SOL    HW241289   3.541   8.622   0.527
 9743SOL     OW41290   3.531   7.941   1.414
 9743SOL    HW141291   3.433   7.933   1.436
 9743SOL    HW241292   3.584   7.930   1.498
 9744SOL     OW41293   2.198   7.578   0.019
 9744SOL    HW141294   2.111   7.575  -0.030
 9744SOL    HW241295   2.249   7.660  -0.009
 9745SOL     OW41296   3.185   8.967   0.794
 9745SOL    HW141297   3.174   9.064   0.817
 9745SOL    HW241298   3.278   8.950   0.764
 9746SOL     OW41299   3.063   7.478   1.352
 9746SOL    HW141300   2.987   7.433   1.399
 9746SOL    HW241301   3.092   7.423   1.274
 9747SOL     OW41302   2.801   8.258   1.729
 9747SOL    HW141303   2.766   8.233   1.639
 9747SOL    HW241304   2.725   8.279   1.790
 9748SOL     OW41305   2.408   8.932   0.423
 9748SOL    HW141306   2.364   8.941   0.512
 9748SOL    HW241307   2.479   8.862   0.427
 9749SOL     OW41308   2.426   7.465   0.145
 9749SOL    HW141309   2.514   7.493   0.106
 9749SOL    HW241310   2.354   7.528   0.115
 9750SOL     OW41311   3.396   8.450   1.528
 9750SOL    HW141312   3.304   8.455   1.490
 9750SOL    HW241313   3.461   8.488   1.462
 9751SOL     OW41314   3.296   8.457   1.209
 9751SOL    HW141315   3.221   8.446   1.274
 9751SOL    HW241316   3.333   8.550   1.215
 9752SOL     OW41317   2.792   8.712   1.509
 9752SOL    HW141318   2.735   8.775   1.455
 9752SOL    HW241319   2.825   8.638   1.450
 9753SOL     OW41320   2.335   8.605   0.718
 9753SOL    HW141321   2.268   8.559   0.777
 9753SOL    HW241322   2.427   8.573   0.741
 9754SOL     OW41323   2.562   8.011   0.549
 9754SOL    HW141324   2.601   8.081   0.490
 9754SOL    HW241325   2.536   7.931   0.495
 9755SOL     OW41326   2.265   8.774   0.202
 9755SOL    HW141327   2.329   8.790   0.127
 9755SOL    HW241328   2.289   8.832   0.280
 9756SOL     OW41329   2.416   7.730   1.012
 9756SOL    HW141330   2.492   7.795   1.008
 9756SOL    HW241331   2.446   7.641   0.979
 9757SOL     OW41332   2.113   8.156   0.430
 9757SOL    HW141333   2.128   8.090   0.504
 9757SOL    HW241334   2.063   8.235   0.465
 9758SOL     OW41335   2.699   9.101   0.607
 9758SOL    HW141336   2.764   9.034   0.571
 9758SOL    HW241337   2.689   9.177   0.543
 9759SOL     OW41338   3.591   8.983   0.349
 9759SOL    HW141339   3.687   8.957   0.342
 9759SOL    HW241340   3.567   9.043   0.273
 9760SOL     OW41341   3.503   7.676   1.120
 9760SOL    HW141342   3.554   7.748   1.073
 9760SOL    HW241343   3.408   7.703   1.129
 9761SOL     OW41344   2.903   7.705   0.389
 9761SOL    HW141345   2.928   7.799   0.410
 9761SOL    HW241346   2.904   7.651   0.473
 9762SOL     OW41347   2.027   8.418   1.574
 9762SOL    HW141348   2.123   8.433   1.592
 9762SOL    HW241349   1.989   8.356   1.643
 9763SOL     OW41350   2.353   8.063   0.117
 9763SOL    HW141351   2.313   8.142   0.070
 9763SOL    HW241352   2.442   8.042   0.077
 9764SOL     OW41353   2.526   8.987   0.815
 9764SOL    HW141354   2.599   9.010   0.751
 9764SOL    HW241355   2.455   8.934   0.769
 9765SOL     OW41356   2.868   8.019   1.569
 9765SOL    HW141357   2.901   7.936   1.616
 9765SOL    HW241358   2.941   8.087   1.568
 9766SOL     OW41359   3.472   8.819   0.791
 9766SOL    HW141360   3.468   8.854   0.884
 9766SOL    HW241361   3.531   8.878   0.735
 9767SOL     OW41362   2.203   8.640   0.467
 9767SOL    HW141363   2.249   8.614   0.552
 9767SOL    HW241364   2.223   8.572   0.396
 9768SOL     OW41365   3.061   7.695   0.178
 9768SOL    HW141366   3.155   7.665   0.196
 9768SOL    HW241367   3.009   7.695   0.264
 9769SOL     OW41368   3.295   8.180   1.311
 9769SOL    HW141369   3.299   8.274   1.276
 9769SOL    HW241370   3.388   8.149   1.333
 9770SOL     OW41371   2.248   7.672   0.432
 9770SOL    HW141372   2.202   7.712   0.511
 9770SOL    HW241373   2.196   7.691   0.350
 9771SOL     OW41374   3.376   9.199   1.344
 9771SOL    HW141375   3.319   9.150   1.278
 9771SOL    HW241376   3.462   9.226   1.301
 9772SOL     OW41377   3.671   7.917   1.199
 9772SOL    HW141378   3.728   7.999   1.201
 9772SOL    HW241379   3.612   7.916   1.279
 9773SOL     OW41380   3.688   9.143   1.112
 9773SOL    HW141381   3.734   9.153   1.200
 9773SOL    HW241382   3.755   9.146   1.039
 9774SOL     OW41383   2.801   7.883   0.674
 9774SOL    HW141384   2.877   7.911   0.733
 9774SOL    HW241385   2.757   7.963   0.635
 9775SOL     OW41386   3.036   8.347   0.191
 9775SOL    HW141387   3.073   8.297   0.269
 9775SOL    HW241388   2.966   8.292   0.146
 9776SOL     OW41389   3.619   8.016   0.270
 9776SOL    HW141390   3.640   7.935   0.216
 9776SOL    HW241391   3.636   7.997   0.367
 9777SOL     OW41392   2.913   9.154   0.178
 9777SOL    HW141393   2.947   9.067   0.143
 9777SOL    HW241394   2.881   9.142   0.272
 9778SOL     OW41395   2.594   7.421   1.710
 9778SOL    HW141396   2.601   7.327   1.677
 9778SOL    HW241397   2.651   7.431   1.792
 9779SOL     OW41398   3.517   8.022   0.978
 9779SOL    HW141399   3.502   8.113   1.015
 9779SOL    HW241400   3.587   7.975   1.032
 9780SOL     OW41401   2.927   8.688   1.744
 9780SOL    HW141402   2.949   8.598   1.706
 9780SOL    HW241403   2.862   8.735   1.685
 9781SOL     OW41404   3.217   7.394   0.854
 9781SOL    HW141405   3.166   7.478   0.836
 9781SOL    HW241406   3.303   7.396   0.803
 9782SOL     OW41407   1.875   8.004   0.527
 9782SOL    HW141408   1.877   7.955   0.614
 9782SOL    HW241409   1.877   8.103   0.545
 9783SOL     OW41410   2.196   7.592   0.848
 9783SOL    HW141411   2.248   7.632   0.923
 9783SOL    HW241412   2.249   7.519   0.805
 9784SOL     OW41413   2.180   7.640   1.182
 9784SOL    HW141414   2.145   7.547   1.182
 9784SOL    HW241415   2.267   7.643   1.133
 9785SOL     OW41416   2.847   8.262   0.922
 9785SOL    HW141417   2.873   8.342   0.868
 9785SOL    HW241418   2.841   8.182   0.862
 9786SOL     OW41419   2.048   8.889   0.381
 9786SOL    HW141420   2.075   8.795   0.401
 9786SOL    HW241421   2.073   8.911   0.287
 9787SOL     OW41422   3.330   8.758   1.255
 9787SOL    HW141423   3.301   8.795   1.166
 9787SOL    HW241424   3.252   8.758   1.317
 9788SOL     OW41425   2.062   9.032   0.618
 9788SOL    HW141426   1.978   9.083   0.636
 9788SOL    HW241427   2.053   8.981   0.533
 9789SOL     OW41428   3.583   8.829   1.293
 9789SOL    HW141429   3.614   8.843   1.387
 9789SOL    HW241430   3.484   8.816   1.292
 9790SOL     OW41431   2.335   8.329   0.020
 9790SOL    HW141432   2.304   8.363  -0.068
 9790SOL    HW241433   2.339   8.404   0.086
 9791SOL     OW41434   2.852   8.516   1.319
 9791SOL    HW141435   2.902   8.431   1.303
 9791SOL    HW241436   2.806   8.543   1.234
 9792SOL     OW41437   1.939   8.221   0.193
 9792SOL    HW141438   1.999   8.168   0.253
 9792SOL    HW241439   1.845   8.189   0.205
 9793SOL     OW41440   3.459   8.219   0.393
 9793SOL    HW141441   3.527   8.153   0.360
 9793SOL    HW241442   3.474   8.307   0.349
 9794SOL     OW41443   2.707   9.206   1.041
 9794SOL    HW141444   2.753   9.139   0.983
 9794SOL    HW241445   2.633   9.162   1.091
 9795SOL     OW41446   2.614   8.275   0.077
 9795SOL    HW141447   2.643   8.194   0.128
 9795SOL    HW241448   2.514   8.274   0.068
 9796SOL     OW41449   3.210   7.807   0.423
 9796SOL    HW141450   3.147   7.865   0.371
 9796SOL    HW241451   3.303   7.841   0.411
 9797SOL     OW41452   2.887   8.284   1.178
 9797SOL    HW141453   2.881   8.270   1.079
 9797SOL    HW241454   2.806   8.245   1.222
 9798SOL     OW41455   3.478   7.818   0.493
 9798SOL    HW141456   3.574   7.789   0.490
 9798SOL    HW241457   3.439   7.796   0.582
 9799SOL     OW41458   2.762   8.893   0.930
 9799SOL    HW141459   2.820   8.904   0.849
 9799SOL    HW241460   2.668   8.917   0.908
 9800SOL     OW41461   2.712   7.759   0.215
 9800SOL    HW141462   2.621   7.772   0.253
 9800SOL    HW241463   2.772   7.719   0.285
 9801SOL     OW41464   2.823   8.704   0.150
 9801SOL    HW141465   2.876   8.644   0.210
 9801SOL    HW241466   2.862   8.705   0.059
 9802SOL     OW41467   3.574   8.999   0.635
 9802SOL    HW141468   3.541   9.092   0.654
 9802SOL    HW241469   3.572   8.983   0.536
 9803SOL     OW41470   2.989   8.272   0.624
 9803SOL    HW141471   3.054   8.300   0.695
 9803SOL    HW241472   2.910   8.333   0.626
 9804SOL     OW41473   2.737   8.998   1.648
 9804SOL    HW141474   2.725   8.929   1.577
 9804SOL    HW241475   2.700   8.963   1.735
 9805SOL     OW41476   3.181   8.312   0.827
 9805SOL    HW141477   3.202   8.254   0.905
 9805SOL    HW241478   3.190   8.408   0.853
 9806SOL     OW41479   2.137   8.441   0.873
 9806SOL    HW141480   2.060   8.503   0.866
 9806SOL    HW241481   2.174   8.442   0.966
 9807SOL     OW41482   2.770   8.389   0.572
 9807SOL    HW141483   2.757   8.300   0.529
 9807SOL    HW241484   2.701   8.403   0.643
 9808SOL     OW41485   3.074   8.777   1.411
 9808SOL    HW141486   3.107   8.862   1.452
 9808SOL    HW241487   2.975   8.773   1.418
 9809SOL     OW41488   1.881   7.694   0.475
 9809SOL    HW141489   1.941   7.645   0.413
 9809SOL    HW241490   1.936   7.746   0.540
 9810SOL     OW41491   3.504   9.192   0.166
 9810SOL    HW141492   3.594   9.236   0.168
 9810SOL    HW241493   3.503   9.123   0.094
 9811SOL     OW41494   1.905   9.186   1.395
 9811SOL    HW141495   1.913   9.286   1.393
 9811SOL    HW241496   1.881   9.157   1.488
 9812SOL     OW41497   2.686   8.205   0.389
 9812SOL    HW141498   2.597   8.233   0.354
 9812SOL    HW241499   2.727   8.139   0.325
 9813SOL     OW41500   2.208   7.923   0.928
 9813SOL    HW141501   2.264   7.916   0.845
 9813SOL    HW241502   2.265   7.901   1.008
 9814SOL     OW41503   2.205   9.121   0.199
 9814SOL    HW141504   2.297   9.151   0.174
 9814SOL    HW241505   2.180   9.160   0.288
 9815SOL     OW41506   3.181   9.143   1.136
 9815SOL    HW141507   3.200   9.206   1.062
 9815SOL    HW241508   3.189   9.049   1.103
 9816SOL     OW41509   1.886   8.538   0.948
 9816SOL    HW141510   1.796   8.554   0.909
 9816SOL    HW241511   1.884   8.454   1.003
 9817SOL     OW41512   2.637   7.443   0.398
 9817SOL    HW141513   2.598   7.432   0.307
 9817SOL    HW241514   2.593   7.519   0.445
 9818SOL     OW41515   1.882   8.579   0.492
 9818SOL    HW141516   1.960   8.637   0.516
 9818SOL    HW241517   1.901   8.530   0.407
 9819SOL     OW41518   3.412   7.707   1.576
 9819SOL    HW141519   3.351   7.785   1.573
 9819SOL    HW241520   3.467   7.711   1.659
 9820SOL     OW41521   3.128   7.653   0.867
 9820SOL    HW141522   3.127   7.731   0.804
 9820SOL    HW241523   3.171   7.680   0.953
 9821SOL     OW41524   3.248   7.459   0.163
 9821SOL    HW141525   3.328   7.399   0.160
 9821SOL    HW241526   3.174   7.412   0.211
 9822SOL     OW41527   2.563   7.690   0.729
 9822SOL    HW141528   2.552   7.632   0.810
 9822SOL    HW241529   2.648   7.742   0.737
 9823SOL     OW41530   3.143   8.041   1.121
 9823SOL    HW141531   3.197   8.081   1.047
 9823SOL    HW241532   3.181   8.070   1.209
 9824SOL     OW41533   3.436   7.447   0.437
 9824SOL    HW141534   3.443   7.401   0.349
 9824SOL    HW241535   3.340   7.457   0.462
 9825SOL     OW41536   2.412   8.762   1.800
 9825SOL    HW141537   2.373   8.825   1.733
 9825SOL    HW241538   2.495   8.802   1.840
 9826SOL     OW41539   2.288   8.494   1.632
 9826SOL    HW141540   2.307   8.518   1.537
 9826SOL    HW241541   2.281   8.577   1.687
 9827SOL     OW41542   1.949   8.784   1.106
 9827SOL    HW141543   1.918   8.710   1.047
 9827SOL    HW241544   1.881   8.802   1.177
 9828SOL     OW41545   3.035   7.985   0.839
 9828SOL    HW141546   3.117   7.962   0.787
 9828SOL    HW241547   3.030   7.926   0.920
 9829SOL     OW41548   3.635   8.012   1.675
 9829SOL    HW141549   3.624   8.098   1.624
 9829SOL    HW241550   3.729   8.003   1.705
 9830SOL     OW41551   3.206   7.785   1.094
 9830SOL    HW141552   3.180   7.882   1.100
 9830SOL    HW241553   3.206   7.745   1.186
 9831SOL     OW41554   3.436   7.917   1.845
 9831SOL    HW141555   3.516   7.942   1.789
 9831SOL    HW241556   3.467   7.882   1.933
 9832SOL     OW41557   3.147   8.220   0.425
 9832SOL    HW141558   3.093   8.218   0.509
 9832SOL    HW241559   3.224   8.283   0.436
 9833SOL     OW41560   3.444   8.316   0.645
 9833SOL    HW141561   3.458   8.279   0.552
 9833SOL    HW241562   3.355   8.286   0.679
 9834SOL     OW41563   3.600   8.253   1.540
 9834SOL    HW141564   3.502   8.274   1.542
 9834SOL    HW241565   3.649   8.329   1.499
 9835SOL     OW41566   3.454   7.673   0.219
 9835SOL    HW141567   3.459   7.715   0.310
 9835SOL    HW241568   3.387   7.598   0.221
 9836SOL     OW41569   2.601   8.888   1.439
 9836SOL    HW141570   2.538   8.966   1.446
 9836SOL    HW241571   2.569   8.826   1.367
 9837SOL     OW41572   1.872   9.097   1.648
 9837SOL    HW141573   1.944   9.083   1.716
 9837SOL    HW241574   1.783   9.100   1.693
 9838SOL     OW41575   2.040   7.753   0.672
 9838SOL    HW141576   1.983   7.808   0.733
 9838SOL    HW241577   2.110   7.705   0.725
 9839SOL     OW41578   3.212   8.985   1.535
 9839SOL    HW141579   3.165   9.053   1.590
 9839SOL    HW241580   3.279   9.031   1.476
 9840SOL     OW41581   2.177   7.944   0.270
 9840SOL    HW141582   2.249   7.973   0.207
 9840SOL    HW241583   2.133   8.024   0.310
 9841SOL     OW41584   3.563   7.606   1.373
 9841SOL    HW141585   3.519   7.654   1.449
 9841SOL    HW241586   3.541   7.652   1.287
 9842SOL     OW41587   2.292   9.207   0.736
 9842SOL    HW141588   2.216   9.173   0.681
 9842SOL    HW241589   2.378   9.170   0.701
 9843SOL     OW41590   2.217   8.716   1.181
 9843SOL    HW141591   2.229   8.732   1.278
 9843SOL    HW241592   2.130   8.756   1.151
 9844SOL     OW41593   3.101   8.920   1.827
 9844SOL    HW141594   3.060   8.835   1.793
 9844SOL    HW241595   3.081   8.994   1.763
 9845SOL     OW41596   2.591   8.640   0.517
 9845SOL    HW141597   2.634   8.571   0.459
 9845SOL    HW241598   2.555   8.597   0.600
 9846SOL     OW41599   2.223   8.191   0.719
 9846SOL    HW141600   2.215   8.289   0.737
 9846SOL    HW241601   2.307   8.157   0.760
 9847SOL     OW41602   2.069   7.671   0.234
 9847SOL    HW141603   2.113   7.640   0.151
 9847SOL    HW241604   2.070   7.771   0.238
 9848SOL     OW41605   1.922   7.923   0.845
 9848SOL    HW141606   1.886   8.016   0.837
 9848SOL    HW241607   2.005   7.924   0.901
 9849SOL     OW41608   2.357   8.510   0.231
 9849SOL    HW141609   2.457   8.510   0.242
 9849SOL    HW241610   2.326   8.603   0.210
 9850SOL     OW41611   2.983   8.102   0.047
 9850SOL    HW141612   2.914   8.159   0.003
 9850SOL    HW241613   3.064   8.096  -0.012
 9851SOL     OW41614   2.718   8.021   0.190
 9851SOL    HW141615   2.808   8.022   0.145
 9851SOL    HW241616   2.695   7.927   0.215
 9852SOL     OW41617   3.169   7.538   0.484
 9852SOL    HW141618   3.079   7.522   0.525
 9852SOL    HW241619   3.177   7.634   0.458
 9853SOL     OW41620   3.283   7.938   1.500
 9853SOL    HW141621   3.235   7.961   1.584
 9853SOL    HW241622   3.217   7.908   1.431
 9854SOL     OW41623   1.918   7.453   0.144
 9854SOL    HW141624   1.981   7.376   0.152
 9854SOL    HW241625   1.938   7.521   0.215
 9855SOL     OW41626   2.191   8.428   1.145
 9855SOL    HW141627   2.202   8.383   1.234
 9855SOL    HW241628   2.218   8.524   1.152
 9856SOL     OW41629   3.490   8.440   0.245
 9856SOL    HW141630   3.561   8.510   0.247
 9856SOL    HW241631   3.477   8.410   0.150
 9857SOL     OW41632   2.472   8.041   1.167
 9857SOL    HW141633   2.547   8.084   1.216
 9857SOL    HW241634   2.405   8.006   1.233
 9858SOL     OW41635   3.007   8.431   1.644
 9858SOL    HW141636   2.929   8.377   1.677
 9858SOL    HW241637   3.088   8.409   1.699
 9859SOL     OW41638   2.936   7.613   0.640
 9859SOL    HW141639   2.995   7.673   0.695
 9859SOL    HW241640   2.863   7.577   0.697
 9860SOL     OW41641   3.046   9.145   1.680
 9860SOL    HW141642   2.951   9.143   1.648
 9860SOL    HW241643   3.067   9.236   1.717
 9861SOL     OW41644   2.464   7.490   0.911
 9861SOL    HW141645   2.392   7.423   0.897
 9861SOL    HW241646   2.546   7.444   0.946
 9862SOL     OW41647   2.164   9.155   1.278
 9862SOL    HW141648   2.144   9.137   1.182
 9862SOL    HW241649   2.091   9.117   1.335
 9863SOL     OW41650   2.857   8.619   0.823
 9863SOL    HW141651   2.896   8.662   0.742
 9863SOL    HW241652   2.930   8.602   0.890
 9864SOL     OW41653   2.551   8.347   1.025
 9864SOL    HW141654   2.549   8.263   0.970
 9864SOL    HW241655   2.500   8.333   1.110
 9865SOL     OW41656   1.890   8.357   1.151
 9865SOL    HW141657   1.979   8.335   1.191
 9865SOL    HW241658   1.835   8.273   1.147
 9866SOL     OW41659   2.118   7.402   0.431
 9866SOL    HW141660   2.156   7.490   0.458
 9866SOL    HW241661   2.041   7.378   0.491
 9867SOL     OW41662   1.940   8.489   0.251
 9867SOL    HW141663   1.930   8.392   0.230
 9867SOL    HW241664   1.993   8.534   0.179
 9868SOL     OW41665   3.637   7.601   0.852
 9868SOL    HW141666   3.592   7.583   0.939
 9868SOL    HW241667   3.735   7.618   0.868
 9869SOL     OW41668   2.685   8.577   1.104
 9869SOL    HW141669   2.636   8.492   1.085
 9869SOL    HW241670   2.755   8.592   1.035
 9870SOL     OW41671   3.023   8.000   0.313
 9870SOL    HW141672   3.075   8.072   0.359
 9870SOL    HW241673   3.036   8.007   0.215
 9871SOL     OW41674   3.384   8.815   1.640
 9871SOL    HW141675   3.369   8.717   1.654
 9871SOL    HW241676   3.301   8.857   1.604
 9872SOL     OW41677   2.141   8.257   1.380
 9872SOL    HW141678   2.105   8.167   1.406
 9872SOL    HW241679   2.102   8.327   1.440
 9873SOL     OW41680   2.643   8.883   0.038
 9873SOL    HW141681   2.618   8.960   0.097
 9873SOL    HW241682   2.707   8.823   0.086
 9874SOL     OW41683   2.461   9.090   1.072
 9874SOL    HW141684   2.481   9.060   0.979
 9874SOL    HW241685   2.386   9.035   1.109
 9875SOL     OW41686   2.604   8.501   0.789
 9875SOL    HW141687   2.693   8.547   0.789
 9875SOL    HW241688   2.597   8.441   0.868
 9876SOL     OW41689   2.782   8.848   0.458
 9876SOL    HW141690   2.832   8.836   0.373
 9876SOL    HW241691   2.728   8.765   0.477
 9877SOL     OW41692   1.972   8.195   0.858
 9877SOL    HW141693   2.067   8.186   0.826
 9877SOL    HW241694   1.938   8.287   0.837
 9878SOL     OW41695   1.909   8.312   1.785
 9878SOL    HW141696   1.824   8.263   1.766
 9878SOL    HW241697   1.936   8.299   1.880
 9879SOL     OW41698   2.806   9.221   1.491
 9879SOL    HW141699   2.778   9.134   1.532
 9879SOL    HW241700   2.750   9.295   1.528
 9880SOL     OW41701   3.035   8.568   1.021
 9880SOL    HW141702   3.019   8.662   1.052
 9880SOL    HW241703   3.038   8.507   1.101
 9881SOL     OW41704   2.373   8.256   0.357
 9881SOL    HW141705   2.323   8.321   0.301
 9881SOL    HW241706   2.315   8.177   0.376
 9882SOL     OW41707   3.454   8.287   1.055
 9882SOL    HW141708   3.473   8.326   0.964
 9882SOL    HW241709   3.408   8.356   1.111
 9883SOL     OW41710   3.146   7.730   1.351
 9883SOL    HW141711   3.217   7.702   1.415
 9883SOL    HW241712   3.093   7.650   1.323
 9884SOL     OW41713   1.847   7.429   0.552
 9884SOL    HW141714   1.760   7.416   0.505
 9884SOL    HW241715   1.855   7.524   0.582
 9885SOL     OW41716   2.284   8.949   1.618
 9885SOL    HW141717   2.226   9.014   1.667
 9885SOL    HW241718   2.346   8.999   1.558
 9886SOL     OW41719   3.640   8.836   1.559
 9886SOL    HW141720   3.668   8.929   1.581
 9886SOL    HW241721   3.547   8.820   1.592
 9887SOL     OW41722   2.890   7.949   1.109
 9887SOL    HW141723   2.976   8.000   1.108
 9887SOL    HW241724   2.896   7.875   1.176
 9888SOL     OW41725   2.294   8.895   0.681
 9888SOL    HW141726   2.292   8.796   0.694
 9888SOL    HW241727   2.203   8.928   0.658
 9889SOL     OW41728   2.935   9.012   1.269
 9889SOL    HW141729   2.861   9.076   1.287
 9889SOL    HW241730   3.014   9.061   1.231
 9890SOL     OW41731   2.144   9.142   1.768
 9890SOL    HW141732   2.187   9.226   1.734
 9890SOL    HW241733   2.169   9.129   1.864
 9891SOL     OW41734   2.004   8.678   1.639
 9891SOL    HW141735   1.983   8.583   1.612
 9891SOL    HW241736   1.935   8.739   1.601
 9892SOL     OW41737   2.093   9.043   1.043
 9892SOL    HW141738   2.035   8.963   1.057
 9892SOL    HW241739   2.117   9.050   0.946
 9893SOL     OW41740   2.839   7.564   0.898
 9893SOL    HW141741   2.935   7.565   0.926
 9893SOL    HW241742   2.784   7.521   0.970
 9894SOL     OW41743   2.901   8.570   0.414
 9894SOL    HW141744   2.981   8.606   0.462
 9894SOL    HW241745   2.859   8.497   0.470
 9895SOL     OW41746   3.492   7.837   0.778
 9895SOL    HW141747   3.511   7.923   0.825
 9895SOL    HW241748   3.560   7.768   0.806
 9896SOL     OW41749   2.635   8.509   0.264
 9896SOL    HW141750   2.707   8.568   0.229
 9896SOL    HW241751   2.675   8.425   0.300
 9897SOL     OW41752   2.706   7.485   0.116
 9897SOL    HW141753   2.781   7.419   0.128
 9897SOL    HW241754   2.737   7.576   0.144
 9898SOL     OW41755   2.385   7.914   0.728
 9898SOL    HW141756   2.423   7.825   0.754
 9898SOL    HW241757   2.452   7.964   0.673
 9899SOL     OW41758   2.373   8.472   1.382
 9899SOL    HW141759   2.469   8.452   1.402
 9899SOL    HW241760   2.362   8.570   1.364
 9900SOL     OW41761   3.595   8.515   1.351
 9900SOL    HW141762   3.609   8.613   1.365
 9900SOL    HW241763   3.652   8.484   1.275
 9901SOL     OW41764   2.078   8.624   0.043
 9901SOL    HW141765   2.070   8.636  -0.056
 9901SOL    HW241766   2.137   8.695   0.081
 9902SOL     OW41767   2.505   9.063   0.203
 9902SOL    HW141768   2.480   9.158   0.187
 9902SOL    HW241769   2.472   9.035   0.293
 9903SOL     OW41770   3.155   8.486   1.427
 9903SOL    HW141771   3.099   8.445   1.498
 9903SOL    HW241772   3.135   8.584   1.421
 9904SOL     OW41773   2.422   9.102   1.427
 9904SOL    HW141774   2.471   9.182   1.391
 9904SOL    HW241775   2.330   9.100   1.388
 9905SOL     OW41776   3.504   8.944   1.028
 9905SOL    HW141777   3.476   9.037   1.052
 9905SOL    HW241778   3.554   8.903   1.104
 9906SOL     OW41779   1.900   8.317   0.589
 9906SOL    HW141780   1.907   8.416   0.576
 9906SOL    HW241781   1.809   8.294   0.623
 9907SOL     OW41782   3.476   8.491   0.839
 9907SOL    HW141783   3.438   8.580   0.812
 9907SOL    HW241784   3.476   8.429   0.761
 9908SOL     OW41785   2.634   7.897   1.008
 9908SOL    HW141786   2.726   7.925   1.035
 9908SOL    HW241787   2.566   7.948   1.062
 9909SOL     OW41788   2.487   8.748   1.235
 9909SOL    HW141789   2.400   8.747   1.186
 9909SOL    HW241790   2.553   8.688   1.188
 9910SOL     OW41791   2.053   8.090   1.149
 9910SOL    HW141792   2.091   8.149   1.220
 9910SOL    HW241793   2.036   8.143   1.067
 9911SOL     OW41794   2.224   8.736   1.447
 9911SOL    HW141795   2.243   8.824   1.491
 9911SOL    HW241796   2.129   8.710   1.465
 9912SOL     OW41797   3.467   9.052   1.795
 9912SOL    HW141798   3.436   8.974   1.740
 9912SOL    HW241799   3.436   9.137   1.753
 9913SOL     OW41800   3.175   8.590   0.516
 9913SOL    HW141801   3.274   8.594   0.532
 9913SOL    HW241802   3.158   8.576   0.418
 9914SOL     OW41803   2.528   7.756   0.464
 9914SOL    HW141804   2.430   7.750   0.444
 9914SOL    HW241805   2.547   7.713   0.552
 9915SOL     OW41806   3.448   7.439   0.723
 9915SOL    HW141807   3.443   7.480   0.632
 9915SOL    HW241808   3.529   7.473   0.770
 9916SOL     OW41809   3.051   8.195   1.416
 9916SOL    HW141810   3.150   8.204   1.406
 9916SOL    HW241811   3.007   8.197   1.326
 9917SOL     OW41812   2.545   8.155   0.818
 9917SOL    HW141813   2.567   8.077   0.876
 9917SOL    HW241814   2.554   8.129   0.722
 9918SOL     OW41815   3.210   8.862   1.030
 9918SOL    HW141816   3.124   8.819   1.059
 9918SOL    HW241817   3.199   8.902   0.939
 9919SOL     OW41818   3.213   7.847   0.705
 9919SOL    HW141819   3.212   7.839   0.606
 9919SOL    HW241820   3.302   7.819   0.740
 9920SOL     OW41821   2.940   8.863   2.537
 9920SOL    HW141822   3.031   8.897   2.560
 9920SOL    HW241823   2.912   8.901   2.449
 9921SOL     OW41824   3.451   8.659   2.395
 9921SOL    HW141825   3.462   8.743   2.449
 9921SOL    HW241826   3.541   8.622   2.372
 9922SOL     OW41827   3.531   7.941   3.259
 9922SOL    HW141828   3.433   7.933   3.281
 9922SOL    HW241829   3.584   7.930   3.343
 9923SOL     OW41830   3.185   8.967   2.639
 9923SOL    HW141831   3.174   9.064   2.662
 9923SOL    HW241832   3.278   8.950   2.609
 9924SOL     OW41833   3.063   7.478   3.197
 9924SOL    HW141834   2.987   7.433   3.244
 9924SOL    HW241835   3.092   7.423   3.119
 9925SOL     OW41836   2.801   8.258   3.574
 9925SOL    HW141837   2.766   8.233   3.484
 9925SOL    HW241838   2.725   8.279   3.635
 9926SOL     OW41839   2.408   8.932   2.268
 9926SOL    HW141840   2.364   8.941   2.357
 9926SOL    HW241841   2.479   8.862   2.272
 9927SOL     OW41842   2.426   7.465   1.990
 9927SOL    HW141843   2.514   7.493   1.951
 9927SOL    HW241844   2.354   7.528   1.960
 9928SOL     OW41845   3.396   8.450   3.373
 9928SOL    HW141846   3.304   8.455   3.335
 9928SOL    HW241847   3.461   8.488   3.307
 9929SOL     OW41848   3.296   8.457   3.054
 9929SOL    HW141849   3.221   8.446   3.119
 9929SOL    HW241850   3.333   8.550   3.060
 9930SOL     OW41851   2.792   8.712   3.354
 9930SOL    HW141852   2.735   8.775   3.300
 9930SOL    HW241853   2.825   8.638   3.295
 9931SOL     OW41854   2.335   8.605   2.563
 9931SOL    HW141855   2.268   8.559   2.622
 9931SOL    HW241856   2.427   8.573   2.586
 9932SOL     OW41857   3.182   7.919   3.603
 9932SOL    HW141858   3.278   7.923   3.629
 9932SOL    HW241859   3.138   7.843   3.650
 9933SOL     OW41860   2.265   8.774   2.047
 9933SOL    HW141861   2.329   8.790   1.972
 9933SOL    HW241862   2.289   8.832   2.125
 9934SOL     OW41863   2.416   7.730   2.857
 9934SOL    HW141864   2.492   7.795   2.853
 9934SOL    HW241865   2.446   7.641   2.824
 9935SOL     OW41866   2.113   8.156   2.275
 9935SOL    HW141867   2.128   8.090   2.349
 9935SOL    HW241868   2.063   8.235   2.310
 9936SOL     OW41869   2.699   9.101   2.452
 9936SOL    HW141870   2.764   9.034   2.416
 9936SOL    HW241871   2.689   9.177   2.388
 9937SOL     OW41872   3.591   8.983   2.194
 9937SOL    HW141873   3.687   8.957   2.187
 9937SOL    HW241874   3.567   9.043   2.118
 9938SOL     OW41875   3.503   7.676   2.965
 9938SOL    HW141876   3.554   7.748   2.918
 9938SOL    HW241877   3.408   7.703   2.974
 9939SOL     OW41878   2.903   7.705   2.234
 9939SOL    HW141879   2.928   7.799   2.255
 9939SOL    HW241880   2.904   7.651   2.318
 9940SOL     OW41881   2.027   8.418   3.419
 9940SOL    HW141882   2.123   8.433   3.437
 9940SOL    HW241883   1.989   8.356   3.488
 9941SOL     OW41884   2.526   8.987   2.660
 9941SOL    HW141885   2.599   9.010   2.596
 9941SOL    HW241886   2.455   8.934   2.614
 9942SOL     OW41887   2.868   8.019   3.414
 9942SOL    HW141888   2.901   7.936   3.461
 9942SOL    HW241889   2.941   8.087   3.413
 9943SOL     OW41890   3.472   8.819   2.636
 9943SOL    HW141891   3.468   8.854   2.729
 9943SOL    HW241892   3.531   8.878   2.580
 9944SOL     OW41893   2.203   8.640   2.312
 9944SOL    HW141894   2.249   8.614   2.397
 9944SOL    HW241895   2.223   8.572   2.241
 9945SOL     OW41896   2.213   7.900   3.118
 9945SOL    HW141897   2.203   7.813   3.070
 9945SOL    HW241898   2.149   7.967   3.081
 9946SOL     OW41899   3.295   8.180   3.156
 9946SOL    HW141900   3.299   8.274   3.121
 9946SOL    HW241901   3.388   8.149   3.178
 9947SOL     OW41902   2.248   7.672   2.277
 9947SOL    HW141903   2.202   7.712   2.356
 9947SOL    HW241904   2.196   7.691   2.195
 9948SOL     OW41905   3.376   9.199   3.189
 9948SOL    HW141906   3.319   9.150   3.123
 9948SOL    HW241907   3.462   9.226   3.146
 9949SOL     OW41908   3.671   7.917   3.044
 9949SOL    HW141909   3.728   7.999   3.046
 9949SOL    HW241910   3.612   7.916   3.124
 9950SOL     OW41911   3.688   9.143   2.957
 9950SOL    HW141912   3.734   9.153   3.045
 9950SOL    HW241913   3.755   9.146   2.884
 9951SOL     OW41914   2.801   7.883   2.519
 9951SOL    HW141915   2.877   7.911   2.578
 9951SOL    HW241916   2.757   7.963   2.480
 9952SOL     OW41917   3.036   8.347   2.036
 9952SOL    HW141918   3.073   8.297   2.114
 9952SOL    HW241919   2.966   8.292   1.991
 9953SOL     OW41920   2.878   7.769   3.657
 9953SOL    HW141921   2.941   7.774   3.734
 9953SOL    HW241922   2.786   7.747   3.690
 9954SOL     OW41923   3.619   8.016   2.115
 9954SOL    HW141924   3.640   7.935   2.061
 9954SOL    HW241925   3.636   7.997   2.212
 9955SOL     OW41926   2.913   9.154   2.023
 9955SOL    HW141927   2.947   9.067   1.988
 9955SOL    HW241928   2.881   9.142   2.117
 9956SOL     OW41929   2.594   7.421   3.555
 9956SOL    HW141930   2.601   7.327   3.522
 9956SOL    HW241931   2.651   7.431   3.637
 9957SOL     OW41932   3.517   8.022   2.823
 9957SOL    HW141933   3.502   8.113   2.860
 9957SOL    HW241934   3.587   7.975   2.877
 9958SOL     OW41935   2.927   8.688   3.589
 9958SOL    HW141936   2.949   8.598   3.551
 9958SOL    HW241937   2.862   8.735   3.530
 9959SOL     OW41938   2.582   8.530   3.593
 9959SOL    HW141939   2.553   8.607   3.650
 9959SOL    HW241940   2.592   8.449   3.651
 9960SOL     OW41941   3.572   7.600   3.628
 9960SOL    HW141942   3.549   7.621   3.723
 9960SOL    HW241943   3.548   7.505   3.608
 9961SOL     OW41944   1.875   8.004   2.372
 9961SOL    HW141945   1.877   7.955   2.459
 9961SOL    HW241946   1.877   8.103   2.390
 9962SOL     OW41947   2.196   7.592   2.693
 9962SOL    HW141948   2.248   7.632   2.768
 9962SOL    HW241949   2.249   7.519   2.650
 9963SOL     OW41950   2.180   7.640   3.027
 9963SOL    HW141951   2.145   7.547   3.027
 9963SOL    HW241952   2.267   7.643   2.978
 9964SOL     OW41953   2.847   8.262   2.767
 9964SOL    HW141954   2.873   8.342   2.713
 9964SOL    HW241955   2.841   8.182   2.707
 9965SOL     OW41956   2.048   8.889   2.226
 9965SOL    HW141957   2.075   8.795   2.246
 9965SOL    HW241958   2.073   8.911   2.132
 9966SOL     OW41959   3.330   8.758   3.100
 9966SOL    HW141960   3.301   8.795   3.011
 9966SOL    HW241961   3.252   8.758   3.162
 9967SOL     OW41962   2.062   9.032   2.463
 9967SOL    HW141963   1.978   9.083   2.481
 9967SOL    HW241964   2.053   8.981   2.378
 9968SOL     OW41965   3.583   8.829   3.138
 9968SOL    HW141966   3.614   8.843   3.232
 9968SOL    HW241967   3.484   8.816   3.137
 9969SOL     OW41968   2.852   8.516   3.164
 9969SOL    HW141969   2.902   8.431   3.148
 9969SOL    HW241970   2.806   8.543   3.079
 9970SOL     OW41971   1.939   8.221   2.038
 9970SOL    HW141972   1.999   8.168   2.098
 9970SOL    HW241973   1.845   8.189   2.050
 9971SOL     OW41974   3.459   8.219   2.238
 9971SOL    HW141975   3.527   8.153   2.205
 9971SOL    HW241976   3.474   8.307   2.194
 9972SOL     OW41977   2.707   9.206   2.886
 9972SOL    HW141978   2.753   9.139   2.828
 9972SOL    HW241979   2.633   9.162   2.936
 9973SOL     OW41980   3.210   7.807   2.268
 9973SOL    HW141981   3.147   7.865   2.216
 9973SOL    HW241982   3.303   7.841   2.256
 9974SOL     OW41983   2.107   8.008   3.368
 9974SOL    HW141984   2.127   7.913   3.343
 9974SOL    HW241985   2.070   8.011   3.461
 9975SOL     OW41986   1.989   7.663   3.258
 9975SOL    HW141987   2.061   7.673   3.189
 9975SOL    HW241988   1.900   7.662   3.213
 9976SOL     OW41989   2.887   8.284   3.023
 9976SOL    HW141990   2.881   8.270   2.924
 9976SOL    HW241991   2.806   8.245   3.067
 9977SOL     OW41992   3.478   7.818   2.338
 9977SOL    HW141993   3.574   7.789   2.335
 9977SOL    HW241994   3.439   7.796   2.427
 9978SOL     OW41995   2.762   8.893   2.775
 9978SOL    HW141996   2.820   8.904   2.694
 9978SOL    HW241997   2.668   8.917   2.753
 9979SOL     OW41998   2.712   7.759   2.060
 9979SOL    HW141999   2.621   7.772   2.098
 9979SOL    HW242000   2.772   7.719   2.130
 9980SOL     OW42001   2.823   8.704   1.995
 9980SOL    HW142002   2.876   8.644   2.055
 9980SOL    HW242003   2.862   8.705   1.904
 9981SOL     OW42004   3.574   8.999   2.480
 9981SOL    HW142005   3.541   9.092   2.499
 9981SOL    HW242006   3.572   8.983   2.381
 9982SOL     OW42007   2.989   8.272   2.469
 9982SOL    HW142008   3.054   8.300   2.540
 9982SOL    HW242009   2.910   8.333   2.471
 9983SOL     OW42010   2.737   8.998   3.493
 9983SOL    HW142011   2.725   8.929   3.422
 9983SOL    HW242012   2.700   8.963   3.580
 9984SOL     OW42013   3.181   8.312   2.672
 9984SOL    HW142014   3.202   8.254   2.750
 9984SOL    HW242015   3.190   8.408   2.698
 9985SOL     OW42016   2.137   8.441   2.718
 9985SOL    HW142017   2.060   8.503   2.711
 9985SOL    HW242018   2.174   8.442   2.811
 9986SOL     OW42019   2.770   8.389   2.417
 9986SOL    HW142020   2.757   8.300   2.374
 9986SOL    HW242021   2.701   8.403   2.488
 9987SOL     OW42022   3.074   8.777   3.256
 9987SOL    HW142023   3.107   8.862   3.297
 9987SOL    HW242024   2.975   8.773   3.263
 9988SOL     OW42025   1.881   7.694   2.320
 9988SOL    HW142026   1.941   7.645   2.258
 9988SOL    HW242027   1.936   7.746   2.385
 9989SOL     OW42028   3.504   9.192   2.011
 9989SOL    HW142029   3.594   9.236   2.013
 9989SOL    HW242030   3.503   9.123   1.939
 9990SOL     OW42031   2.668   8.159   3.169
 9990SOL    HW142032   2.670   8.245   3.220
 9990SOL    HW242033   2.725   8.091   3.216
 9991SOL     OW42034   1.905   9.186   3.240
 9991SOL    HW142035   1.913   9.286   3.238
 9991SOL    HW242036   1.881   9.157   3.333
 9992SOL     OW42037   2.686   8.205   2.234
 9992SOL    HW142038   2.597   8.233   2.199
 9992SOL    HW242039   2.727   8.139   2.170
 9993SOL     OW42040   2.208   7.923   2.773
 9993SOL    HW142041   2.264   7.916   2.690
 9993SOL    HW242042   2.265   7.901   2.853
 9994SOL     OW42043   2.205   9.121   2.044
 9994SOL    HW142044   2.297   9.151   2.019
 9994SOL    HW242045   2.180   9.160   2.133
 9995SOL     OW42046   3.181   9.143   2.981
 9995SOL    HW142047   3.200   9.206   2.907
 9995SOL    HW242048   3.189   9.049   2.948
 9996SOL     OW42049   1.886   8.538   2.793
 9996SOL    HW142050   1.796   8.554   2.754
 9996SOL    HW242051   1.884   8.454   2.848
 9997SOL     OW42052   2.637   7.443   2.243
 9997SOL    HW142053   2.598   7.432   2.152
 9997SOL    HW242054   2.593   7.519   2.290
 9998SOL     OW42055   1.882   8.579   2.337
 9998SOL    HW142056   1.960   8.637   2.361
 9998SOL    HW242057   1.901   8.530   2.252
 9999SOL     OW42058   3.412   7.707   3.421
 9999SOL    HW142059   3.351   7.785   3.418
 9999SOL    HW242060   3.467   7.711   3.504
10000SOL     OW42061   3.128   7.653   2.712
10000SOL    HW142062   3.127   7.731   2.649
10000SOL    HW242063   3.171   7.680   2.798
10001SOL     OW42064   3.461   7.431   3.442
10001SOL    HW142065   3.487   7.388   3.356
10001SOL    HW242066   3.411   7.515   3.424
10002SOL     OW42067   3.143   8.041   2.966
10002SOL    HW142068   3.197   8.081   2.892
10002SOL    HW242069   3.181   8.070   3.054
10003SOL     OW42070   2.412   8.762   3.645
10003SOL    HW142071   2.373   8.825   3.578
10003SOL    HW242072   2.495   8.802   3.685
10004SOL     OW42073   2.288   8.494   3.477
10004SOL    HW142074   2.307   8.518   3.382
10004SOL    HW242075   2.281   8.577   3.532
10005SOL     OW42076   1.949   8.784   2.951
10005SOL    HW142077   1.918   8.710   2.892
10005SOL    HW242078   1.881   8.802   3.022
10006SOL     OW42079   3.035   7.985   2.684
10006SOL    HW142080   3.117   7.962   2.632
10006SOL    HW242081   3.030   7.926   2.765
10007SOL     OW42082   3.635   8.012   3.520
10007SOL    HW142083   3.624   8.098   3.469
10007SOL    HW242084   3.729   8.003   3.550
10008SOL     OW42085   3.206   7.785   2.939
10008SOL    HW142086   3.180   7.882   2.945
10008SOL    HW242087   3.206   7.745   3.031
10009SOL     OW42088   3.436   7.917   3.690
10009SOL    HW142089   3.516   7.942   3.634
10009SOL    HW242090   3.467   7.882   3.778
10010SOL     OW42091   3.147   8.220   2.270
10010SOL    HW142092   3.093   8.218   2.354
10010SOL    HW242093   3.224   8.283   2.281
10011SOL     OW42094   3.444   8.316   2.490
10011SOL    HW142095   3.458   8.279   2.397
10011SOL    HW242096   3.355   8.286   2.524
10012SOL     OW42097   3.600   8.253   3.385
10012SOL    HW142098   3.502   8.274   3.387
10012SOL    HW242099   3.649   8.329   3.344
10013SOL     OW42100   3.454   7.673   2.064
10013SOL    HW142101   3.459   7.715   2.155
10013SOL    HW242102   3.387   7.598   2.066
10014SOL     OW42103   2.601   8.888   3.284
10014SOL    HW142104   2.538   8.966   3.291
10014SOL    HW242105   2.569   8.826   3.212
10015SOL     OW42106   1.992   7.683   3.549
10015SOL    HW142107   2.010   7.672   3.451
10015SOL    HW242108   1.894   7.679   3.566
10016SOL     OW42109   1.872   9.097   3.493
10016SOL    HW142110   1.944   9.083   3.561
10016SOL    HW242111   1.783   9.100   3.538
10017SOL     OW42112   2.040   7.753   2.517
10017SOL    HW142113   1.983   7.808   2.578
10017SOL    HW242114   2.110   7.705   2.570
10018SOL     OW42115   3.212   8.985   3.380
10018SOL    HW142116   3.165   9.053   3.435
10018SOL    HW242117   3.279   9.031   3.321
10019SOL     OW42118   2.177   7.944   2.115
10019SOL    HW142119   2.249   7.973   2.052
10019SOL    HW242120   2.133   8.024   2.155
10020SOL     OW42121   3.563   7.606   3.218
10020SOL    HW142122   3.519   7.654   3.294
10020SOL    HW242123   3.541   7.652   3.132
10021SOL     OW42124   2.292   9.207   2.581
10021SOL    HW142125   2.216   9.173   2.526
10021SOL    HW242126   2.378   9.170   2.546
10022SOL     OW42127   2.217   8.716   3.026
10022SOL    HW142128   2.229   8.732   3.123
10022SOL    HW242129   2.130   8.756   2.996
10023SOL     OW42130   3.101   8.920   3.672
10023SOL    HW142131   3.060   8.835   3.638
10023SOL    HW242132   3.081   8.994   3.608
10024SOL     OW42133   2.591   8.640   2.362
10024SOL    HW142134   2.634   8.571   2.304
10024SOL    HW242135   2.555   8.597   2.445
10025SOL     OW42136   2.223   8.191   2.564
10025SOL    HW142137   2.215   8.289   2.582
10025SOL    HW242138   2.307   8.157   2.605
10026SOL     OW42139   1.922   7.923   2.690
10026SOL    HW142140   1.886   8.016   2.682
10026SOL    HW242141   2.005   7.924   2.746
10027SOL     OW42142   2.357   8.510   2.076
10027SOL    HW142143   2.457   8.510   2.087
10027SOL    HW242144   2.326   8.603   2.055
10028SOL     OW42145   2.983   8.102   1.892
10028SOL    HW142146   2.914   8.159   1.848
10028SOL    HW242147   3.064   8.096   1.833
10029SOL     OW42148   2.718   8.021   2.035
10029SOL    HW142149   2.808   8.022   1.990
10029SOL    HW242150   2.695   7.927   2.060
10030SOL     OW42151   3.169   7.538   2.329
10030SOL    HW142152   3.079   7.522   2.370
10030SOL    HW242153   3.177   7.634   2.303
10031SOL     OW42154   3.283   7.938   3.345
10031SOL    HW142155   3.235   7.961   3.429
10031SOL    HW242156   3.217   7.908   3.276
10032SOL     OW42157   1.918   7.453   1.989
10032SOL    HW142158   1.981   7.376   1.997
10032SOL    HW242159   1.938   7.521   2.060
10033SOL     OW42160   2.191   8.428   2.990
10033SOL    HW142161   2.202   8.383   3.079
10033SOL    HW242162   2.218   8.524   2.997
10034SOL     OW42163   3.490   8.440   2.090
10034SOL    HW142164   3.561   8.510   2.092
10034SOL    HW242165   3.477   8.410   1.995
10035SOL     OW42166   2.472   8.041   3.012
10035SOL    HW142167   2.547   8.084   3.061
10035SOL    HW242168   2.405   8.006   3.078
10036SOL     OW42169   2.615   8.410   3.329
10036SOL    HW142170   2.684   8.462   3.279
10036SOL    HW242171   2.610   8.443   3.424
10037SOL     OW42172   3.007   8.431   3.489
10037SOL    HW142173   2.929   8.377   3.522
10037SOL    HW242174   3.088   8.409   3.544
10038SOL     OW42175   2.936   7.613   2.485
10038SOL    HW142176   2.995   7.673   2.540
10038SOL    HW242177   2.863   7.577   2.542
10039SOL     OW42178   3.046   9.145   3.525
10039SOL    HW142179   2.951   9.143   3.493
10039SOL    HW242180   3.067   9.236   3.562
10040SOL     OW42181   2.464   7.490   2.756
10040SOL    HW142182   2.392   7.423   2.742
10040SOL    HW242183   2.546   7.444   2.791
10041SOL     OW42184   2.164   9.155   3.123
10041SOL    HW142185   2.144   9.137   3.027
10041SOL    HW242186   2.091   9.117   3.180
10042SOL     OW42187   2.857   8.619   2.668
10042SOL    HW142188   2.896   8.662   2.587
10042SOL    HW242189   2.930   8.602   2.735
10043SOL     OW42190   2.551   8.347   2.870
10043SOL    HW142191   2.549   8.263   2.815
10043SOL    HW242192   2.500   8.333   2.955
10044SOL     OW42193   1.890   8.357   2.996
10044SOL    HW142194   1.979   8.335   3.036
10044SOL    HW242195   1.835   8.273   2.992
10045SOL     OW42196   2.118   7.402   2.276
10045SOL    HW142197   2.156   7.490   2.303
10045SOL    HW242198   2.041   7.378   2.336
10046SOL     OW42199   2.534   8.019   3.604
10046SOL    HW142200   2.486   8.070   3.533
10046SOL    HW242201   2.627   7.998   3.574
10047SOL     OW42202   1.940   8.489   2.096
10047SOL    HW142203   1.930   8.392   2.075
10047SOL    HW242204   1.993   8.534   2.024
10048SOL     OW42205   3.637   7.601   2.697
10048SOL    HW142206   3.592   7.583   2.784
10048SOL    HW242207   3.735   7.618   2.713
10049SOL     OW42208   2.685   8.577   2.949
10049SOL    HW142209   2.636   8.492   2.930
10049SOL    HW242210   2.755   8.592   2.880
10050SOL     OW42211   3.023   8.000   2.158
10050SOL    HW142212   3.075   8.072   2.204
10050SOL    HW242213   3.036   8.007   2.060
10051SOL     OW42214   3.384   8.815   3.485
10051SOL    HW142215   3.369   8.717   3.499
10051SOL    HW242216   3.301   8.857   3.449
10052SOL     OW42217   2.141   8.257   3.225
10052SOL    HW142218   2.105   8.167   3.251
10052SOL    HW242219   2.102   8.327   3.285
10053SOL     OW42220   2.643   8.883   1.883
10053SOL    HW142221   2.618   8.960   1.942
10053SOL    HW242222   2.707   8.823   1.931
10054SOL     OW42223   2.461   9.090   2.917
10054SOL    HW142224   2.481   9.060   2.824
10054SOL    HW242225   2.386   9.035   2.954
10055SOL     OW42226   2.604   8.501   2.634
10055SOL    HW142227   2.693   8.547   2.634
10055SOL    HW242228   2.597   8.441   2.713
10056SOL     OW42229   2.782   8.848   2.303
10056SOL    HW142230   2.832   8.836   2.218
10056SOL    HW242231   2.728   8.765   2.322
10057SOL     OW42232   1.972   8.195   2.703
10057SOL    HW142233   2.067   8.186   2.671
10057SOL    HW242234   1.938   8.287   2.682
10058SOL     OW42235   1.909   8.312   3.630
10058SOL    HW142236   1.824   8.263   3.611
10058SOL    HW242237   1.936   8.299   3.725
10059SOL     OW42238   2.806   9.221   3.336
10059SOL    HW142239   2.778   9.134   3.377
10059SOL    HW242240   2.750   9.295   3.373
10060SOL     OW42241   3.035   8.568   2.866
10060SOL    HW142242   3.019   8.662   2.897
10060SOL    HW242243   3.038   8.507   2.946
10061SOL     OW42244   2.309   7.839   3.630
10061SOL    HW142245   2.345   7.786   3.553
10061SOL    HW242246   2.370   7.916   3.648
10062SOL     OW42247   2.373   8.256   2.202
10062SOL    HW142248   2.323   8.321   2.146
10062SOL    HW242249   2.315   8.177   2.221
10063SOL     OW42250   3.454   8.287   2.900
10063SOL    HW142251   3.473   8.326   2.809
10063SOL    HW242252   3.408   8.356   2.956
10064SOL     OW42253   3.146   7.730   3.196
10064SOL    HW142254   3.217   7.702   3.260
10064SOL    HW242255   3.093   7.650   3.168
10065SOL     OW42256   1.847   7.429   2.397
10065SOL    HW142257   1.760   7.416   2.350
10065SOL    HW242258   1.855   7.524   2.427
10066SOL     OW42259   3.068   7.530   3.638
10066SOL    HW142260   3.127   7.546   3.718
10066SOL    HW242261   3.015   7.613   3.619
10067SOL     OW42262   2.284   8.949   3.463
10067SOL    HW142263   2.226   9.014   3.512
10067SOL    HW242264   2.346   8.999   3.403
10068SOL     OW42265   3.640   8.836   3.404
10068SOL    HW142266   3.668   8.929   3.426
10068SOL    HW242267   3.547   8.820   3.437
10069SOL     OW42268   2.890   7.949   2.954
10069SOL    HW142269   2.976   8.000   2.953
10069SOL    HW242270   2.896   7.875   3.021
10070SOL     OW42271   2.294   8.895   2.526
10070SOL    HW142272   2.292   8.796   2.539
10070SOL    HW242273   2.203   8.928   2.503
10071SOL     OW42274   2.935   9.012   3.114
10071SOL    HW142275   2.861   9.076   3.132
10071SOL    HW242276   3.014   9.061   3.076
10072SOL     OW42277   2.144   9.142   3.613
10072SOL    HW142278   2.187   9.226   3.579
10072SOL    HW242279   2.169   9.129   3.709
10073SOL     OW42280   2.004   8.678   3.484
10073SOL    HW142281   1.983   8.583   3.457
10073SOL    HW242282   1.935   8.739   3.446
10074SOL     OW42283   2.093   9.043   2.888
10074SOL    HW142284   2.035   8.963   2.902
10074SOL    HW242285   2.117   9.050   2.791
10075SOL     OW42286   2.839   7.564   2.743
10075SOL    HW142287   2.935   7.565   2.771
10075SOL    HW242288   2.784   7.521   2.815
10076SOL     OW42289   2.901   8.570   2.259
10076SOL    HW142290   2.981   8.606   2.307
10076SOL    HW242291   2.859   8.497   2.315
10077SOL     OW42292   3.492   7.837   2.623
10077SOL    HW142293   3.511   7.923   2.670
10077SOL    HW242294   3.560   7.768   2.651
10078SOL     OW42295   2.635   8.509   2.109
10078SOL    HW142296   2.707   8.568   2.074
10078SOL    HW242297   2.675   8.425   2.145
10079SOL     OW42298   2.706   7.485   1.961
10079SOL    HW142299   2.781   7.419   1.973
10079SOL    HW242300   2.737   7.576   1.989
10080SOL     OW42301   2.373   8.472   3.227
10080SOL    HW142302   2.469   8.452   3.247
10080SOL    HW242303   2.362   8.570   3.209
10081SOL     OW42304   3.595   8.515   3.196
10081SOL    HW142305   3.609   8.613   3.210
10081SOL    HW242306   3.652   8.484   3.120
10082SOL     OW42307   2.078   8.624   1.888
10082SOL    HW142308   2.070   8.636   1.789
10082SOL    HW242309   2.137   8.695   1.926
10083SOL     OW42310   2.505   9.063   2.048
10083SOL    HW142311   2.480   9.158   2.032
10083SOL    HW242312   2.472   9.035   2.138
10084SOL     OW42313   3.155   8.486   3.272
10084SOL    HW142314   3.099   8.445   3.343
10084SOL    HW242315   3.135   8.584   3.266
10085SOL     OW42316   2.422   9.102   3.272
10085SOL    HW142317   2.471   9.182   3.236
10085SOL    HW242318   2.330   9.100   3.233
10086SOL     OW42319   2.065   7.983   3.634
10086SOL    HW142320   2.082   7.884   3.639
10086SOL    HW242321   2.129   8.031   3.695
10087SOL     OW42322   3.504   8.944   2.873
10087SOL    HW142323   3.476   9.037   2.897
10087SOL    HW242324   3.554   8.903   2.949
10088SOL     OW42325   1.900   8.317   2.434
10088SOL    HW142326   1.907   8.416   2.421
10088SOL    HW242327   1.809   8.294   2.468
10089SOL     OW42328   2.409   8.115   3.372
10089SOL    HW142329   2.315   8.085   3.353
10089SOL    HW242330   2.418   8.212   3.349
10090SOL     OW42331   3.476   8.491   2.684
10090SOL    HW142332   3.438   8.580   2.657
10090SOL    HW242333   3.476   8.429   2.606
10091SOL     OW42334   2.634   7.897   2.853
10091SOL    HW142335   2.726   7.925   2.880
10091SOL    HW242336   2.566   7.948   2.907
10092SOL     OW42337   2.487   8.748   3.080
10092SOL    HW142338   2.400   8.747   3.031
10092SOL    HW242339   2.553   8.688   3.033
10093SOL     OW42340   2.053   8.090   2.994
10093SOL    HW142341   2.091   8.149   3.065
10093SOL    HW242342   2.036   8.143   2.912
10094SOL     OW42343   2.224   8.736   3.292
10094SOL    HW142344   2.243   8.824   3.336
10094SOL    HW242345   2.129   8.710   3.310
10095SOL     OW42346   3.467   9.052   3.640
10095SOL    HW142347   3.436   8.974   3.585
10095SOL    HW242348   3.436   9.137   3.598
10096SOL     OW42349   3.175   8.590   2.361
10096SOL    HW142350   3.274   8.594   2.377
10096SOL    HW242351   3.158   8.576   2.263
10097SOL     OW42352   3.448   7.439   2.568
10097SOL    HW142353   3.443   7.480   2.477
10097SOL    HW242354   3.529   7.473   2.615
10098SOL     OW42355   3.051   8.195   3.261
10098SOL    HW142356   3.150   8.204   3.251
10098SOL    HW242357   3.007   8.197   3.171
10099SOL     OW42358   3.210   8.862   2.875
10099SOL    HW142359   3.124   8.819   2.904
10099SOL    HW242360   3.199   8.902   2.784
10100SOL     OW42361   3.213   7.847   2.550
10100SOL    HW142362   3.212   7.839   2.451
10100SOL    HW242363   3.302   7.819   2.585
10101SOL     OW42364   2.940   8.863   4.383
10101SOL    HW142365   3.031   8.897   4.406
10101SOL    HW242366   2.912   8.901   4.295
10102SOL     OW42367   3.451   8.659   4.241
10102SOL    HW142368   3.462   8.743   4.295
10102SOL    HW242369   3.541   8.622   4.218
10103SOL     OW42370   3.531   7.941   5.105
10103SOL    HW142371   3.433   7.933   5.127
10103SOL    HW242372   3.584   7.930   5.189
10104SOL     OW42373   2.198   7.578   3.710
10104SOL    HW142374   2.111   7.575   3.661
10104SOL    HW242375   2.249   7.660   3.682
10105SOL     OW42376   3.185   8.967   4.485
10105SOL    HW142377   3.174   9.064   4.508
10105SOL    HW242378   3.278   8.950   4.455
10106SOL     OW42379   3.063   7.478   5.043
10106SOL    HW142380   2.987   7.433   5.090
10106SOL    HW242381   3.092   7.423   4.965
10107SOL     OW42382   2.801   8.258   5.420
10107SOL    HW142383   2.766   8.233   5.330
10107SOL    HW242384   2.725   8.279   5.481
10108SOL     OW42385   2.408   8.932   4.114
10108SOL    HW142386   2.364   8.941   4.203
10108SOL    HW242387   2.479   8.862   4.118
10109SOL     OW42388   2.426   7.465   3.836
10109SOL    HW142389   2.514   7.493   3.797
10109SOL    HW242390   2.354   7.528   3.806
10110SOL     OW42391   3.396   8.450   5.219
10110SOL    HW142392   3.304   8.455   5.181
10110SOL    HW242393   3.461   8.488   5.153
10111SOL     OW42394   3.296   8.457   4.900
10111SOL    HW142395   3.221   8.446   4.965
10111SOL    HW242396   3.333   8.550   4.906
10112SOL     OW42397   2.792   8.712   5.200
10112SOL    HW142398   2.735   8.775   5.146
10112SOL    HW242399   2.825   8.638   5.141
10113SOL     OW42400   2.335   8.605   4.409
10113SOL    HW142401   2.268   8.559   4.468
10113SOL    HW242402   2.427   8.573   4.432
10114SOL     OW42403   2.562   8.011   4.240
10114SOL    HW142404   2.601   8.081   4.181
10114SOL    HW242405   2.536   7.931   4.186
10115SOL     OW42406   3.182   7.919   5.449
10115SOL    HW142407   3.278   7.923   5.475
10115SOL    HW242408   3.138   7.843   5.496
10116SOL     OW42409   2.265   8.774   3.893
10116SOL    HW142410   2.329   8.790   3.818
10116SOL    HW242411   2.289   8.832   3.971
10117SOL     OW42412   2.416   7.730   4.703
10117SOL    HW142413   2.492   7.795   4.699
10117SOL    HW242414   2.446   7.641   4.670
10118SOL     OW42415   2.113   8.156   4.121
10118SOL    HW142416   2.128   8.090   4.195
10118SOL    HW242417   2.063   8.235   4.156
10119SOL     OW42418   2.699   9.101   4.298
10119SOL    HW142419   2.764   9.034   4.262
10119SOL    HW242420   2.689   9.177   4.234
10120SOL     OW42421   3.591   8.983   4.040
10120SOL    HW142422   3.687   8.957   4.033
10120SOL    HW242423   3.567   9.043   3.964
10121SOL     OW42424   3.503   7.676   4.811
10121SOL    HW142425   3.554   7.748   4.764
10121SOL    HW242426   3.408   7.703   4.820
10122SOL     OW42427   2.903   7.705   4.080
10122SOL    HW142428   2.928   7.799   4.101
10122SOL    HW242429   2.904   7.651   4.164
10123SOL     OW42430   2.353   8.063   3.808
10123SOL    HW142431   2.313   8.142   3.761
10123SOL    HW242432   2.442   8.042   3.768
10124SOL     OW42433   2.526   8.987   4.506
10124SOL    HW142434   2.599   9.010   4.442
10124SOL    HW242435   2.455   8.934   4.460
10125SOL     OW42436   2.868   8.019   5.260
10125SOL    HW142437   2.901   7.936   5.307
10125SOL    HW242438   2.941   8.087   5.259
10126SOL     OW42439   3.472   8.819   4.482
10126SOL    HW142440   3.468   8.854   4.575
10126SOL    HW242441   3.531   8.878   4.426
10127SOL     OW42442   2.203   8.640   4.158
10127SOL    HW142443   2.249   8.614   4.243
10127SOL    HW242444   2.223   8.572   4.087
10128SOL     OW42445   3.061   7.695   3.869
10128SOL    HW142446   3.155   7.665   3.887
10128SOL    HW242447   3.009   7.695   3.955
10129SOL     OW42448   2.213   7.900   4.964
10129SOL    HW142449   2.203   7.813   4.916
10129SOL    HW242450   2.149   7.967   4.927
10130SOL     OW42451   3.295   8.180   5.002
10130SOL    HW142452   3.299   8.274   4.967
10130SOL    HW242453   3.388   8.149   5.024
10131SOL     OW42454   2.248   7.672   4.123
10131SOL    HW142455   2.202   7.712   4.202
10131SOL    HW242456   2.196   7.691   4.041
10132SOL     OW42457   3.376   9.199   5.035
10132SOL    HW142458   3.319   9.150   4.969
10132SOL    HW242459   3.462   9.226   4.992
10133SOL     OW42460   3.671   7.917   4.890
10133SOL    HW142461   3.728   7.999   4.892
10133SOL    HW242462   3.612   7.916   4.970
10134SOL     OW42463   2.801   7.883   4.365
10134SOL    HW142464   2.877   7.911   4.424
10134SOL    HW242465   2.757   7.963   4.326
10135SOL     OW42466   3.036   8.347   3.882
10135SOL    HW142467   3.073   8.297   3.960
10135SOL    HW242468   2.966   8.292   3.837
10136SOL     OW42469   2.878   7.769   5.503
10136SOL    HW142470   2.941   7.774   5.580
10136SOL    HW242471   2.786   7.747   5.536
10137SOL     OW42472   3.619   8.016   3.961
10137SOL    HW142473   3.640   7.935   3.907
10137SOL    HW242474   3.636   7.997   4.058
10138SOL     OW42475   2.913   9.154   3.869
10138SOL    HW142476   2.947   9.067   3.834
10138SOL    HW242477   2.881   9.142   3.963
10139SOL     OW42478   2.594   7.421   5.401
10139SOL    HW142479   2.601   7.327   5.368
10139SOL    HW242480   2.651   7.431   5.483
10140SOL     OW42481   3.517   8.022   4.669
10140SOL    HW142482   3.502   8.113   4.706
10140SOL    HW242483   3.587   7.975   4.723
10141SOL     OW42484   2.927   8.688   5.435
10141SOL    HW142485   2.949   8.598   5.397
10141SOL    HW242486   2.862   8.735   5.376
10142SOL     OW42487   3.217   7.394   4.545
10142SOL    HW142488   3.166   7.478   4.527
10142SOL    HW242489   3.303   7.396   4.494
10143SOL     OW42490   3.572   7.600   5.474
10143SOL    HW142491   3.549   7.621   5.569
10143SOL    HW242492   3.548   7.505   5.454
10144SOL     OW42493   1.875   8.004   4.218
10144SOL    HW142494   1.877   7.955   4.305
10144SOL    HW242495   1.877   8.103   4.236
10145SOL     OW42496   2.196   7.592   4.539
10145SOL    HW142497   2.248   7.632   4.614
10145SOL    HW242498   2.249   7.519   4.496
10146SOL     OW42499   2.180   7.640   4.873
10146SOL    HW142500   2.145   7.547   4.873
10146SOL    HW242501   2.267   7.643   4.824
10147SOL     OW42502   2.847   8.262   4.613
10147SOL    HW142503   2.873   8.342   4.559
10147SOL    HW242504   2.841   8.182   4.553
10148SOL     OW42505   2.048   8.889   4.072
10148SOL    HW142506   2.075   8.795   4.092
10148SOL    HW242507   2.073   8.911   3.978
10149SOL     OW42508   3.330   8.758   4.946
10149SOL    HW142509   3.301   8.795   4.857
10149SOL    HW242510   3.252   8.758   5.008
10150SOL     OW42511   2.062   9.032   4.309
10150SOL    HW142512   1.978   9.083   4.327
10150SOL    HW242513   2.053   8.981   4.224
10151SOL     OW42514   3.583   8.829   4.984
10151SOL    HW142515   3.614   8.843   5.078
10151SOL    HW242516   3.484   8.816   4.983
10152SOL     OW42517   2.335   8.329   3.711
10152SOL    HW142518   2.304   8.363   3.623
10152SOL    HW242519   2.339   8.404   3.777
10153SOL     OW42520   2.852   8.516   5.010
10153SOL    HW142521   2.902   8.431   4.994
10153SOL    HW242522   2.806   8.543   4.925
10154SOL     OW42523   1.939   8.221   3.884
10154SOL    HW142524   1.999   8.168   3.944
10154SOL    HW242525   1.845   8.189   3.896
10155SOL     OW42526   3.459   8.219   4.084
10155SOL    HW142527   3.527   8.153   4.051
10155SOL    HW242528   3.474   8.307   4.040
10156SOL     OW42529   2.707   9.206   4.732
10156SOL    HW142530   2.753   9.139   4.674
10156SOL    HW242531   2.633   9.162   4.782
10157SOL     OW42532   2.614   8.275   3.768
10157SOL    HW142533   2.643   8.194   3.819
10157SOL    HW242534   2.514   8.274   3.759
10158SOL     OW42535   3.210   7.807   4.114
10158SOL    HW142536   3.147   7.865   4.062
10158SOL    HW242537   3.303   7.841   4.102
10159SOL     OW42538   2.107   8.008   5.214
10159SOL    HW142539   2.127   7.913   5.189
10159SOL    HW242540   2.070   8.011   5.307
10160SOL     OW42541   1.989   7.663   5.104
10160SOL    HW142542   2.061   7.673   5.035
10160SOL    HW242543   1.900   7.662   5.059
10161SOL     OW42544   2.887   8.284   4.869
10161SOL    HW142545   2.881   8.270   4.770
10161SOL    HW242546   2.806   8.245   4.913
10162SOL     OW42547   3.478   7.818   4.184
10162SOL    HW142548   3.574   7.789   4.181
10162SOL    HW242549   3.439   7.796   4.273
10163SOL     OW42550   2.762   8.893   4.621
10163SOL    HW142551   2.820   8.904   4.540
10163SOL    HW242552   2.668   8.917   4.599
10164SOL     OW42553   2.712   7.759   3.906
10164SOL    HW142554   2.621   7.772   3.944
10164SOL    HW242555   2.772   7.719   3.976
10165SOL     OW42556   2.823   8.704   3.841
10165SOL    HW142557   2.876   8.644   3.901
10165SOL    HW242558   2.862   8.705   3.750
10166SOL     OW42559   3.574   8.999   4.326
10166SOL    HW142560   3.541   9.092   4.345
10166SOL    HW242561   3.572   8.983   4.227
10167SOL     OW42562   2.989   8.272   4.315
10167SOL    HW142563   3.054   8.300   4.386
10167SOL    HW242564   2.910   8.333   4.317
10168SOL     OW42565   2.737   8.998   5.339
10168SOL    HW142566   2.725   8.929   5.268
10168SOL    HW242567   2.700   8.963   5.426
10169SOL     OW42568   3.181   8.312   4.518
10169SOL    HW142569   3.202   8.254   4.596
10169SOL    HW242570   3.190   8.408   4.544
10170SOL     OW42571   2.137   8.441   4.564
10170SOL    HW142572   2.060   8.503   4.557
10170SOL    HW242573   2.174   8.442   4.657
10171SOL     OW42574   2.770   8.389   4.263
10171SOL    HW142575   2.757   8.300   4.220
10171SOL    HW242576   2.701   8.403   4.334
10172SOL     OW42577   3.074   8.777   5.102
10172SOL    HW142578   3.107   8.862   5.143
10172SOL    HW242579   2.975   8.773   5.109
10173SOL     OW42580   1.881   7.694   4.166
10173SOL    HW142581   1.941   7.645   4.104
10173SOL    HW242582   1.936   7.746   4.231
10174SOL     OW42583   3.504   9.192   3.857
10174SOL    HW142584   3.594   9.236   3.859
10174SOL    HW242585   3.503   9.123   3.785
10175SOL     OW42586   2.668   8.159   5.015
10175SOL    HW142587   2.670   8.245   5.066
10175SOL    HW242588   2.725   8.091   5.062
10176SOL     OW42589   1.905   9.186   5.086
10176SOL    HW142590   1.913   9.286   5.084
10176SOL    HW242591   1.881   9.157   5.179
10177SOL     OW42592   2.686   8.205   4.080
10177SOL    HW142593   2.597   8.233   4.045
10177SOL    HW242594   2.727   8.139   4.016
10178SOL     OW42595   2.208   7.923   4.619
10178SOL    HW142596   2.264   7.916   4.536
10178SOL    HW242597   2.265   7.901   4.699
10179SOL     OW42598   2.205   9.121   3.890
10179SOL    HW142599   2.297   9.151   3.865
10179SOL    HW242600   2.180   9.160   3.979
10180SOL     OW42601   3.181   9.143   4.827
10180SOL    HW142602   3.200   9.206   4.753
10180SOL    HW242603   3.189   9.049   4.794
10181SOL     OW42604   1.886   8.538   4.639
10181SOL    HW142605   1.796   8.554   4.600
10181SOL    HW242606   1.884   8.454   4.694
10182SOL     OW42607   2.637   7.443   4.089
10182SOL    HW142608   2.598   7.432   3.998
10182SOL    HW242609   2.593   7.519   4.136
10183SOL     OW42610   1.882   8.579   4.183
10183SOL    HW142611   1.960   8.637   4.207
10183SOL    HW242612   1.901   8.530   4.098
10184SOL     OW42613   3.412   7.707   5.267
10184SOL    HW142614   3.351   7.785   5.264
10184SOL    HW242615   3.467   7.711   5.350
10185SOL     OW42616   3.128   7.653   4.558
10185SOL    HW142617   3.127   7.731   4.495
10185SOL    HW242618   3.171   7.680   4.644
10186SOL     OW42619   3.248   7.459   3.854
10186SOL    HW142620   3.328   7.399   3.851
10186SOL    HW242621   3.174   7.412   3.902
10187SOL     OW42622   3.461   7.431   5.288
10187SOL    HW142623   3.487   7.388   5.202
10187SOL    HW242624   3.411   7.515   5.270
10188SOL     OW42625   2.563   7.690   4.420
10188SOL    HW142626   2.552   7.632   4.501
10188SOL    HW242627   2.648   7.742   4.428
10189SOL     OW42628   3.143   8.041   4.812
10189SOL    HW142629   3.197   8.081   4.738
10189SOL    HW242630   3.181   8.070   4.900
10190SOL     OW42631   3.436   7.447   4.128
10190SOL    HW142632   3.443   7.401   4.040
10190SOL    HW242633   3.340   7.457   4.153
10191SOL     OW42634   2.412   8.762   5.491
10191SOL    HW142635   2.373   8.825   5.424
10191SOL    HW242636   2.495   8.802   5.531
10192SOL     OW42637   1.949   8.784   4.797
10192SOL    HW142638   1.918   8.710   4.738
10192SOL    HW242639   1.881   8.802   4.868
10193SOL     OW42640   3.035   7.985   4.530
10193SOL    HW142641   3.117   7.962   4.478
10193SOL    HW242642   3.030   7.926   4.611
10194SOL     OW42643   3.635   8.012   5.366
10194SOL    HW142644   3.624   8.098   5.315
10194SOL    HW242645   3.729   8.003   5.396
10195SOL     OW42646   3.206   7.785   4.785
10195SOL    HW142647   3.180   7.882   4.791
10195SOL    HW242648   3.206   7.745   4.877
10196SOL     OW42649   3.436   7.917   5.536
10196SOL    HW142650   3.516   7.942   5.480
10196SOL    HW242651   3.467   7.882   5.624
10197SOL     OW42652   3.147   8.220   4.116
10197SOL    HW142653   3.093   8.218   4.200
10197SOL    HW242654   3.224   8.283   4.127
10198SOL     OW42655   3.444   8.316   4.336
10198SOL    HW142656   3.458   8.279   4.243
10198SOL    HW242657   3.355   8.286   4.370
10199SOL     OW42658   3.600   8.253   5.231
10199SOL    HW142659   3.502   8.274   5.233
10199SOL    HW242660   3.649   8.329   5.190
10200SOL     OW42661   3.454   7.673   3.910
10200SOL    HW142662   3.459   7.715   4.001
10200SOL    HW242663   3.387   7.598   3.912
10201SOL     OW42664   2.601   8.888   5.130
10201SOL    HW142665   2.538   8.966   5.137
10201SOL    HW242666   2.569   8.826   5.058
10202SOL     OW42667   1.992   7.683   5.395
10202SOL    HW142668   2.010   7.672   5.297
10202SOL    HW242669   1.894   7.679   5.412
10203SOL     OW42670   1.872   9.097   5.339
10203SOL    HW142671   1.944   9.083   5.407
10203SOL    HW242672   1.783   9.100   5.384
10204SOL     OW42673   2.040   7.753   4.363
10204SOL    HW142674   1.983   7.808   4.424
10204SOL    HW242675   2.110   7.705   4.416
10205SOL     OW42676   3.212   8.985   5.226
10205SOL    HW142677   3.165   9.053   5.281
10205SOL    HW242678   3.279   9.031   5.167
10206SOL     OW42679   2.177   7.944   3.961
10206SOL    HW142680   2.249   7.973   3.898
10206SOL    HW242681   2.133   8.024   4.001
10207SOL     OW42682   3.563   7.606   5.064
10207SOL    HW142683   3.519   7.654   5.140
10207SOL    HW242684   3.541   7.652   4.978
10208SOL     OW42685   2.292   9.207   4.427
10208SOL    HW142686   2.216   9.173   4.372
10208SOL    HW242687   2.378   9.170   4.392
10209SOL     OW42688   2.217   8.716   4.872
10209SOL    HW142689   2.229   8.732   4.969
10209SOL    HW242690   2.130   8.756   4.842
10210SOL     OW42691   3.101   8.920   5.518
10210SOL    HW142692   3.060   8.835   5.484
10210SOL    HW242693   3.081   8.994   5.454
10211SOL     OW42694   2.591   8.640   4.208
10211SOL    HW142695   2.634   8.571   4.150
10211SOL    HW242696   2.555   8.597   4.291
10212SOL     OW42697   2.223   8.191   4.410
10212SOL    HW142698   2.215   8.289   4.428
10212SOL    HW242699   2.307   8.157   4.451
10213SOL     OW42700   2.069   7.671   3.925
10213SOL    HW142701   2.113   7.640   3.842
10213SOL    HW242702   2.070   7.771   3.929
10214SOL     OW42703   1.922   7.923   4.536
10214SOL    HW142704   1.886   8.016   4.528
10214SOL    HW242705   2.005   7.924   4.592
10215SOL     OW42706   2.357   8.510   3.922
10215SOL    HW142707   2.457   8.510   3.933
10215SOL    HW242708   2.326   8.603   3.901
10216SOL     OW42709   2.983   8.102   3.738
10216SOL    HW142710   2.914   8.159   3.694
10216SOL    HW242711   3.064   8.096   3.679
10217SOL     OW42712   2.718   8.021   3.881
10217SOL    HW142713   2.808   8.022   3.836
10217SOL    HW242714   2.695   7.927   3.906
10218SOL     OW42715   3.169   7.538   4.175
10218SOL    HW142716   3.079   7.522   4.216
10218SOL    HW242717   3.177   7.634   4.149
10219SOL     OW42718   3.283   7.938   5.191
10219SOL    HW142719   3.235   7.961   5.275
10219SOL    HW242720   3.217   7.908   5.122
10220SOL     OW42721   1.918   7.453   3.835
10220SOL    HW142722   1.981   7.376   3.843
10220SOL    HW242723   1.938   7.521   3.906
10221SOL     OW42724   2.191   8.428   4.836
10221SOL    HW142725   2.202   8.383   4.925
10221SOL    HW242726   2.218   8.524   4.843
10222SOL     OW42727   3.490   8.440   3.936
10222SOL    HW142728   3.561   8.510   3.938
10222SOL    HW242729   3.477   8.410   3.841
10223SOL     OW42730   2.472   8.041   4.858
10223SOL    HW142731   2.547   8.084   4.907
10223SOL    HW242732   2.405   8.006   4.924
10224SOL     OW42733   2.615   8.410   5.175
10224SOL    HW142734   2.684   8.462   5.125
10224SOL    HW242735   2.610   8.443   5.270
10225SOL     OW42736   3.007   8.431   5.335
10225SOL    HW142737   2.929   8.377   5.368
10225SOL    HW242738   3.088   8.409   5.390
10226SOL     OW42739   2.936   7.613   4.331
10226SOL    HW142740   2.995   7.673   4.386
10226SOL    HW242741   2.863   7.577   4.388
10227SOL     OW42742   3.046   9.145   5.371
10227SOL    HW142743   2.951   9.143   5.339
10227SOL    HW242744   3.067   9.236   5.408
10228SOL     OW42745   2.464   7.490   4.602
10228SOL    HW142746   2.392   7.423   4.588
10228SOL    HW242747   2.546   7.444   4.637
10229SOL     OW42748   2.164   9.155   4.969
10229SOL    HW142749   2.144   9.137   4.873
10229SOL    HW242750   2.091   9.117   5.026
10230SOL     OW42751   2.857   8.619   4.514
10230SOL    HW142752   2.896   8.662   4.433
10230SOL    HW242753   2.930   8.602   4.581
10231SOL     OW42754   2.551   8.347   4.716
10231SOL    HW142755   2.549   8.263   4.661
10231SOL    HW242756   2.500   8.333   4.801
10232SOL     OW42757   1.890   8.357   4.842
10232SOL    HW142758   1.979   8.335   4.882
10232SOL    HW242759   1.835   8.273   4.838
10233SOL     OW42760   2.118   7.402   4.122
10233SOL    HW142761   2.156   7.490   4.149
10233SOL    HW242762   2.041   7.378   4.182
10234SOL     OW42763   2.534   8.019   5.450
10234SOL    HW142764   2.486   8.070   5.379
10234SOL    HW242765   2.627   7.998   5.420
10235SOL     OW42766   1.940   8.489   3.942
10235SOL    HW142767   1.930   8.392   3.921
10235SOL    HW242768   1.993   8.534   3.870
10236SOL     OW42769   3.637   7.601   4.543
10236SOL    HW142770   3.592   7.583   4.630
10236SOL    HW242771   3.735   7.618   4.559
10237SOL     OW42772   2.685   8.577   4.795
10237SOL    HW142773   2.636   8.492   4.776
10237SOL    HW242774   2.755   8.592   4.726
10238SOL     OW42775   3.023   8.000   4.004
10238SOL    HW142776   3.075   8.072   4.050
10238SOL    HW242777   3.036   8.007   3.906
10239SOL     OW42778   3.384   8.815   5.331
10239SOL    HW142779   3.369   8.717   5.345
10239SOL    HW242780   3.301   8.857   5.295
10240SOL     OW42781   2.141   8.257   5.071
10240SOL    HW142782   2.105   8.167   5.097
10240SOL    HW242783   2.102   8.327   5.131
10241SOL     OW42784   2.643   8.883   3.729
10241SOL    HW142785   2.618   8.960   3.788
10241SOL    HW242786   2.707   8.823   3.777
10242SOL     OW42787   2.461   9.090   4.763
10242SOL    HW142788   2.481   9.060   4.670
10242SOL    HW242789   2.386   9.035   4.800
10243SOL     OW42790   2.604   8.501   4.480
10243SOL    HW142791   2.693   8.547   4.480
10243SOL    HW242792   2.597   8.441   4.559
10244SOL     OW42793   2.782   8.848   4.149
10244SOL    HW142794   2.832   8.836   4.064
10244SOL    HW242795   2.728   8.765   4.168
10245SOL     OW42796   1.972   8.195   4.549
10245SOL    HW142797   2.067   8.186   4.517
10245SOL    HW242798   1.938   8.287   4.528
10246SOL     OW42799   1.909   8.312   5.476
10246SOL    HW142800   1.824   8.263   5.457
10246SOL    HW242801   1.936   8.299   5.571
10247SOL     OW42802   2.806   9.221   5.182
10247SOL    HW142803   2.778   9.134   5.223
10247SOL    HW242804   2.750   9.295   5.219
10248SOL     OW42805   3.035   8.568   4.712
10248SOL    HW142806   3.019   8.662   4.743
10248SOL    HW242807   3.038   8.507   4.792
10249SOL     OW42808   2.309   7.839   5.476
10249SOL    HW142809   2.345   7.786   5.399
10249SOL    HW242810   2.370   7.916   5.494
10250SOL     OW42811   2.373   8.256   4.048
10250SOL    HW142812   2.323   8.321   3.992
10250SOL    HW242813   2.315   8.177   4.067
10251SOL     OW42814   3.454   8.287   4.746
10251SOL    HW142815   3.473   8.326   4.655
10251SOL    HW242816   3.408   8.356   4.802
10252SOL     OW42817   3.146   7.730   5.042
10252SOL    HW142818   3.217   7.702   5.106
10252SOL    HW242819   3.093   7.650   5.014
10253SOL     OW42820   1.847   7.429   4.243
10253SOL    HW142821   1.760   7.416   4.196
10253SOL    HW242822   1.855   7.524   4.273
10254SOL     OW42823   3.068   7.530   5.484
10254SOL    HW142824   3.127   7.546   5.564
10254SOL    HW242825   3.015   7.613   5.465
10255SOL     OW42826   2.284   8.949   5.309
10255SOL    HW142827   2.226   9.014   5.358
10255SOL    HW242828   2.346   8.999   5.249
10256SOL     OW42829   3.640   8.836   5.250
10256SOL    HW142830   3.668   8.929   5.272
10256SOL    HW242831   3.547   8.820   5.283
10257SOL     OW42832   2.890   7.949   4.800
10257SOL    HW142833   2.976   8.000   4.799
10257SOL    HW242834   2.896   7.875   4.867
10258SOL     OW42835   2.294   8.895   4.372
10258SOL    HW142836   2.292   8.796   4.385
10258SOL    HW242837   2.203   8.928   4.349
10259SOL     OW42838   2.935   9.012   4.960
10259SOL    HW142839   2.861   9.076   4.978
10259SOL    HW242840   3.014   9.061   4.922
10260SOL     OW42841   2.144   9.142   5.459
10260SOL    HW142842   2.187   9.226   5.425
10260SOL    HW242843   2.169   9.129   5.555
10261SOL     OW42844   2.004   8.678   5.330
10261SOL    HW142845   1.983   8.583   5.303
10261SOL    HW242846   1.935   8.739   5.292
10262SOL     OW42847   2.093   9.043   4.734
10262SOL    HW142848   2.035   8.963   4.748
10262SOL    HW242849   2.117   9.050   4.637
10263SOL     OW42850   2.839   7.564   4.589
10263SOL    HW142851   2.935   7.565   4.617
10263SOL    HW242852   2.784   7.521   4.661
10264SOL     OW42853   2.901   8.570   4.105
10264SOL    HW142854   2.981   8.606   4.153
10264SOL    HW242855   2.859   8.497   4.161
10265SOL     OW42856   3.492   7.837   4.469
10265SOL    HW142857   3.511   7.923   4.516
10265SOL    HW242858   3.560   7.768   4.497
10266SOL     OW42859   2.635   8.509   3.955
10266SOL    HW142860   2.707   8.568   3.920
10266SOL    HW242861   2.675   8.425   3.991
10267SOL     OW42862   2.706   7.485   3.807
10267SOL    HW142863   2.781   7.419   3.819
10267SOL    HW242864   2.737   7.576   3.835
10268SOL     OW42865   2.385   7.914   4.419
10268SOL    HW142866   2.423   7.825   4.445
10268SOL    HW242867   2.452   7.964   4.364
10269SOL     OW42868   3.595   8.515   5.042
10269SOL    HW142869   3.609   8.613   5.056
10269SOL    HW242870   3.652   8.484   4.966
10270SOL     OW42871   2.078   8.624   3.734
10270SOL    HW142872   2.070   8.636   3.635
10270SOL    HW242873   2.137   8.695   3.772
10271SOL     OW42874   2.505   9.063   3.894
10271SOL    HW142875   2.480   9.158   3.878
10271SOL    HW242876   2.472   9.035   3.984
10272SOL     OW42877   3.155   8.486   5.118
10272SOL    HW142878   3.099   8.445   5.189
10272SOL    HW242879   3.135   8.584   5.112
10273SOL     OW42880   2.422   9.102   5.118
10273SOL    HW142881   2.471   9.182   5.082
10273SOL    HW242882   2.330   9.100   5.079
10274SOL     OW42883   2.065   7.983   5.480
10274SOL    HW142884   2.082   7.884   5.485
10274SOL    HW242885   2.129   8.031   5.541
10275SOL     OW42886   3.504   8.944   4.719
10275SOL    HW142887   3.476   9.037   4.743
10275SOL    HW242888   3.554   8.903   4.795
10276SOL     OW42889   1.900   8.317   4.280
10276SOL    HW142890   1.907   8.416   4.267
10276SOL    HW242891   1.809   8.294   4.314
10277SOL     OW42892   2.409   8.115   5.218
10277SOL    HW142893   2.315   8.085   5.199
10277SOL    HW242894   2.418   8.212   5.195
10278SOL     OW42895   3.476   8.491   4.530
10278SOL    HW142896   3.438   8.580   4.503
10278SOL    HW242897   3.476   8.429   4.452
10279SOL     OW42898   2.634   7.897   4.699
10279SOL    HW142899   2.726   7.925   4.726
10279SOL    HW242900   2.566   7.948   4.753
10280SOL     OW42901   2.487   8.748   4.926
10280SOL    HW142902   2.400   8.747   4.877
10280SOL    HW242903   2.553   8.688   4.879
10281SOL     OW42904   2.053   8.090   4.840
10281SOL    HW142905   2.091   8.149   4.911
10281SOL    HW242906   2.036   8.143   4.758
10282SOL     OW42907   2.224   8.736   5.138
10282SOL    HW142908   2.243   8.824   5.182
10282SOL    HW242909   2.129   8.710   5.156
10283SOL     OW42910   3.467   9.052   5.486
10283SOL    HW142911   3.436   8.974   5.431
10283SOL    HW242912   3.436   9.137   5.444
10284SOL     OW42913   3.175   8.590   4.207
10284SOL    HW142914   3.274   8.594   4.223
10284SOL    HW242915   3.158   8.576   4.109
10285SOL     OW42916   2.528   7.756   4.155
10285SOL    HW142917   2.430   7.750   4.135
10285SOL    HW242918   2.547   7.713   4.243
10286SOL     OW42919   3.448   7.439   4.414
10286SOL    HW142920   3.443   7.480   4.323
10286SOL    HW242921   3.529   7.473   4.461
10287SOL     OW42922   3.051   8.195   5.107
10287SOL    HW142923   3.150   8.204   5.097
10287SOL    HW242924   3.007   8.197   5.017
10288SOL     OW42925   2.545   8.155   4.509
10288SOL    HW142926   2.567   8.077   4.567
10288SOL    HW242927   2.554   8.129   4.413
10289SOL     OW42928   3.210   8.862   4.721
10289SOL    HW142929   3.124   8.819   4.750
10289SOL    HW242930   3.199   8.902   4.630
10290SOL     OW42931   3.213   7.847   4.396
10290SOL    HW142932   3.212   7.839   4.297
10290SOL    HW242933   3.302   7.819   4.431
10291SOL     OW42934   2.940   8.863   6.228
10291SOL    HW142935   3.031   8.897   6.251
10291SOL    HW242936   2.912   8.901   6.140
10292SOL     OW42937   3.451   8.659   6.086
10292SOL    HW142938   3.462   8.743   6.140
10292SOL    HW242939   3.541   8.622   6.063
10293SOL     OW42940   3.531   7.941   6.950
10293SOL    HW142941   3.433   7.933   6.972
10293SOL    HW242942   3.584   7.930   7.034
10294SOL     OW42943   2.198   7.578   5.555
10294SOL    HW142944   2.111   7.575   5.506
10294SOL    HW242945   2.249   7.660   5.527
10295SOL     OW42946   3.185   8.967   6.330
10295SOL    HW142947   3.174   9.064   6.353
10295SOL    HW242948   3.278   8.950   6.300
10296SOL     OW42949   3.063   7.478   6.888
10296SOL    HW142950   2.987   7.433   6.935
10296SOL    HW242951   3.092   7.423   6.810
10297SOL     OW42952   2.801   8.258   7.265
10297SOL    HW142953   2.766   8.233   7.175
10297SOL    HW242954   2.725   8.279   7.326
10298SOL     OW42955   2.408   8.932   5.959
10298SOL    HW142956   2.364   8.941   6.048
10298SOL    HW242957   2.479   8.862   5.963
10299SOL     OW42958   2.426   7.465   5.681
10299SOL    HW142959   2.514   7.493   5.642
10299SOL    HW242960   2.354   7.528   5.651
10300SOL     OW42961   3.396   8.450   7.064
10300SOL    HW142962   3.304   8.455   7.026
10300SOL    HW242963   3.461   8.488   6.998
10301SOL     OW42964   3.296   8.457   6.745
10301SOL    HW142965   3.221   8.446   6.810
10301SOL    HW242966   3.333   8.550   6.751
10302SOL     OW42967   2.792   8.712   7.045
10302SOL    HW142968   2.735   8.775   6.991
10302SOL    HW242969   2.825   8.638   6.986
10303SOL     OW42970   2.335   8.605   6.254
10303SOL    HW142971   2.268   8.559   6.313
10303SOL    HW242972   2.427   8.573   6.277
10304SOL     OW42973   2.562   8.011   6.085
10304SOL    HW142974   2.601   8.081   6.026
10304SOL    HW242975   2.536   7.931   6.031
10305SOL     OW42976   3.182   7.919   7.294
10305SOL    HW142977   3.278   7.923   7.320
10305SOL    HW242978   3.138   7.843   7.341
10306SOL     OW42979   2.265   8.774   5.738
10306SOL    HW142980   2.329   8.790   5.663
10306SOL    HW242981   2.289   8.832   5.816
10307SOL     OW42982   2.416   7.730   6.548
10307SOL    HW142983   2.492   7.795   6.544
10307SOL    HW242984   2.446   7.641   6.515
10308SOL     OW42985   2.113   8.156   5.966
10308SOL    HW142986   2.128   8.090   6.040
10308SOL    HW242987   2.063   8.235   6.001
10309SOL     OW42988   2.699   9.101   6.143
10309SOL    HW142989   2.764   9.034   6.107
10309SOL    HW242990   2.689   9.177   6.079
10310SOL     OW42991   3.591   8.983   5.885
10310SOL    HW142992   3.687   8.957   5.878
10310SOL    HW242993   3.567   9.043   5.809
10311SOL     OW42994   3.503   7.676   6.656
10311SOL    HW142995   3.554   7.748   6.609
10311SOL    HW242996   3.408   7.703   6.665
10312SOL     OW42997   2.903   7.705   5.925
10312SOL    HW142998   2.928   7.799   5.946
10312SOL    HW242999   2.904   7.651   6.009
10313SOL     OW43000   2.027   8.418   7.110
10313SOL    HW143001   2.123   8.433   7.128
10313SOL    HW243002   1.989   8.356   7.179
10314SOL     OW43003   2.353   8.063   5.653
10314SOL    HW143004   2.313   8.142   5.606
10314SOL    HW243005   2.442   8.042   5.613
10315SOL     OW43006   2.526   8.987   6.351
10315SOL    HW143007   2.599   9.010   6.287
10315SOL    HW243008   2.455   8.934   6.305
10316SOL     OW43009   2.868   8.019   7.105
10316SOL    HW143010   2.901   7.936   7.152
10316SOL    HW243011   2.941   8.087   7.104
10317SOL     OW43012   3.472   8.819   6.327
10317SOL    HW143013   3.468   8.854   6.420
10317SOL    HW243014   3.531   8.878   6.271
10318SOL     OW43015   2.203   8.640   6.003
10318SOL    HW143016   2.249   8.614   6.088
10318SOL    HW243017   2.223   8.572   5.932
10319SOL     OW43018   3.061   7.695   5.714
10319SOL    HW143019   3.155   7.665   5.732
10319SOL    HW243020   3.009   7.695   5.800
10320SOL     OW43021   2.213   7.900   6.809
10320SOL    HW143022   2.203   7.813   6.761
10320SOL    HW243023   2.149   7.967   6.772
10321SOL     OW43024   3.295   8.180   6.847
10321SOL    HW143025   3.299   8.274   6.812
10321SOL    HW243026   3.388   8.149   6.869
10322SOL     OW43027   2.248   7.672   5.968
10322SOL    HW143028   2.202   7.712   6.047
10322SOL    HW243029   2.196   7.691   5.886
10323SOL     OW43030   3.376   9.199   6.880
10323SOL    HW143031   3.319   9.150   6.814
10323SOL    HW243032   3.462   9.226   6.837
10324SOL     OW43033   3.671   7.917   6.735
10324SOL    HW143034   3.728   7.999   6.737
10324SOL    HW243035   3.612   7.916   6.815
10325SOL     OW43036   3.688   9.143   6.648
10325SOL    HW143037   3.734   9.153   6.736
10325SOL    HW243038   3.755   9.146   6.575
10326SOL     OW43039   2.801   7.883   6.210
10326SOL    HW143040   2.877   7.911   6.269
10326SOL    HW243041   2.757   7.963   6.171
10327SOL     OW43042   3.036   8.347   5.727
10327SOL    HW143043   3.073   8.297   5.805
10327SOL    HW243044   2.966   8.292   5.682
10328SOL     OW43045   2.878   7.769   7.348
10328SOL    HW143046   2.941   7.774   7.425
10328SOL    HW243047   2.786   7.747   7.381
10329SOL     OW43048   3.619   8.016   5.806
10329SOL    HW143049   3.640   7.935   5.752
10329SOL    HW243050   3.636   7.997   5.903
10330SOL     OW43051   2.913   9.154   5.714
10330SOL    HW143052   2.947   9.067   5.679
10330SOL    HW243053   2.881   9.142   5.808
10331SOL     OW43054   3.517   8.022   6.514
10331SOL    HW143055   3.502   8.113   6.551
10331SOL    HW243056   3.587   7.975   6.568
10332SOL     OW43057   2.582   8.530   7.284
10332SOL    HW143058   2.553   8.607   7.341
10332SOL    HW243059   2.592   8.449   7.342
10333SOL     OW43060   3.217   7.394   6.390
10333SOL    HW143061   3.166   7.478   6.372
10333SOL    HW243062   3.303   7.396   6.339
10334SOL     OW43063   3.572   7.600   7.319
10334SOL    HW143064   3.549   7.621   7.414
10334SOL    HW243065   3.548   7.505   7.299
10335SOL     OW43066   1.875   8.004   6.063
10335SOL    HW143067   1.877   7.955   6.150
10335SOL    HW243068   1.877   8.103   6.081
10336SOL     OW43069   2.196   7.592   6.384
10336SOL    HW143070   2.248   7.632   6.459
10336SOL    HW243071   2.249   7.519   6.341
10337SOL     OW43072   2.847   8.262   6.458
10337SOL    HW143073   2.873   8.342   6.404
10337SOL    HW243074   2.841   8.182   6.398
10338SOL     OW43075   2.048   8.889   5.917
10338SOL    HW143076   2.075   8.795   5.937
10338SOL    HW243077   2.073   8.911   5.823
10339SOL     OW43078   3.330   8.758   6.791
10339SOL    HW143079   3.301   8.795   6.702
10339SOL    HW243080   3.252   8.758   6.853
10340SOL     OW43081   2.062   9.032   6.154
10340SOL    HW143082   1.978   9.083   6.172
10340SOL    HW243083   2.053   8.981   6.069
10341SOL     OW43084   3.583   8.829   6.829
10341SOL    HW143085   3.614   8.843   6.923
10341SOL    HW243086   3.484   8.816   6.828
10342SOL     OW43087   2.852   8.516   6.855
10342SOL    HW143088   2.902   8.431   6.839
10342SOL    HW243089   2.806   8.543   6.770
10343SOL     OW43090   1.939   8.221   5.729
10343SOL    HW143091   1.999   8.168   5.789
10343SOL    HW243092   1.845   8.189   5.741
10344SOL     OW43093   3.459   8.219   5.929
10344SOL    HW143094   3.527   8.153   5.896
10344SOL    HW243095   3.474   8.307   5.885
10345SOL     OW43096   2.707   9.206   6.577
10345SOL    HW143097   2.753   9.139   6.519
10345SOL    HW243098   2.633   9.162   6.627
10346SOL     OW43099   2.614   8.275   5.613
10346SOL    HW143100   2.643   8.194   5.664
10346SOL    HW243101   2.514   8.274   5.604
10347SOL     OW43102   3.210   7.807   5.959
10347SOL    HW143103   3.147   7.865   5.907
10347SOL    HW243104   3.303   7.841   5.947
10348SOL     OW43105   1.989   7.663   6.949
10348SOL    HW143106   2.061   7.673   6.880
10348SOL    HW243107   1.900   7.662   6.904
10349SOL     OW43108   2.887   8.284   6.714
10349SOL    HW143109   2.881   8.270   6.615
10349SOL    HW243110   2.806   8.245   6.758
10350SOL     OW43111   3.478   7.818   6.029
10350SOL    HW143112   3.574   7.789   6.026
10350SOL    HW243113   3.439   7.796   6.118
10351SOL     OW43114   2.762   8.893   6.466
10351SOL    HW143115   2.820   8.904   6.385
10351SOL    HW243116   2.668   8.917   6.444
10352SOL     OW43117   2.712   7.759   5.751
10352SOL    HW143118   2.621   7.772   5.789
10352SOL    HW243119   2.772   7.719   5.821
10353SOL     OW43120   2.823   8.704   5.686
10353SOL    HW143121   2.876   8.644   5.746
10353SOL    HW243122   2.862   8.705   5.595
10354SOL     OW43123   3.574   8.999   6.171
10354SOL    HW143124   3.541   9.092   6.190
10354SOL    HW243125   3.572   8.983   6.072
10355SOL     OW43126   2.989   8.272   6.160
10355SOL    HW143127   3.054   8.300   6.231
10355SOL    HW243128   2.910   8.333   6.162
10356SOL     OW43129   3.181   8.312   6.363
10356SOL    HW143130   3.202   8.254   6.441
10356SOL    HW243131   3.190   8.408   6.389
10357SOL     OW43132   2.137   8.441   6.409
10357SOL    HW143133   2.060   8.503   6.402
10357SOL    HW243134   2.174   8.442   6.502
10358SOL     OW43135   2.770   8.389   6.108
10358SOL    HW143136   2.757   8.300   6.065
10358SOL    HW243137   2.701   8.403   6.179
10359SOL     OW43138   3.074   8.777   6.947
10359SOL    HW143139   3.107   8.862   6.988
10359SOL    HW243140   2.975   8.773   6.954
10360SOL     OW43141   1.881   7.694   6.011
10360SOL    HW143142   1.941   7.645   5.949
10360SOL    HW243143   1.936   7.746   6.076
10361SOL     OW43144   3.504   9.192   5.702
10361SOL    HW143145   3.594   9.236   5.704
10361SOL    HW243146   3.503   9.123   5.630
10362SOL     OW43147   2.668   8.159   6.860
10362SOL    HW143148   2.670   8.245   6.911
10362SOL    HW243149   2.725   8.091   6.907
10363SOL     OW43150   1.905   9.186   6.931
10363SOL    HW143151   1.913   9.286   6.929
10363SOL    HW243152   1.881   9.157   7.024
10364SOL     OW43153   2.686   8.205   5.925
10364SOL    HW143154   2.597   8.233   5.890
10364SOL    HW243155   2.727   8.139   5.861
10365SOL     OW43156   2.208   7.923   6.464
10365SOL    HW143157   2.264   7.916   6.381
10365SOL    HW243158   2.265   7.901   6.544
10366SOL     OW43159   2.205   9.121   5.735
10366SOL    HW143160   2.297   9.151   5.710
10366SOL    HW243161   2.180   9.160   5.824
10367SOL     OW43162   3.181   9.143   6.672
10367SOL    HW143163   3.200   9.206   6.598
10367SOL    HW243164   3.189   9.049   6.639
10368SOL     OW43165   1.886   8.538   6.484
10368SOL    HW143166   1.796   8.554   6.445
10368SOL    HW243167   1.884   8.454   6.539
10369SOL     OW43168   2.637   7.443   5.934
10369SOL    HW143169   2.598   7.432   5.843
10369SOL    HW243170   2.593   7.519   5.981
10370SOL     OW43171   1.882   8.579   6.028
10370SOL    HW143172   1.960   8.637   6.052
10370SOL    HW243173   1.901   8.530   5.943
10371SOL     OW43174   3.412   7.707   7.112
10371SOL    HW143175   3.351   7.785   7.109
10371SOL    HW243176   3.467   7.711   7.195
10372SOL     OW43177   3.128   7.653   6.403
10372SOL    HW143178   3.127   7.731   6.340
10372SOL    HW243179   3.171   7.680   6.489
10373SOL     OW43180   3.461   7.431   7.133
10373SOL    HW143181   3.487   7.388   7.047
10373SOL    HW243182   3.411   7.515   7.115
10374SOL     OW43183   2.563   7.690   6.265
10374SOL    HW143184   2.552   7.632   6.346
10374SOL    HW243185   2.648   7.742   6.273
10375SOL     OW43186   3.143   8.041   6.657
10375SOL    HW143187   3.197   8.081   6.583
10375SOL    HW243188   3.181   8.070   6.745
10376SOL     OW43189   2.412   8.762   7.336
10376SOL    HW143190   2.373   8.825   7.269
10376SOL    HW243191   2.495   8.802   7.376
10377SOL     OW43192   2.288   8.494   7.168
10377SOL    HW143193   2.307   8.518   7.073
10377SOL    HW243194   2.281   8.577   7.223
10378SOL     OW43195   1.949   8.784   6.642
10378SOL    HW143196   1.918   8.710   6.583
10378SOL    HW243197   1.881   8.802   6.713
10379SOL     OW43198   3.035   7.985   6.375
10379SOL    HW143199   3.117   7.962   6.323
10379SOL    HW243200   3.030   7.926   6.456
10380SOL     OW43201   3.635   8.012   7.211
10380SOL    HW143202   3.624   8.098   7.160
10380SOL    HW243203   3.729   8.003   7.241
10381SOL     OW43204   3.206   7.785   6.630
10381SOL    HW143205   3.180   7.882   6.636
10381SOL    HW243206   3.206   7.745   6.722
10382SOL     OW43207   3.436   7.917   7.381
10382SOL    HW143208   3.516   7.942   7.325
10382SOL    HW243209   3.467   7.882   7.469
10383SOL     OW43210   3.147   8.220   5.961
10383SOL    HW143211   3.093   8.218   6.045
10383SOL    HW243212   3.224   8.283   5.972
10384SOL     OW43213   3.444   8.316   6.181
10384SOL    HW143214   3.458   8.279   6.088
10384SOL    HW243215   3.355   8.286   6.215
10385SOL     OW43216   3.600   8.253   7.076
10385SOL    HW143217   3.502   8.274   7.078
10385SOL    HW243218   3.649   8.329   7.035
10386SOL     OW43219   3.454   7.673   5.755
10386SOL    HW143220   3.459   7.715   5.846
10386SOL    HW243221   3.387   7.598   5.757
10387SOL     OW43222   2.601   8.888   6.975
10387SOL    HW143223   2.538   8.966   6.982
10387SOL    HW243224   2.569   8.826   6.903
10388SOL     OW43225   1.872   9.097   7.184
10388SOL    HW143226   1.944   9.083   7.252
10388SOL    HW243227   1.783   9.100   7.229
10389SOL     OW43228   2.040   7.753   6.208
10389SOL    HW143229   1.983   7.808   6.269
10389SOL    HW243230   2.110   7.705   6.261
10390SOL     OW43231   3.212   8.985   7.071
10390SOL    HW143232   3.165   9.053   7.126
10390SOL    HW243233   3.279   9.031   7.012
10391SOL     OW43234   2.177   7.944   5.806
10391SOL    HW143235   2.249   7.973   5.743
10391SOL    HW243236   2.133   8.024   5.846
10392SOL     OW43237   3.563   7.606   6.909
10392SOL    HW143238   3.519   7.654   6.985
10392SOL    HW243239   3.541   7.652   6.823
10393SOL     OW43240   2.292   9.207   6.272
10393SOL    HW143241   2.216   9.173   6.217
10393SOL    HW243242   2.378   9.170   6.237
10394SOL     OW43243   2.217   8.716   6.717
10394SOL    HW143244   2.229   8.732   6.814
10394SOL    HW243245   2.130   8.756   6.687
10395SOL     OW43246   2.591   8.640   6.053
10395SOL    HW143247   2.634   8.571   5.995
10395SOL    HW243248   2.555   8.597   6.136
10396SOL     OW43249   2.223   8.191   6.255
10396SOL    HW143250   2.215   8.289   6.273
10396SOL    HW243251   2.307   8.157   6.296
10397SOL     OW43252   2.069   7.671   5.770
10397SOL    HW143253   2.113   7.640   5.687
10397SOL    HW243254   2.070   7.771   5.774
10398SOL     OW43255   1.922   7.923   6.381
10398SOL    HW143256   1.886   8.016   6.373
10398SOL    HW243257   2.005   7.924   6.437
10399SOL     OW43258   2.357   8.510   5.767
10399SOL    HW143259   2.457   8.510   5.778
10399SOL    HW243260   2.326   8.603   5.746
10400SOL     OW43261   2.983   8.102   5.583
10400SOL    HW143262   2.914   8.159   5.539
10400SOL    HW243263   3.064   8.096   5.524
10401SOL     OW43264   2.718   8.021   5.726
10401SOL    HW143265   2.808   8.022   5.681
10401SOL    HW243266   2.695   7.927   5.751
10402SOL     OW43267   3.283   7.938   7.036
10402SOL    HW143268   3.235   7.961   7.120
10402SOL    HW243269   3.217   7.908   6.967
10403SOL     OW43270   1.918   7.453   5.680
10403SOL    HW143271   1.981   7.376   5.688
10403SOL    HW243272   1.938   7.521   5.751
10404SOL     OW43273   2.191   8.428   6.681
10404SOL    HW143274   2.202   8.383   6.770
10404SOL    HW243275   2.218   8.524   6.688
10405SOL     OW43276   3.490   8.440   5.781
10405SOL    HW143277   3.561   8.510   5.783
10405SOL    HW243278   3.477   8.410   5.686
10406SOL     OW43279   2.472   8.041   6.703
10406SOL    HW143280   2.547   8.084   6.752
10406SOL    HW243281   2.405   8.006   6.769
10407SOL     OW43282   2.615   8.410   7.020
10407SOL    HW143283   2.684   8.462   6.970
10407SOL    HW243284   2.610   8.443   7.115
10408SOL     OW43285   3.007   8.431   7.180
10408SOL    HW143286   2.929   8.377   7.213
10408SOL    HW243287   3.088   8.409   7.235
10409SOL     OW43288   2.464   7.490   6.447
10409SOL    HW143289   2.392   7.423   6.433
10409SOL    HW243290   2.546   7.444   6.482
10410SOL     OW43291   2.164   9.155   6.814
10410SOL    HW143292   2.144   9.137   6.718
10410SOL    HW243293   2.091   9.117   6.871
10411SOL     OW43294   2.857   8.619   6.359
10411SOL    HW143295   2.896   8.662   6.278
10411SOL    HW243296   2.930   8.602   6.426
10412SOL     OW43297   2.551   8.347   6.561
10412SOL    HW143298   2.549   8.263   6.506
10412SOL    HW243299   2.500   8.333   6.646
10413SOL     OW43300   1.890   8.357   6.687
10413SOL    HW143301   1.979   8.335   6.727
10413SOL    HW243302   1.835   8.273   6.683
10414SOL     OW43303   2.118   7.402   5.967
10414SOL    HW143304   2.156   7.490   5.994
10414SOL    HW243305   2.041   7.378   6.027
10415SOL     OW43306   1.940   8.489   5.787
10415SOL    HW143307   1.930   8.392   5.766
10415SOL    HW243308   1.993   8.534   5.715
10416SOL     OW43309   3.637   7.601   6.388
10416SOL    HW143310   3.592   7.583   6.475
10416SOL    HW243311   3.735   7.618   6.404
10417SOL     OW43312   2.685   8.577   6.640
10417SOL    HW143313   2.636   8.492   6.621
10417SOL    HW243314   2.755   8.592   6.571
10418SOL     OW43315   3.023   8.000   5.849
10418SOL    HW143316   3.075   8.072   5.895
10418SOL    HW243317   3.036   8.007   5.751
10419SOL     OW43318   3.384   8.815   7.176
10419SOL    HW143319   3.369   8.717   7.190
10419SOL    HW243320   3.301   8.857   7.140
10420SOL     OW43321   2.141   8.257   6.916
10420SOL    HW143322   2.105   8.167   6.942
10420SOL    HW243323   2.102   8.327   6.976
10421SOL     OW43324   2.643   8.883   5.574
10421SOL    HW143325   2.618   8.960   5.633
10421SOL    HW243326   2.707   8.823   5.622
10422SOL     OW43327   2.461   9.090   6.608
10422SOL    HW143328   2.481   9.060   6.515
10422SOL    HW243329   2.386   9.035   6.645
10423SOL     OW43330   2.604   8.501   6.325
10423SOL    HW143331   2.693   8.547   6.325
10423SOL    HW243332   2.597   8.441   6.404
10424SOL     OW43333   2.782   8.848   5.994
10424SOL    HW143334   2.832   8.836   5.909
10424SOL    HW243335   2.728   8.765   6.013
10425SOL     OW43336   1.972   8.195   6.394
10425SOL    HW143337   2.067   8.186   6.362
10425SOL    HW243338   1.938   8.287   6.373
10426SOL     OW43339   2.806   9.221   7.027
10426SOL    HW143340   2.778   9.134   7.068
10426SOL    HW243341   2.750   9.295   7.064
10427SOL     OW43342   3.035   8.568   6.557
10427SOL    HW143343   3.019   8.662   6.588
10427SOL    HW243344   3.038   8.507   6.637
10428SOL     OW43345   2.373   8.256   5.893
10428SOL    HW143346   2.323   8.321   5.837
10428SOL    HW243347   2.315   8.177   5.912
10429SOL     OW43348   3.454   8.287   6.591
10429SOL    HW143349   3.473   8.326   6.500
10429SOL    HW243350   3.408   8.356   6.647
10430SOL     OW43351   3.146   7.730   6.887
10430SOL    HW143352   3.217   7.702   6.951
10430SOL    HW243353   3.093   7.650   6.859
10431SOL     OW43354   1.847   7.429   6.088
10431SOL    HW143355   1.760   7.416   6.041
10431SOL    HW243356   1.855   7.524   6.118
10432SOL     OW43357   3.068   7.530   7.329
10432SOL    HW143358   3.127   7.546   7.409
10432SOL    HW243359   3.015   7.613   7.310
10433SOL     OW43360   2.284   8.949   7.154
10433SOL    HW143361   2.226   9.014   7.203
10433SOL    HW243362   2.346   8.999   7.094
10434SOL     OW43363   3.640   8.836   7.095
10434SOL    HW143364   3.668   8.929   7.117
10434SOL    HW243365   3.547   8.820   7.128
10435SOL     OW43366   2.890   7.949   6.645
10435SOL    HW143367   2.976   8.000   6.644
10435SOL    HW243368   2.896   7.875   6.712
10436SOL     OW43369   2.294   8.895   6.217
10436SOL    HW143370   2.292   8.796   6.230
10436SOL    HW243371   2.203   8.928   6.194
10437SOL     OW43372   2.935   9.012   6.805
10437SOL    HW143373   2.861   9.076   6.823
10437SOL    HW243374   3.014   9.061   6.767
10438SOL     OW43375   2.144   9.142   7.304
10438SOL    HW143376   2.187   9.226   7.270
10438SOL    HW243377   2.169   9.129   7.400
10439SOL     OW43378   2.004   8.678   7.175
10439SOL    HW143379   1.983   8.583   7.148
10439SOL    HW243380   1.935   8.739   7.137
10440SOL     OW43381   2.093   9.043   6.579
10440SOL    HW143382   2.035   8.963   6.593
10440SOL    HW243383   2.117   9.050   6.482
10441SOL     OW43384   2.839   7.564   6.434
10441SOL    HW143385   2.935   7.565   6.462
10441SOL    HW243386   2.784   7.521   6.506
10442SOL     OW43387   2.901   8.570   5.950
10442SOL    HW143388   2.981   8.606   5.998
10442SOL    HW243389   2.859   8.497   6.006
10443SOL     OW43390   3.492   7.837   6.314
10443SOL    HW143391   3.511   7.923   6.361
10443SOL    HW243392   3.560   7.768   6.342
10444SOL     OW43393   2.635   8.509   5.800
10444SOL    HW143394   2.707   8.568   5.765
10444SOL    HW243395   2.675   8.425   5.836
10445SOL     OW43396   2.706   7.485   5.652
10445SOL    HW143397   2.781   7.419   5.664
10445SOL    HW243398   2.737   7.576   5.680
10446SOL     OW43399   2.385   7.914   6.264
10446SOL    HW143400   2.423   7.825   6.290
10446SOL    HW243401   2.452   7.964   6.209
10447SOL     OW43402   2.373   8.472   6.918
10447SOL    HW143403   2.469   8.452   6.938
10447SOL    HW243404   2.362   8.570   6.900
10448SOL     OW43405   3.595   8.515   6.887
10448SOL    HW143406   3.609   8.613   6.901
10448SOL    HW243407   3.652   8.484   6.811
10449SOL     OW43408   2.505   9.063   5.739
10449SOL    HW143409   2.480   9.158   5.723
10449SOL    HW243410   2.472   9.035   5.829
10450SOL     OW43411   3.155   8.486   6.963
10450SOL    HW143412   3.099   8.445   7.034
10450SOL    HW243413   3.135   8.584   6.957
10451SOL     OW43414   2.422   9.102   6.963
10451SOL    HW143415   2.471   9.182   6.927
10451SOL    HW243416   2.330   9.100   6.924
10452SOL     OW43417   3.504   8.944   6.564
10452SOL    HW143418   3.476   9.037   6.588
10452SOL    HW243419   3.554   8.903   6.640
10453SOL     OW43420   1.900   8.317   6.125
10453SOL    HW143421   1.907   8.416   6.112
10453SOL    HW243422   1.809   8.294   6.159
10454SOL     OW43423   3.476   8.491   6.375
10454SOL    HW143424   3.438   8.580   6.348
10454SOL    HW243425   3.476   8.429   6.297
10455SOL     OW43426   2.634   7.897   6.544
10455SOL    HW143427   2.726   7.925   6.571
10455SOL    HW243428   2.566   7.948   6.598
10456SOL     OW43429   2.487   8.748   6.771
10456SOL    HW143430   2.400   8.747   6.722
10456SOL    HW243431   2.553   8.688   6.724
10457SOL     OW43432   2.053   8.090   6.685
10457SOL    HW143433   2.091   8.149   6.756
10457SOL    HW243434   2.036   8.143   6.603
10458SOL     OW43435   2.224   8.736   6.983
10458SOL    HW143436   2.243   8.824   7.027
10458SOL    HW243437   2.129   8.710   7.001
10459SOL     OW43438   3.467   9.052   7.331
10459SOL    HW143439   3.436   8.974   7.276
10459SOL    HW243440   3.436   9.137   7.289
10460SOL     OW43441   3.175   8.590   6.052
10460SOL    HW143442   3.274   8.594   6.068
10460SOL    HW243443   3.158   8.576   5.954
10461SOL     OW43444   2.528   7.756   6.000
10461SOL    HW143445   2.430   7.750   5.980
10461SOL    HW243446   2.547   7.713   6.088
10462SOL     OW43447   3.448   7.439   6.259
10462SOL    HW143448   3.443   7.480   6.168
10462SOL    HW243449   3.529   7.473   6.306
10463SOL     OW43450   3.051   8.195   6.952
10463SOL    HW143451   3.150   8.204   6.942
10463SOL    HW243452   3.007   8.197   6.862
10464SOL     OW43453   2.545   8.155   6.354
10464SOL    HW143454   2.567   8.077   6.412
10464SOL    HW243455   2.554   8.129   6.258
10465SOL     OW43456   3.210   8.862   6.566
10465SOL    HW143457   3.124   8.819   6.595
10465SOL    HW243458   3.199   8.902   6.475
10466SOL     OW43459   3.213   7.847   6.241
10466SOL    HW143460   3.212   7.839   6.142
10466SOL    HW243461   3.302   7.819   6.276
10467SOL     OW43462   2.940   8.863   8.074
10467SOL    HW143463   3.031   8.897   8.097
10467SOL    HW243464   2.912   8.901   7.986
10468SOL     OW43465   3.451   8.659   7.932
10468SOL    HW143466   3.462   8.743   7.986
10468SOL    HW243467   3.541   8.622   7.909
10469SOL     OW43468   3.531   7.941   8.796
10469SOL    HW143469   3.433   7.933   8.818
10469SOL    HW243470   3.584   7.930   8.880
10470SOL     OW43471   2.198   7.578   7.401
10470SOL    HW143472   2.111   7.575   7.352
10470SOL    HW243473   2.249   7.660   7.373
10471SOL     OW43474   3.185   8.967   8.176
10471SOL    HW143475   3.174   9.064   8.199
10471SOL    HW243476   3.278   8.950   8.146
10472SOL     OW43477   3.063   7.478   8.734
10472SOL    HW143478   2.987   7.433   8.781
10472SOL    HW243479   3.092   7.423   8.656
10473SOL     OW43480   2.801   8.258   9.111
10473SOL    HW143481   2.766   8.233   9.021
10473SOL    HW243482   2.725   8.279   9.172
10474SOL     OW43483   2.408   8.932   7.805
10474SOL    HW143484   2.364   8.941   7.894
10474SOL    HW243485   2.479   8.862   7.809
10475SOL     OW43486   3.396   8.450   8.910
10475SOL    HW143487   3.304   8.455   8.872
10475SOL    HW243488   3.461   8.488   8.844
10476SOL     OW43489   3.296   8.457   8.591
10476SOL    HW143490   3.221   8.446   8.656
10476SOL    HW243491   3.333   8.550   8.597
10477SOL     OW43492   2.792   8.712   8.891
10477SOL    HW143493   2.735   8.775   8.837
10477SOL    HW243494   2.825   8.638   8.832
10478SOL     OW43495   2.335   8.605   8.100
10478SOL    HW143496   2.268   8.559   8.159
10478SOL    HW243497   2.427   8.573   8.123
10479SOL     OW43498   2.562   8.011   7.931
10479SOL    HW143499   2.601   8.081   7.872
10479SOL    HW243500   2.536   7.931   7.877
10480SOL     OW43501   3.182   7.919   9.140
10480SOL    HW143502   3.278   7.923   9.166
10480SOL    HW243503   3.138   7.843   9.187
10481SOL     OW43504   2.265   8.774   7.584
10481SOL    HW143505   2.329   8.790   7.509
10481SOL    HW243506   2.289   8.832   7.662
10482SOL     OW43507   2.416   7.730   8.394
10482SOL    HW143508   2.492   7.795   8.390
10482SOL    HW243509   2.446   7.641   8.361
10483SOL     OW43510   2.699   9.101   7.989
10483SOL    HW143511   2.764   9.034   7.953
10483SOL    HW243512   2.689   9.177   7.925
10484SOL     OW43513   3.591   8.983   7.731
10484SOL    HW143514   3.687   8.957   7.724
10484SOL    HW243515   3.567   9.043   7.655
10485SOL     OW43516   3.503   7.676   8.502
10485SOL    HW143517   3.554   7.748   8.455
10485SOL    HW243518   3.408   7.703   8.511
10486SOL     OW43519   2.903   7.705   7.771
10486SOL    HW143520   2.928   7.799   7.792
10486SOL    HW243521   2.904   7.651   7.855
10487SOL     OW43522   2.027   8.418   8.956
10487SOL    HW143523   2.123   8.433   8.974
10487SOL    HW243524   1.989   8.356   9.025
10488SOL     OW43525   2.526   8.987   8.197
10488SOL    HW143526   2.599   9.010   8.133
10488SOL    HW243527   2.455   8.934   8.151
10489SOL     OW43528   2.868   8.019   8.951
10489SOL    HW143529   2.901   7.936   8.998
10489SOL    HW243530   2.941   8.087   8.950
10490SOL     OW43531   3.472   8.819   8.173
10490SOL    HW143532   3.468   8.854   8.266
10490SOL    HW243533   3.531   8.878   8.117
10491SOL     OW43534   2.203   8.640   7.849
10491SOL    HW143535   2.249   8.614   7.934
10491SOL    HW243536   2.223   8.572   7.778
10492SOL     OW43537   3.061   7.695   7.560
10492SOL    HW143538   3.155   7.665   7.578
10492SOL    HW243539   3.009   7.695   7.646
10493SOL     OW43540   2.213   7.900   8.655
10493SOL    HW143541   2.203   7.813   8.607
10493SOL    HW243542   2.149   7.967   8.618
10494SOL     OW43543   3.295   8.180   8.693
10494SOL    HW143544   3.299   8.274   8.658
10494SOL    HW243545   3.388   8.149   8.715
10495SOL     OW43546   2.248   7.672   7.814
10495SOL    HW143547   2.202   7.712   7.893
10495SOL    HW243548   2.196   7.691   7.732
10496SOL     OW43549   3.376   9.199   8.726
10496SOL    HW143550   3.319   9.150   8.660
10496SOL    HW243551   3.462   9.226   8.683
10497SOL     OW43552   3.671   7.917   8.581
10497SOL    HW143553   3.728   7.999   8.583
10497SOL    HW243554   3.612   7.916   8.661
10498SOL     OW43555   3.688   9.143   8.494
10498SOL    HW143556   3.734   9.153   8.582
10498SOL    HW243557   3.755   9.146   8.421
10499SOL     OW43558   2.801   7.883   8.056
10499SOL    HW143559   2.877   7.911   8.115
10499SOL    HW243560   2.757   7.963   8.017
10500SOL     OW43561   3.036   8.347   7.573
10500SOL    HW143562   3.073   8.297   7.651
10500SOL    HW243563   2.966   8.292   7.528
10501SOL     OW43564   2.878   7.769   9.194
10501SOL    HW143565   2.941   7.774   9.271
10501SOL    HW243566   2.786   7.747   9.227
10502SOL     OW43567   3.619   8.016   7.652
10502SOL    HW143568   3.640   7.935   7.598
10502SOL    HW243569   3.636   7.997   7.749
10503SOL     OW43570   2.594   7.421   9.092
10503SOL    HW143571   2.601   7.327   9.059
10503SOL    HW243572   2.651   7.431   9.174
10504SOL     OW43573   3.517   8.022   8.360
10504SOL    HW143574   3.502   8.113   8.397
10504SOL    HW243575   3.587   7.975   8.414
10505SOL     OW43576   2.927   8.688   9.126
10505SOL    HW143577   2.949   8.598   9.088
10505SOL    HW243578   2.862   8.735   9.067
10506SOL     OW43579   2.582   8.530   9.130
10506SOL    HW143580   2.553   8.607   9.187
10506SOL    HW243581   2.592   8.449   9.188
10507SOL     OW43582   3.217   7.394   8.236
10507SOL    HW143583   3.166   7.478   8.218
10507SOL    HW243584   3.303   7.396   8.185
10508SOL     OW43585   3.572   7.600   9.165
10508SOL    HW143586   3.549   7.621   9.260
10508SOL    HW243587   3.548   7.505   9.145
10509SOL     OW43588   1.875   8.004   7.909
10509SOL    HW143589   1.877   7.955   7.996
10509SOL    HW243590   1.877   8.103   7.927
10510SOL     OW43591   2.196   7.592   8.230
10510SOL    HW143592   2.248   7.632   8.305
10510SOL    HW243593   2.249   7.519   8.187
10511SOL     OW43594   2.180   7.640   8.564
10511SOL    HW143595   2.145   7.547   8.564
10511SOL    HW243596   2.267   7.643   8.515
10512SOL     OW43597   2.847   8.262   8.304
10512SOL    HW143598   2.873   8.342   8.250
10512SOL    HW243599   2.841   8.182   8.244
10513SOL     OW43600   2.048   8.889   7.763
10513SOL    HW143601   2.075   8.795   7.783
10513SOL    HW243602   2.073   8.911   7.669
10514SOL     OW43603   3.330   8.758   8.637
10514SOL    HW143604   3.301   8.795   8.548
10514SOL    HW243605   3.252   8.758   8.699
10515SOL     OW43606   2.062   9.032   8.000
10515SOL    HW143607   1.978   9.083   8.018
10515SOL    HW243608   2.053   8.981   7.915
10516SOL     OW43609   3.583   8.829   8.675
10516SOL    HW143610   3.614   8.843   8.769
10516SOL    HW243611   3.484   8.816   8.674
10517SOL     OW43612   2.852   8.516   8.701
10517SOL    HW143613   2.902   8.431   8.685
10517SOL    HW243614   2.806   8.543   8.616
10518SOL     OW43615   3.459   8.219   7.775
10518SOL    HW143616   3.527   8.153   7.742
10518SOL    HW243617   3.474   8.307   7.731
10519SOL     OW43618   2.707   9.206   8.423
10519SOL    HW143619   2.753   9.139   8.365
10519SOL    HW243620   2.633   9.162   8.473
10520SOL     OW43621   2.614   8.275   7.459
10520SOL    HW143622   2.643   8.194   7.510
10520SOL    HW243623   2.514   8.274   7.450
10521SOL     OW43624   3.210   7.807   7.805
10521SOL    HW143625   3.147   7.865   7.753
10521SOL    HW243626   3.303   7.841   7.793
10522SOL     OW43627   2.107   8.008   8.905
10522SOL    HW143628   2.127   7.913   8.880
10522SOL    HW243629   2.070   8.011   8.998
10523SOL     OW43630   1.989   7.663   8.795
10523SOL    HW143631   2.061   7.673   8.726
10523SOL    HW243632   1.900   7.662   8.750
10524SOL     OW43633   2.887   8.284   8.560
10524SOL    HW143634   2.881   8.270   8.461
10524SOL    HW243635   2.806   8.245   8.604
10525SOL     OW43636   3.478   7.818   7.875
10525SOL    HW143637   3.574   7.789   7.872
10525SOL    HW243638   3.439   7.796   7.964
10526SOL     OW43639   2.762   8.893   8.312
10526SOL    HW143640   2.820   8.904   8.231
10526SOL    HW243641   2.668   8.917   8.290
10527SOL     OW43642   2.712   7.759   7.597
10527SOL    HW143643   2.621   7.772   7.635
10527SOL    HW243644   2.772   7.719   7.667
10528SOL     OW43645   3.574   8.999   8.017
10528SOL    HW143646   3.541   9.092   8.036
10528SOL    HW243647   3.572   8.983   7.918
10529SOL     OW43648   2.989   8.272   8.006
10529SOL    HW143649   3.054   8.300   8.077
10529SOL    HW243650   2.910   8.333   8.008
10530SOL     OW43651   2.737   8.998   9.030
10530SOL    HW143652   2.725   8.929   8.959
10530SOL    HW243653   2.700   8.963   9.117
10531SOL     OW43654   3.181   8.312   8.209
10531SOL    HW143655   3.202   8.254   8.287
10531SOL    HW243656   3.190   8.408   8.235
10532SOL     OW43657   2.137   8.441   8.255
10532SOL    HW143658   2.060   8.503   8.248
10532SOL    HW243659   2.174   8.442   8.348
10533SOL     OW43660   2.770   8.389   7.954
10533SOL    HW143661   2.757   8.300   7.911
10533SOL    HW243662   2.701   8.403   8.025
10534SOL     OW43663   3.074   8.777   8.793
10534SOL    HW143664   3.107   8.862   8.834
10534SOL    HW243665   2.975   8.773   8.800
10535SOL     OW43666   1.881   7.694   7.857
10535SOL    HW143667   1.941   7.645   7.795
10535SOL    HW243668   1.936   7.746   7.922
10536SOL     OW43669   3.504   9.192   7.548
10536SOL    HW143670   3.594   9.236   7.550
10536SOL    HW243671   3.503   9.123   7.476
10537SOL     OW43672   2.668   8.159   8.706
10537SOL    HW143673   2.670   8.245   8.757
10537SOL    HW243674   2.725   8.091   8.753
10538SOL     OW43675   1.905   9.186   8.777
10538SOL    HW143676   1.913   9.286   8.775
10538SOL    HW243677   1.881   9.157   8.870
10539SOL     OW43678   2.686   8.205   7.771
10539SOL    HW143679   2.597   8.233   7.736
10539SOL    HW243680   2.727   8.139   7.707
10540SOL     OW43681   2.208   7.923   8.310
10540SOL    HW143682   2.264   7.916   8.227
10540SOL    HW243683   2.265   7.901   8.390
10541SOL     OW43684   2.205   9.121   7.581
10541SOL    HW143685   2.297   9.151   7.556
10541SOL    HW243686   2.180   9.160   7.670
10542SOL     OW43687   3.181   9.143   8.518
10542SOL    HW143688   3.200   9.206   8.444
10542SOL    HW243689   3.189   9.049   8.485
10543SOL     OW43690   2.637   7.443   7.780
10543SOL    HW143691   2.598   7.432   7.689
10543SOL    HW243692   2.593   7.519   7.827
10544SOL     OW43693   3.412   7.707   8.958
10544SOL    HW143694   3.351   7.785   8.955
10544SOL    HW243695   3.467   7.711   9.041
10545SOL     OW43696   3.128   7.653   8.249
10545SOL    HW143697   3.127   7.731   8.186
10545SOL    HW243698   3.171   7.680   8.335
10546SOL     OW43699   3.248   7.459   7.545
10546SOL    HW143700   3.328   7.399   7.542
10546SOL    HW243701   3.174   7.412   7.593
10547SOL     OW43702   3.461   7.431   8.979
10547SOL    HW143703   3.487   7.388   8.893
10547SOL    HW243704   3.411   7.515   8.961
10548SOL     OW43705   2.563   7.690   8.111
10548SOL    HW143706   2.552   7.632   8.192
10548SOL    HW243707   2.648   7.742   8.119
10549SOL     OW43708   3.143   8.041   8.503
10549SOL    HW143709   3.197   8.081   8.429
10549SOL    HW243710   3.181   8.070   8.591
10550SOL     OW43711   3.436   7.447   7.819
10550SOL    HW143712   3.443   7.401   7.731
10550SOL    HW243713   3.340   7.457   7.844
10551SOL     OW43714   2.412   8.762   9.182
10551SOL    HW143715   2.373   8.825   9.115
10551SOL    HW243716   2.495   8.802   9.222
10552SOL     OW43717   2.288   8.494   9.014
10552SOL    HW143718   2.307   8.518   8.919
10552SOL    HW243719   2.281   8.577   9.069
10553SOL     OW43720   3.035   7.985   8.221
10553SOL    HW143721   3.117   7.962   8.169
10553SOL    HW243722   3.030   7.926   8.302
10554SOL     OW43723   3.635   8.012   9.057
10554SOL    HW143724   3.624   8.098   9.006
10554SOL    HW243725   3.729   8.003   9.087
10555SOL     OW43726   3.206   7.785   8.476
10555SOL    HW143727   3.180   7.882   8.482
10555SOL    HW243728   3.206   7.745   8.568
10556SOL     OW43729   3.436   7.917   9.227
10556SOL    HW143730   3.516   7.942   9.171
10556SOL    HW243731   3.467   7.882   9.315
10557SOL     OW43732   3.147   8.220   7.807
10557SOL    HW143733   3.093   8.218   7.891
10557SOL    HW243734   3.224   8.283   7.818
10558SOL     OW43735   3.444   8.316   8.027
10558SOL    HW143736   3.458   8.279   7.934
10558SOL    HW243737   3.355   8.286   8.061
10559SOL     OW43738   3.600   8.253   8.922
10559SOL    HW143739   3.502   8.274   8.924
10559SOL    HW243740   3.649   8.329   8.881
10560SOL     OW43741   3.454   7.673   7.601
10560SOL    HW143742   3.459   7.715   7.692
10560SOL    HW243743   3.387   7.598   7.603
10561SOL     OW43744   2.601   8.888   8.821
10561SOL    HW143745   2.538   8.966   8.828
10561SOL    HW243746   2.569   8.826   8.749
10562SOL     OW43747   1.992   7.683   9.086
10562SOL    HW143748   2.010   7.672   8.988
10562SOL    HW243749   1.894   7.679   9.103
10563SOL     OW43750   2.040   7.753   8.054
10563SOL    HW143751   1.983   7.808   8.115
10563SOL    HW243752   2.110   7.705   8.107
10564SOL     OW43753   3.212   8.985   8.917
10564SOL    HW143754   3.165   9.053   8.972
10564SOL    HW243755   3.279   9.031   8.858
10565SOL     OW43756   2.177   7.944   7.652
10565SOL    HW143757   2.249   7.973   7.589
10565SOL    HW243758   2.133   8.024   7.692
10566SOL     OW43759   3.563   7.606   8.755
10566SOL    HW143760   3.519   7.654   8.831
10566SOL    HW243761   3.541   7.652   8.669
10567SOL     OW43762   2.292   9.207   8.118
10567SOL    HW143763   2.216   9.173   8.063
10567SOL    HW243764   2.378   9.170   8.083
10568SOL     OW43765   2.217   8.716   8.563
10568SOL    HW143766   2.229   8.732   8.660
10568SOL    HW243767   2.130   8.756   8.533
10569SOL     OW43768   3.101   8.920   9.209
10569SOL    HW143769   3.060   8.835   9.175
10569SOL    HW243770   3.081   8.994   9.145
10570SOL     OW43771   2.591   8.640   7.899
10570SOL    HW143772   2.634   8.571   7.841
10570SOL    HW243773   2.555   8.597   7.982
10571SOL     OW43774   2.223   8.191   8.101
10571SOL    HW143775   2.215   8.289   8.119
10571SOL    HW243776   2.307   8.157   8.142
10572SOL     OW43777   2.069   7.671   7.616
10572SOL    HW143778   2.113   7.640   7.533
10572SOL    HW243779   2.070   7.771   7.620
10573SOL     OW43780   1.922   7.923   8.227
10573SOL    HW143781   1.886   8.016   8.219
10573SOL    HW243782   2.005   7.924   8.283
10574SOL     OW43783   2.983   8.102   7.429
10574SOL    HW143784   2.914   8.159   7.385
10574SOL    HW243785   3.064   8.096   7.370
10575SOL     OW43786   2.718   8.021   7.572
10575SOL    HW143787   2.808   8.022   7.527
10575SOL    HW243788   2.695   7.927   7.597
10576SOL     OW43789   3.169   7.538   7.866
10576SOL    HW143790   3.079   7.522   7.907
10576SOL    HW243791   3.177   7.634   7.840
10577SOL     OW43792   3.283   7.938   8.882
10577SOL    HW143793   3.235   7.961   8.966
10577SOL    HW243794   3.217   7.908   8.813
10578SOL     OW43795   1.918   7.453   7.526
10578SOL    HW143796   1.981   7.376   7.534
10578SOL    HW243797   1.938   7.521   7.597
10579SOL     OW43798   2.191   8.428   8.527
10579SOL    HW143799   2.202   8.383   8.616
10579SOL    HW243800   2.218   8.524   8.534
10580SOL     OW43801   3.490   8.440   7.627
10580SOL    HW143802   3.561   8.510   7.629
10580SOL    HW243803   3.477   8.410   7.532
10581SOL     OW43804   2.472   8.041   8.549
10581SOL    HW143805   2.547   8.084   8.598
10581SOL    HW243806   2.405   8.006   8.615
10582SOL     OW43807   2.615   8.410   8.866
10582SOL    HW143808   2.684   8.462   8.816
10582SOL    HW243809   2.610   8.443   8.961
10583SOL     OW43810   3.007   8.431   9.026
10583SOL    HW143811   2.929   8.377   9.059
10583SOL    HW243812   3.088   8.409   9.081
10584SOL     OW43813   2.936   7.613   8.022
10584SOL    HW143814   2.995   7.673   8.077
10584SOL    HW243815   2.863   7.577   8.079
10585SOL     OW43816   3.046   9.145   9.062
10585SOL    HW143817   2.951   9.143   9.030
10585SOL    HW243818   3.067   9.236   9.099
10586SOL     OW43819   2.464   7.490   8.293
10586SOL    HW143820   2.392   7.423   8.279
10586SOL    HW243821   2.546   7.444   8.328
10587SOL     OW43822   2.164   9.155   8.660
10587SOL    HW143823   2.144   9.137   8.564
10587SOL    HW243824   2.091   9.117   8.717
10588SOL     OW43825   2.857   8.619   8.205
10588SOL    HW143826   2.896   8.662   8.124
10588SOL    HW243827   2.930   8.602   8.272
10589SOL     OW43828   2.551   8.347   8.407
10589SOL    HW143829   2.549   8.263   8.352
10589SOL    HW243830   2.500   8.333   8.492
10590SOL     OW43831   1.890   8.357   8.533
10590SOL    HW143832   1.979   8.335   8.573
10590SOL    HW243833   1.835   8.273   8.529
10591SOL     OW43834   2.118   7.402   7.813
10591SOL    HW143835   2.156   7.490   7.840
10591SOL    HW243836   2.041   7.378   7.873
10592SOL     OW43837   2.534   8.019   9.141
10592SOL    HW143838   2.486   8.070   9.070
10592SOL    HW243839   2.627   7.998   9.111
10593SOL     OW43840   3.637   7.601   8.234
10593SOL    HW143841   3.592   7.583   8.321
10593SOL    HW243842   3.735   7.618   8.250
10594SOL     OW43843   2.685   8.577   8.486
10594SOL    HW143844   2.636   8.492   8.467
10594SOL    HW243845   2.755   8.592   8.417
10595SOL     OW43846   3.023   8.000   7.695
10595SOL    HW143847   3.075   8.072   7.741
10595SOL    HW243848   3.036   8.007   7.597
10596SOL     OW43849   3.384   8.815   9.022
10596SOL    HW143850   3.369   8.717   9.036
10596SOL    HW243851   3.301   8.857   8.986
10597SOL     OW43852   2.141   8.257   8.762
10597SOL    HW143853   2.105   8.167   8.788
10597SOL    HW243854   2.102   8.327   8.822
10598SOL     OW43855   2.461   9.090   8.454
10598SOL    HW143856   2.481   9.060   8.361
10598SOL    HW243857   2.386   9.035   8.491
10599SOL     OW43858   2.604   8.501   8.171
10599SOL    HW143859   2.693   8.547   8.171
10599SOL    HW243860   2.597   8.441   8.250
10600SOL     OW43861   2.782   8.848   7.840
10600SOL    HW143862   2.832   8.836   7.755
10600SOL    HW243863   2.728   8.765   7.859
10601SOL     OW43864   1.909   8.312   9.167
10601SOL    HW143865   1.824   8.263   9.148
10601SOL    HW243866   1.936   8.299   9.262
10602SOL     OW43867   2.806   9.221   8.873
10602SOL    HW143868   2.778   9.134   8.914
10602SOL    HW243869   2.750   9.295   8.910
10603SOL     OW43870   3.035   8.568   8.403
10603SOL    HW143871   3.019   8.662   8.434
10603SOL    HW243872   3.038   8.507   8.483
10604SOL     OW43873   2.309   7.839   9.167
10604SOL    HW143874   2.345   7.786   9.090
10604SOL    HW243875   2.370   7.916   9.185
10605SOL     OW43876   3.454   8.287   8.437
10605SOL    HW143877   3.473   8.326   8.346
10605SOL    HW243878   3.408   8.356   8.493
10606SOL     OW43879   3.146   7.730   8.733
10606SOL    HW143880   3.217   7.702   8.797
10606SOL    HW243881   3.093   7.650   8.705
10607SOL     OW43882   1.847   7.429   7.934
10607SOL    HW143883   1.760   7.416   7.887
10607SOL    HW243884   1.855   7.524   7.964
10608SOL     OW43885   3.068   7.530   9.175
10608SOL    HW143886   3.127   7.546   9.255
10608SOL    HW243887   3.015   7.613   9.156
10609SOL     OW43888   2.284   8.949   9.000
10609SOL    HW143889   2.226   9.014   9.049
10609SOL    HW243890   2.346   8.999   8.940
10610SOL     OW43891   3.640   8.836   8.941
10610SOL    HW143892   3.668   8.929   8.963
10610SOL    HW243893   3.547   8.820   8.974
10611SOL     OW43894   2.890   7.949   8.491
10611SOL    HW143895   2.976   8.000   8.490
10611SOL    HW243896   2.896   7.875   8.558
10612SOL     OW43897   2.294   8.895   8.063
10612SOL    HW143898   2.292   8.796   8.076
10612SOL    HW243899   2.203   8.928   8.040
10613SOL     OW43900   2.935   9.012   8.651
10613SOL    HW143901   2.861   9.076   8.669
10613SOL    HW243902   3.014   9.061   8.613
10614SOL     OW43903   2.144   9.142   9.150
10614SOL    HW143904   2.187   9.226   9.116
10614SOL    HW243905   2.169   9.129   9.246
10615SOL     OW43906   2.004   8.678   9.021
10615SOL    HW143907   1.983   8.583   8.994
10615SOL    HW243908   1.935   8.739   8.983
10616SOL     OW43909   2.093   9.043   8.425
10616SOL    HW143910   2.035   8.963   8.439
10616SOL    HW243911   2.117   9.050   8.328
10617SOL     OW43912   2.839   7.564   8.280
10617SOL    HW143913   2.935   7.565   8.308
10617SOL    HW243914   2.784   7.521   8.352
10618SOL     OW43915   2.901   8.570   7.796
10618SOL    HW143916   2.981   8.606   7.844
10618SOL    HW243917   2.859   8.497   7.852
10619SOL     OW43918   3.492   7.837   8.160
10619SOL    HW143919   3.511   7.923   8.207
10619SOL    HW243920   3.560   7.768   8.188
10620SOL     OW43921   2.635   8.509   7.646
10620SOL    HW143922   2.707   8.568   7.611
10620SOL    HW243923   2.675   8.425   7.682
10621SOL     OW43924   2.385   7.914   8.110
10621SOL    HW143925   2.423   7.825   8.136
10621SOL    HW243926   2.452   7.964   8.055
10622SOL     OW43927   2.373   8.472   8.764
10622SOL    HW143928   2.469   8.452   8.784
10622SOL    HW243929   2.362   8.570   8.746
10623SOL     OW43930   3.595   8.515   8.733
10623SOL    HW143931   3.609   8.613   8.747
10623SOL    HW243932   3.652   8.484   8.657
10624SOL     OW43933   2.505   9.063   7.585
10624SOL    HW143934   2.480   9.158   7.569
10624SOL    HW243935   2.472   9.035   7.675
10625SOL     OW43936   3.155   8.486   8.809
10625SOL    HW143937   3.099   8.445   8.880
10625SOL    HW243938   3.135   8.584   8.803
10626SOL     OW43939   2.422   9.102   8.809
10626SOL    HW143940   2.471   9.182   8.773
10626SOL    HW243941   2.330   9.100   8.770
10627SOL     OW43942   2.065   7.983   9.171
10627SOL    HW143943   2.082   7.884   9.176
10627SOL    HW243944   2.129   8.031   9.232
10628SOL     OW43945   3.504   8.944   8.410
10628SOL    HW143946   3.476   9.037   8.434
10628SOL    HW243947   3.554   8.903   8.486
10629SOL     OW43948   2.409   8.115   8.909
10629SOL    HW143949   2.315   8.085   8.890
10629SOL    HW243950   2.418   8.212   8.886
10630SOL     OW43951   3.476   8.491   8.221
10630SOL    HW143952   3.438   8.580   8.194
10630SOL    HW243953   3.476   8.429   8.143
10631SOL     OW43954   2.634   7.897   8.390
10631SOL    HW143955   2.726   7.925   8.417
10631SOL    HW243956   2.566   7.948   8.444
10632SOL     OW43957   2.487   8.748   8.617
10632SOL    HW143958   2.400   8.747   8.568
10632SOL    HW243959   2.553   8.688   8.570
10633SOL     OW43960   2.053   8.090   8.531
10633SOL    HW143961   2.091   8.149   8.602
10633SOL    HW243962   2.036   8.143   8.449
10634SOL     OW43963   2.224   8.736   8.829
10634SOL    HW143964   2.243   8.824   8.873
10634SOL    HW243965   2.129   8.710   8.847
10635SOL     OW43966   3.467   9.052   9.177
10635SOL    HW143967   3.436   8.974   9.122
10635SOL    HW243968   3.436   9.137   9.135
10636SOL     OW43969   3.175   8.590   7.898
10636SOL    HW143970   3.274   8.594   7.914
10636SOL    HW243971   3.158   8.576   7.800
10637SOL     OW43972   2.528   7.756   7.846
10637SOL    HW143973   2.430   7.750   7.826
10637SOL    HW243974   2.547   7.713   7.934
10638SOL     OW43975   3.448   7.439   8.105
10638SOL    HW143976   3.443   7.480   8.014
10638SOL    HW243977   3.529   7.473   8.152
10639SOL     OW43978   3.051   8.195   8.798
10639SOL    HW143979   3.150   8.204   8.788
10639SOL    HW243980   3.007   8.197   8.708
10640SOL     OW43981   2.545   8.155   8.200
10640SOL    HW143982   2.567   8.077   8.258
10640SOL    HW243983   2.554   8.129   8.104
10641SOL     OW43984   3.210   8.862   8.412
10641SOL    HW143985   3.124   8.819   8.441
10641SOL    HW243986   3.199   8.902   8.321
10642SOL     OW43987   3.213   7.847   8.087
10642SOL    HW143988   3.212   7.839   7.988
10642SOL    HW243989   3.302   7.819   8.122
10643SOL     OW43990   2.940   8.863   9.919
10643SOL    HW143991   3.031   8.897   9.942
10643SOL    HW243992   2.912   8.901   9.831
10644SOL     OW43993   3.451   8.659   9.777
10644SOL    HW143994   3.462   8.743   9.831
10644SOL    HW243995   3.541   8.622   9.754
10645SOL     OW43996   2.198   7.578   9.246
10645SOL    HW143997   2.111   7.575   9.197
10645SOL    HW243998   2.249   7.660   9.218
10646SOL     OW43999   2.408   8.932   9.650
10646SOL    HW144000   2.364   8.941   9.739
10646SOL    HW244001   2.479   8.862   9.654
10647SOL     OW44002   2.426   7.465   9.372
10647SOL    HW144003   2.514   7.493   9.333
10647SOL    HW244004   2.354   7.528   9.342
10648SOL     OW44005   2.335   8.605   9.945
10648SOL    HW144006   2.268   8.559  10.004
10648SOL    HW244007   2.427   8.573   9.968
10649SOL     OW44008   2.562   8.011   9.776
10649SOL    HW144009   2.601   8.081   9.717
10649SOL    HW244010   2.536   7.931   9.722
10650SOL     OW44011   2.265   8.774   9.429
10650SOL    HW144012   2.329   8.790   9.354
10650SOL    HW244013   2.289   8.832   9.507
10651SOL     OW44014   2.113   8.156   9.657
10651SOL    HW144015   2.128   8.090   9.731
10651SOL    HW244016   2.063   8.235   9.692
10652SOL     OW44017   2.699   9.101   9.834
10652SOL    HW144018   2.764   9.034   9.798
10652SOL    HW244019   2.689   9.177   9.770
10653SOL     OW44020   3.591   8.983   9.576
10653SOL    HW144021   3.687   8.957   9.569
10653SOL    HW244022   3.567   9.043   9.500
10654SOL     OW44023   2.903   7.705   9.616
10654SOL    HW144024   2.928   7.799   9.637
10654SOL    HW244025   2.904   7.651   9.700
10655SOL     OW44026   2.353   8.063   9.344
10655SOL    HW144027   2.313   8.142   9.297
10655SOL    HW244028   2.442   8.042   9.304
10656SOL     OW44029   3.472   8.819  10.018
10656SOL    HW144030   3.468   8.854  10.111
10656SOL    HW244031   3.531   8.878   9.962
10657SOL     OW44032   2.203   8.640   9.694
10657SOL    HW144033   2.249   8.614   9.779
10657SOL    HW244034   2.223   8.572   9.623
10658SOL     OW44035   3.061   7.695   9.405
10658SOL    HW144036   3.155   7.665   9.423
10658SOL    HW244037   3.009   7.695   9.491
10659SOL     OW44038   2.248   7.672   9.659
10659SOL    HW144039   2.202   7.712   9.738
10659SOL    HW244040   2.196   7.691   9.577
10660SOL     OW44041   3.688   9.143  10.339
10660SOL    HW144042   3.734   9.153  10.427
10660SOL    HW244043   3.755   9.146  10.266
10661SOL     OW44044   2.801   7.883   9.901
10661SOL    HW144045   2.877   7.911   9.960
10661SOL    HW244046   2.757   7.963   9.862
10662SOL     OW44047   3.036   8.347   9.418
10662SOL    HW144048   3.073   8.297   9.496
10662SOL    HW244049   2.966   8.292   9.373
10663SOL     OW44050   3.619   8.016   9.497
10663SOL    HW144051   3.640   7.935   9.443
10663SOL    HW244052   3.636   7.997   9.594
10664SOL     OW44053   2.913   9.154   9.405
10664SOL    HW144054   2.947   9.067   9.370
10664SOL    HW244055   2.881   9.142   9.499
10665SOL     OW44056   1.875   8.004   9.754
10665SOL    HW144057   1.877   7.955   9.841
10665SOL    HW244058   1.877   8.103   9.772
10666SOL     OW44059   2.048   8.889   9.608
10666SOL    HW144060   2.075   8.795   9.628
10666SOL    HW244061   2.073   8.911   9.514
10667SOL     OW44062   2.062   9.032   9.845
10667SOL    HW144063   1.978   9.083   9.863
10667SOL    HW244064   2.053   8.981   9.760
10668SOL     OW44065   2.335   8.329   9.247
10668SOL    HW144066   2.304   8.363   9.159
10668SOL    HW244067   2.339   8.404   9.313
10669SOL     OW44068   1.939   8.221   9.420
10669SOL    HW144069   1.999   8.168   9.480
10669SOL    HW244070   1.845   8.189   9.432
10670SOL     OW44071   3.459   8.219   9.620
10670SOL    HW144072   3.527   8.153   9.587
10670SOL    HW244073   3.474   8.307   9.576
10671SOL     OW44074   2.614   8.275   9.304
10671SOL    HW144075   2.643   8.194   9.355
10671SOL    HW244076   2.514   8.274   9.295
10672SOL     OW44077   3.210   7.807   9.650
10672SOL    HW144078   3.147   7.865   9.598
10672SOL    HW244079   3.303   7.841   9.638
10673SOL     OW44080   3.478   7.818   9.720
10673SOL    HW144081   3.574   7.789   9.717
10673SOL    HW244082   3.439   7.796   9.809
10674SOL     OW44083   2.712   7.759   9.442
10674SOL    HW144084   2.621   7.772   9.480
10674SOL    HW244085   2.772   7.719   9.512
10675SOL     OW44086   2.823   8.704   9.377
10675SOL    HW144087   2.876   8.644   9.437
10675SOL    HW244088   2.862   8.705   9.286
10676SOL     OW44089   3.574   8.999   9.862
10676SOL    HW144090   3.541   9.092   9.881
10676SOL    HW244091   3.572   8.983   9.763
10677SOL     OW44092   2.989   8.272   9.851
10677SOL    HW144093   3.054   8.300   9.922
10677SOL    HW244094   2.910   8.333   9.853
10678SOL     OW44095   3.181   8.312  10.054
10678SOL    HW144096   3.202   8.254  10.132
10678SOL    HW244097   3.190   8.408  10.080
10679SOL     OW44098   2.770   8.389   9.799
10679SOL    HW144099   2.757   8.300   9.756
10679SOL    HW244100   2.701   8.403   9.870
10680SOL     OW44101   1.881   7.694   9.702
10680SOL    HW144102   1.941   7.645   9.640
10680SOL    HW244103   1.936   7.746   9.767
10681SOL     OW44104   3.504   9.192   9.393
10681SOL    HW144105   3.594   9.236   9.395
10681SOL    HW244106   3.503   9.123   9.321
10682SOL     OW44107   2.686   8.205   9.616
10682SOL    HW144108   2.597   8.233   9.581
10682SOL    HW244109   2.727   8.139   9.552
10683SOL     OW44110   2.205   9.121   9.426
10683SOL    HW144111   2.297   9.151   9.401
10683SOL    HW244112   2.180   9.160   9.515
10684SOL     OW44113   2.637   7.443   9.625
10684SOL    HW144114   2.598   7.432   9.534
10684SOL    HW244115   2.593   7.519   9.672
10685SOL     OW44116   1.882   8.579   9.719
10685SOL    HW144117   1.960   8.637   9.743
10685SOL    HW244118   1.901   8.530   9.634
10686SOL     OW44119   3.248   7.459   9.390
10686SOL    HW144120   3.328   7.399   9.387
10686SOL    HW244121   3.174   7.412   9.438
10687SOL     OW44122   2.563   7.690   9.956
10687SOL    HW144123   2.552   7.632  10.037
10687SOL    HW244124   2.648   7.742   9.964
10688SOL     OW44125   3.436   7.447   9.664
10688SOL    HW144126   3.443   7.401   9.576
10688SOL    HW244127   3.340   7.457   9.689
10689SOL     OW44128   3.147   8.220   9.652
10689SOL    HW144129   3.093   8.218   9.736
10689SOL    HW244130   3.224   8.283   9.663
10690SOL     OW44131   3.444   8.316   9.872
10690SOL    HW144132   3.458   8.279   9.779
10690SOL    HW244133   3.355   8.286   9.906
10691SOL     OW44134   3.454   7.673   9.446
10691SOL    HW144135   3.459   7.715   9.537
10691SOL    HW244136   3.387   7.598   9.448
10692SOL     OW44137   2.177   7.944   9.497
10692SOL    HW144138   2.249   7.973   9.434
10692SOL    HW244139   2.133   8.024   9.537
10693SOL     OW44140   2.292   9.207   9.963
10693SOL    HW144141   2.216   9.173   9.908
10693SOL    HW244142   2.378   9.170   9.928
10694SOL     OW44143   2.591   8.640   9.744
10694SOL    HW144144   2.634   8.571   9.686
10694SOL    HW244145   2.555   8.597   9.827
10695SOL     OW44146   2.069   7.671   9.461
10695SOL    HW144147   2.113   7.640   9.378
10695SOL    HW244148   2.070   7.771   9.465
10696SOL     OW44149   1.922   7.923  10.072
10696SOL    HW144150   1.886   8.016  10.064
10696SOL    HW244151   2.005   7.924  10.128
10697SOL     OW44152   2.357   8.510   9.458
10697SOL    HW144153   2.457   8.510   9.469
10697SOL    HW244154   2.326   8.603   9.437
10698SOL     OW44155   2.983   8.102   9.274
10698SOL    HW144156   2.914   8.159   9.230
10698SOL    HW244157   3.064   8.096   9.215
10699SOL     OW44158   2.718   8.021   9.417
10699SOL    HW144159   2.808   8.022   9.372
10699SOL    HW244160   2.695   7.927   9.442
10700SOL     OW44161   3.169   7.538   9.711
10700SOL    HW144162   3.079   7.522   9.752
10700SOL    HW244163   3.177   7.634   9.685
10701SOL     OW44164   1.918   7.453   9.371
10701SOL    HW144165   1.981   7.376   9.379
10701SOL    HW244166   1.938   7.521   9.442
10702SOL     OW44167   3.490   8.440   9.472
10702SOL    HW144168   3.561   8.510   9.474
10702SOL    HW244169   3.477   8.410   9.377
10703SOL     OW44170   2.936   7.613   9.867
10703SOL    HW144171   2.995   7.673   9.922
10703SOL    HW244172   2.863   7.577   9.924
10704SOL     OW44173   2.118   7.402   9.658
10704SOL    HW144174   2.156   7.490   9.685
10704SOL    HW244175   2.041   7.378   9.718
10705SOL     OW44176   1.940   8.489   9.478
10705SOL    HW144177   1.930   8.392   9.457
10705SOL    HW244178   1.993   8.534   9.406
10706SOL     OW44179   3.637   7.601  10.079
10706SOL    HW144180   3.592   7.583  10.166
10706SOL    HW244181   3.735   7.618  10.095
10707SOL     OW44182   3.023   8.000   9.540
10707SOL    HW144183   3.075   8.072   9.586
10707SOL    HW244184   3.036   8.007   9.442
10708SOL     OW44185   2.643   8.883   9.265
10708SOL    HW144186   2.618   8.960   9.324
10708SOL    HW244187   2.707   8.823   9.313
10709SOL     OW44188   2.604   8.501  10.016
10709SOL    HW144189   2.693   8.547  10.016
10709SOL    HW244190   2.597   8.441  10.095
10710SOL     OW44191   2.782   8.848   9.685
10710SOL    HW144192   2.832   8.836   9.600
10710SOL    HW244193   2.728   8.765   9.704
10711SOL     OW44194   2.373   8.256   9.584
10711SOL    HW144195   2.323   8.321   9.528
10711SOL    HW244196   2.315   8.177   9.603
10712SOL     OW44197   1.847   7.429   9.779
10712SOL    HW144198   1.760   7.416   9.732
10712SOL    HW244199   1.855   7.524   9.809
10713SOL     OW44200   2.294   8.895   9.908
10713SOL    HW144201   2.292   8.796   9.921
10713SOL    HW244202   2.203   8.928   9.885
10714SOL     OW44203   2.901   8.570   9.641
10714SOL    HW144204   2.981   8.606   9.689
10714SOL    HW244205   2.859   8.497   9.697
10715SOL     OW44206   3.492   7.837  10.005
10715SOL    HW144207   3.511   7.923  10.052
10715SOL    HW244208   3.560   7.768  10.033
10716SOL     OW44209   2.635   8.509   9.491
10716SOL    HW144210   2.707   8.568   9.456
10716SOL    HW244211   2.675   8.425   9.527
10717SOL     OW44212   2.706   7.485   9.343
10717SOL    HW144213   2.781   7.419   9.355
10717SOL    HW244214   2.737   7.576   9.371
10718SOL     OW44215   2.385   7.914   9.955
10718SOL    HW144216   2.423   7.825   9.981
10718SOL    HW244217   2.452   7.964   9.900
10719SOL     OW44218   2.078   8.624   9.270
10719SOL    HW144219   2.070   8.636   9.171
10719SOL    HW244220   2.137   8.695   9.308
10720SOL     OW44221   2.505   9.063   9.430
10720SOL    HW144222   2.480   9.158   9.414
10720SOL    HW244223   2.472   9.035   9.520
10721SOL     OW44224   1.900   8.317   9.816
10721SOL    HW144225   1.907   8.416   9.803
10721SOL    HW244226   1.809   8.294   9.850
10722SOL     OW44227   3.175   8.590   9.743
10722SOL    HW144228   3.274   8.594   9.759
10722SOL    HW244229   3.158   8.576   9.645
10723SOL     OW44230   2.528   7.756   9.691
10723SOL    HW144231   2.430   7.750   9.671
10723SOL    HW244232   2.547   7.713   9.779
10724SOL     OW44233   3.448   7.439   9.950
10724SOL    HW144234   3.443   7.480   9.859
10724SOL    HW244235   3.529   7.473   9.997
10725SOL     OW44236   3.213   7.847   9.932
10725SOL    HW144237   3.212   7.839   9.833
10725SOL    HW244238   3.302   7.819   9.967
10726SOL     OW44239   3.531   9.786   1.414
10726SOL    HW144240   3.433   9.778   1.436
10726SOL    HW244241   3.584   9.775   1.498
10727SOL     OW44242   2.198   9.423   0.019
10727SOL    HW144243   2.111   9.420  -0.030
10727SOL    HW244244   2.249   9.505  -0.009
10728SOL     OW44245   3.063   9.323   1.352
10728SOL    HW144246   2.987   9.278   1.399
10728SOL    HW244247   3.092   9.268   1.274
10729SOL     OW44248   2.426   9.310   0.145
10729SOL    HW144249   2.514   9.338   0.106
10729SOL    HW244250   2.354   9.373   0.115
10730SOL     OW44251   2.562   9.856   0.549
10730SOL    HW144252   2.601   9.926   0.490
10730SOL    HW244253   2.536   9.776   0.495
10731SOL     OW44254   3.182   9.764   1.758
10731SOL    HW144255   3.278   9.768   1.784
10731SOL    HW244256   3.138   9.688   1.805
10732SOL     OW44257   2.416   9.575   1.012
10732SOL    HW144258   2.492   9.640   1.008
10732SOL    HW244259   2.446   9.486   0.979
10733SOL     OW44260   3.503   9.521   1.120
10733SOL    HW144261   3.554   9.593   1.073
10733SOL    HW244262   3.408   9.548   1.129
10734SOL     OW44263   2.903   9.550   0.389
10734SOL    HW144264   2.928   9.644   0.410
10734SOL    HW244265   2.904   9.496   0.473
10735SOL     OW44266   2.353   9.908   0.117
10735SOL    HW144267   2.313   9.987   0.070
10735SOL    HW244268   2.442   9.887   0.077
10736SOL     OW44269   2.868   9.864   1.569
10736SOL    HW144270   2.901   9.781   1.616
10736SOL    HW244271   2.941   9.932   1.568
10737SOL     OW44272   3.061   9.540   0.178
10737SOL    HW144273   3.155   9.510   0.196
10737SOL    HW244274   3.009   9.540   0.264
10738SOL     OW44275   2.213   9.745   1.273
10738SOL    HW144276   2.203   9.658   1.225
10738SOL    HW244277   2.149   9.812   1.236
10739SOL     OW44278   3.295  10.025   1.311
10739SOL    HW144279   3.299  10.119   1.276
10739SOL    HW244280   3.388   9.994   1.333
10740SOL     OW44281   3.671   9.762   1.199
10740SOL    HW144282   3.728   9.844   1.201
10740SOL    HW244283   3.612   9.761   1.279
10741SOL     OW44284   2.801   9.728   0.674
10741SOL    HW144285   2.877   9.756   0.733
10741SOL    HW244286   2.757   9.808   0.635
10742SOL     OW44287   2.878   9.614   1.812
10742SOL    HW144288   2.941   9.619   1.889
10742SOL    HW244289   2.786   9.592   1.845
10743SOL     OW44290   2.594   9.266   1.710
10743SOL    HW144291   2.601   9.172   1.677
10743SOL    HW244292   2.651   9.276   1.792
10744SOL     OW44293   3.517   9.867   0.978
10744SOL    HW144294   3.502   9.958   1.015
10744SOL    HW244295   3.587   9.820   1.032
10745SOL     OW44296   3.217   9.239   0.854
10745SOL    HW144297   3.166   9.323   0.836
10745SOL    HW244298   3.303   9.241   0.803
10746SOL     OW44299   3.572   9.445   1.783
10746SOL    HW144300   3.549   9.466   1.878
10746SOL    HW244301   3.548   9.350   1.763
10747SOL     OW44302   2.196   9.437   0.848
10747SOL    HW144303   2.248   9.477   0.923
10747SOL    HW244304   2.249   9.364   0.805
10748SOL     OW44305   2.180   9.485   1.182
10748SOL    HW144306   2.145   9.392   1.182
10748SOL    HW244307   2.267   9.488   1.133
10749SOL     OW44308   2.852  10.361   1.319
10749SOL    HW144309   2.902  10.276   1.303
10749SOL    HW244310   2.806  10.388   1.234
10750SOL     OW44311   3.210   9.652   0.423
10750SOL    HW144312   3.147   9.710   0.371
10750SOL    HW244313   3.303   9.686   0.411
10751SOL     OW44314   2.107   9.853   1.523
10751SOL    HW144315   2.127   9.758   1.498
10751SOL    HW244316   2.070   9.856   1.616
10752SOL     OW44317   1.989   9.508   1.413
10752SOL    HW144318   2.061   9.518   1.344
10752SOL    HW244319   1.900   9.507   1.368
10753SOL     OW44320   2.887  10.129   1.178
10753SOL    HW144321   2.881  10.115   1.079
10753SOL    HW244322   2.806  10.090   1.222
10754SOL     OW44323   3.478   9.663   0.493
10754SOL    HW144324   3.574   9.634   0.490
10754SOL    HW244325   3.439   9.641   0.582
10755SOL     OW44326   2.712   9.604   0.215
10755SOL    HW144327   2.621   9.617   0.253
10755SOL    HW244328   2.772   9.564   0.285
10756SOL     OW44329   2.668  10.004   1.324
10756SOL    HW144330   2.670  10.090   1.375
10756SOL    HW244331   2.725   9.936   1.371
10757SOL     OW44332   2.208   9.768   0.928
10757SOL    HW144333   2.264   9.761   0.845
10757SOL    HW244334   2.265   9.746   1.008
10758SOL     OW44335   2.637   9.288   0.398
10758SOL    HW144336   2.598   9.277   0.307
10758SOL    HW244337   2.593   9.364   0.445
10759SOL     OW44338   3.412   9.552   1.576
10759SOL    HW144339   3.351   9.630   1.573
10759SOL    HW244340   3.467   9.556   1.659
10760SOL     OW44341   3.128   9.498   0.867
10760SOL    HW144342   3.127   9.576   0.804
10760SOL    HW244343   3.171   9.525   0.953
10761SOL     OW44344   3.248   9.304   0.163
10761SOL    HW144345   3.328   9.244   0.160
10761SOL    HW244346   3.174   9.257   0.211
10762SOL     OW44347   3.461   9.276   1.597
10762SOL    HW144348   3.487   9.233   1.511
10762SOL    HW244349   3.411   9.360   1.579
10763SOL     OW44350   2.563   9.535   0.729
10763SOL    HW144351   2.552   9.477   0.810
10763SOL    HW244352   2.648   9.587   0.737
10764SOL     OW44353   3.143   9.886   1.121
10764SOL    HW144354   3.197   9.926   1.047
10764SOL    HW244355   3.181   9.915   1.209
10765SOL     OW44356   3.436   9.292   0.437
10765SOL    HW144357   3.443   9.246   0.349
10765SOL    HW244358   3.340   9.302   0.462
10766SOL     OW44359   3.035   9.830   0.839
10766SOL    HW144360   3.117   9.807   0.787
10766SOL    HW244361   3.030   9.771   0.920
10767SOL     OW44362   3.635   9.857   1.675
10767SOL    HW144363   3.624   9.943   1.624
10767SOL    HW244364   3.729   9.848   1.705
10768SOL     OW44365   3.206   9.630   1.094
10768SOL    HW144366   3.180   9.727   1.100
10768SOL    HW244367   3.206   9.590   1.186
10769SOL     OW44368   3.436   9.762   1.845
10769SOL    HW144369   3.516   9.787   1.789
10769SOL    HW244370   3.467   9.727   1.933
10770SOL     OW44371   3.454   9.518   0.219
10770SOL    HW144372   3.459   9.560   0.310
10770SOL    HW244373   3.387   9.443   0.221
10771SOL     OW44374   1.992   9.528   1.704
10771SOL    HW144375   2.010   9.517   1.606
10771SOL    HW244376   1.894   9.524   1.721
10772SOL     OW44377   3.563   9.451   1.373
10772SOL    HW144378   3.519   9.499   1.449
10772SOL    HW244379   3.541   9.497   1.287
10773SOL     OW44380   1.922   9.768   0.845
10773SOL    HW144381   1.886   9.861   0.837
10773SOL    HW244382   2.005   9.769   0.901
10774SOL     OW44383   2.983   9.947   0.047
10774SOL    HW144384   2.914  10.004   0.003
10774SOL    HW244385   3.064   9.941  -0.012
10775SOL     OW44386   3.169   9.383   0.484
10775SOL    HW144387   3.079   9.367   0.525
10775SOL    HW244388   3.177   9.479   0.458
10776SOL     OW44389   3.283   9.783   1.500
10776SOL    HW144390   3.235   9.806   1.584
10776SOL    HW244391   3.217   9.753   1.431
10777SOL     OW44392   1.918   9.298   0.144
10777SOL    HW144393   1.981   9.221   0.152
10777SOL    HW244394   1.938   9.366   0.215
10778SOL     OW44395   2.472   9.886   1.167
10778SOL    HW144396   2.547   9.929   1.216
10778SOL    HW244397   2.405   9.851   1.233
10779SOL     OW44398   2.936   9.458   0.640
10779SOL    HW144399   2.995   9.518   0.695
10779SOL    HW244400   2.863   9.422   0.697
10780SOL     OW44401   2.464   9.335   0.911
10780SOL    HW144402   2.392   9.268   0.897
10780SOL    HW244403   2.546   9.289   0.946
10781SOL     OW44404   1.890  10.202   1.151
10781SOL    HW144405   1.979  10.180   1.191
10781SOL    HW244406   1.835  10.118   1.147
10782SOL     OW44407   2.118   9.247   0.431
10782SOL    HW144408   2.156   9.335   0.458
10782SOL    HW244409   2.041   9.223   0.491
10783SOL     OW44410   3.637   9.446   0.852
10783SOL    HW144411   3.592   9.428   0.939
10783SOL    HW244412   3.735   9.463   0.868
10784SOL     OW44413   3.023   9.845   0.313
10784SOL    HW144414   3.075   9.917   0.359
10784SOL    HW244415   3.036   9.852   0.215
10785SOL     OW44416   2.141  10.102   1.380
10785SOL    HW144417   2.105  10.012   1.406
10785SOL    HW244418   2.102  10.172   1.440
10786SOL     OW44419   2.309   9.684   1.785
10786SOL    HW144420   2.345   9.631   1.708
10786SOL    HW244421   2.370   9.761   1.803
10787SOL     OW44422   2.373  10.101   0.357
10787SOL    HW144423   2.323  10.166   0.301
10787SOL    HW244424   2.315  10.022   0.376
10788SOL     OW44425   3.146   9.575   1.351
10788SOL    HW144426   3.217   9.547   1.415
10788SOL    HW244427   3.093   9.495   1.323
10789SOL     OW44428   1.847   9.274   0.552
10789SOL    HW144429   1.760   9.261   0.505
10789SOL    HW244430   1.855   9.369   0.582
10790SOL     OW44431   3.068   9.375   1.793
10790SOL    HW144432   3.127   9.391   1.873
10790SOL    HW244433   3.015   9.458   1.774
10791SOL     OW44434   2.890   9.794   1.109
10791SOL    HW144435   2.976   9.845   1.108
10791SOL    HW244436   2.896   9.720   1.176
10792SOL     OW44437   2.839   9.409   0.898
10792SOL    HW144438   2.935   9.410   0.926
10792SOL    HW244439   2.784   9.366   0.970
10793SOL     OW44440   3.492   9.682   0.778
10793SOL    HW144441   3.511   9.768   0.825
10793SOL    HW244442   3.560   9.613   0.806
10794SOL     OW44443   2.706   9.330   0.116
10794SOL    HW144444   2.781   9.264   0.128
10794SOL    HW244445   2.737   9.421   0.144
10795SOL     OW44446   2.385   9.759   0.728
10795SOL    HW144447   2.423   9.670   0.754
10795SOL    HW244448   2.452   9.809   0.673
10796SOL     OW44449   2.065   9.828   1.789
10796SOL    HW144450   2.082   9.729   1.794
10796SOL    HW244451   2.129   9.876   1.850
10797SOL     OW44452   2.634   9.742   1.008
10797SOL    HW144453   2.726   9.770   1.035
10797SOL    HW244454   2.566   9.793   1.062
10798SOL     OW44455   2.053   9.935   1.149
10798SOL    HW144456   2.091   9.994   1.220
10798SOL    HW244457   2.036   9.988   1.067
10799SOL     OW44458   2.528   9.601   0.464
10799SOL    HW144459   2.430   9.595   0.444
10799SOL    HW244460   2.547   9.558   0.552
10800SOL     OW44461   3.448   9.284   0.723
10800SOL    HW144462   3.443   9.325   0.632
10800SOL    HW244463   3.529   9.318   0.770
10801SOL     OW44464   3.213   9.692   0.705
10801SOL    HW144465   3.212   9.684   0.606
10801SOL    HW244466   3.302   9.664   0.740
10802SOL     OW44467   3.531   9.786   3.259
10802SOL    HW144468   3.433   9.778   3.281
10802SOL    HW244469   3.584   9.775   3.343
10803SOL     OW44470   2.198   9.423   1.864
10803SOL    HW144471   2.111   9.420   1.815
10803SOL    HW244472   2.249   9.505   1.836
10804SOL     OW44473   3.063   9.323   3.197
10804SOL    HW144474   2.987   9.278   3.244
10804SOL    HW244475   3.092   9.268   3.119
10805SOL     OW44476   2.426   9.310   1.990
10805SOL    HW144477   2.514   9.338   1.951
10805SOL    HW244478   2.354   9.373   1.960
10806SOL     OW44479   2.562   9.856   2.394
10806SOL    HW144480   2.601   9.926   2.335
10806SOL    HW244481   2.536   9.776   2.340
10807SOL     OW44482   3.182   9.764   3.603
10807SOL    HW144483   3.278   9.768   3.629
10807SOL    HW244484   3.138   9.688   3.650
10808SOL     OW44485   2.416   9.575   2.857
10808SOL    HW144486   2.492   9.640   2.853
10808SOL    HW244487   2.446   9.486   2.824
10809SOL     OW44488   3.503   9.521   2.965
10809SOL    HW144489   3.554   9.593   2.918
10809SOL    HW244490   3.408   9.548   2.974
10810SOL     OW44491   2.903   9.550   2.234
10810SOL    HW144492   2.928   9.644   2.255
10810SOL    HW244493   2.904   9.496   2.318
10811SOL     OW44494   2.353   9.908   1.962
10811SOL    HW144495   2.313   9.987   1.915
10811SOL    HW244496   2.442   9.887   1.922
10812SOL     OW44497   2.868   9.864   3.414
10812SOL    HW144498   2.901   9.781   3.461
10812SOL    HW244499   2.941   9.932   3.413
10813SOL     OW44500   3.061   9.540   2.023
10813SOL    HW144501   3.155   9.510   2.041
10813SOL    HW244502   3.009   9.540   2.109
10814SOL     OW44503   2.213   9.745   3.118
10814SOL    HW144504   2.203   9.658   3.070
10814SOL    HW244505   2.149   9.812   3.081
10815SOL     OW44506   3.295  10.025   3.156
10815SOL    HW144507   3.299  10.119   3.121
10815SOL    HW244508   3.388   9.994   3.178
10816SOL     OW44509   2.248   9.517   2.277
10816SOL    HW144510   2.202   9.557   2.356
10816SOL    HW244511   2.196   9.536   2.195
10817SOL     OW44512   3.671   9.762   3.044
10817SOL    HW144513   3.728   9.844   3.046
10817SOL    HW244514   3.612   9.761   3.124
10818SOL     OW44515   2.801   9.728   2.519
10818SOL    HW144516   2.877   9.756   2.578
10818SOL    HW244517   2.757   9.808   2.480
10819SOL     OW44518   2.878   9.614   3.657
10819SOL    HW144519   2.941   9.619   3.734
10819SOL    HW244520   2.786   9.592   3.690
10820SOL     OW44521   3.619   9.861   2.115
10820SOL    HW144522   3.640   9.780   2.061
10820SOL    HW244523   3.636   9.842   2.212
10821SOL     OW44524   2.594   9.266   3.555
10821SOL    HW144525   2.601   9.172   3.522
10821SOL    HW244526   2.651   9.276   3.637
10822SOL     OW44527   3.517   9.867   2.823
10822SOL    HW144528   3.502   9.958   2.860
10822SOL    HW244529   3.587   9.820   2.877
10823SOL     OW44530   3.217   9.239   2.699
10823SOL    HW144531   3.166   9.323   2.681
10823SOL    HW244532   3.303   9.241   2.648
10824SOL     OW44533   3.572   9.445   3.628
10824SOL    HW144534   3.549   9.466   3.723
10824SOL    HW244535   3.548   9.350   3.608
10825SOL     OW44536   2.196   9.437   2.693
10825SOL    HW144537   2.248   9.477   2.768
10825SOL    HW244538   2.249   9.364   2.650
10826SOL     OW44539   2.180   9.485   3.027
10826SOL    HW144540   2.145   9.392   3.027
10826SOL    HW244541   2.267   9.488   2.978
10827SOL     OW44542   2.852  10.361   3.164
10827SOL    HW144543   2.902  10.276   3.148
10827SOL    HW244544   2.806  10.388   3.079
10828SOL     OW44545   3.210   9.652   2.268
10828SOL    HW144546   3.147   9.710   2.216
10828SOL    HW244547   3.303   9.686   2.256
10829SOL     OW44548   2.107   9.853   3.368
10829SOL    HW144549   2.127   9.758   3.343
10829SOL    HW244550   2.070   9.856   3.461
10830SOL     OW44551   1.989   9.508   3.258
10830SOL    HW144552   2.061   9.518   3.189
10830SOL    HW244553   1.900   9.507   3.213
10831SOL     OW44554   2.887  10.129   3.023
10831SOL    HW144555   2.881  10.115   2.924
10831SOL    HW244556   2.806  10.090   3.067
10832SOL     OW44557   3.478   9.663   2.338
10832SOL    HW144558   3.574   9.634   2.335
10832SOL    HW244559   3.439   9.641   2.427
10833SOL     OW44560   2.712   9.604   2.060
10833SOL    HW144561   2.621   9.617   2.098
10833SOL    HW244562   2.772   9.564   2.130
10834SOL     OW44563   2.770  10.234   2.417
10834SOL    HW144564   2.757  10.145   2.374
10834SOL    HW244565   2.701  10.248   2.488
10835SOL     OW44566   1.881   9.539   2.320
10835SOL    HW144567   1.941   9.490   2.258
10835SOL    HW244568   1.936   9.591   2.385
10836SOL     OW44569   2.668  10.004   3.169
10836SOL    HW144570   2.670  10.090   3.220
10836SOL    HW244571   2.725   9.936   3.216
10837SOL     OW44572   2.208   9.768   2.773
10837SOL    HW144573   2.264   9.761   2.690
10837SOL    HW244574   2.265   9.746   2.853
10838SOL     OW44575   2.637   9.288   2.243
10838SOL    HW144576   2.598   9.277   2.152
10838SOL    HW244577   2.593   9.364   2.290
10839SOL     OW44578   3.412   9.552   3.421
10839SOL    HW144579   3.351   9.630   3.418
10839SOL    HW244580   3.467   9.556   3.504
10840SOL     OW44581   3.128   9.498   2.712
10840SOL    HW144582   3.127   9.576   2.649
10840SOL    HW244583   3.171   9.525   2.798
10841SOL     OW44584   3.248   9.304   2.008
10841SOL    HW144585   3.328   9.244   2.005
10841SOL    HW244586   3.174   9.257   2.056
10842SOL     OW44587   3.461   9.276   3.442
10842SOL    HW144588   3.487   9.233   3.356
10842SOL    HW244589   3.411   9.360   3.424
10843SOL     OW44590   2.563   9.535   2.574
10843SOL    HW144591   2.552   9.477   2.655
10843SOL    HW244592   2.648   9.587   2.582
10844SOL     OW44593   3.143   9.886   2.966
10844SOL    HW144594   3.197   9.926   2.892
10844SOL    HW244595   3.181   9.915   3.054
10845SOL     OW44596   3.436   9.292   2.282
10845SOL    HW144597   3.443   9.246   2.194
10845SOL    HW244598   3.340   9.302   2.307
10846SOL     OW44599   3.035   9.830   2.684
10846SOL    HW144600   3.117   9.807   2.632
10846SOL    HW244601   3.030   9.771   2.765
10847SOL     OW44602   3.635   9.857   3.520
10847SOL    HW144603   3.624   9.943   3.469
10847SOL    HW244604   3.729   9.848   3.550
10848SOL     OW44605   3.206   9.630   2.939
10848SOL    HW144606   3.180   9.727   2.945
10848SOL    HW244607   3.206   9.590   3.031
10849SOL     OW44608   3.436   9.762   3.690
10849SOL    HW144609   3.516   9.787   3.634
10849SOL    HW244610   3.467   9.727   3.778
10850SOL     OW44611   3.454   9.518   2.064
10850SOL    HW144612   3.459   9.560   2.155
10850SOL    HW244613   3.387   9.443   2.066
10851SOL     OW44614   1.992   9.528   3.549
10851SOL    HW144615   2.010   9.517   3.451
10851SOL    HW244616   1.894   9.524   3.566
10852SOL     OW44617   2.040   9.598   2.517
10852SOL    HW144618   1.983   9.653   2.578
10852SOL    HW244619   2.110   9.550   2.570
10853SOL     OW44620   2.177   9.789   2.115
10853SOL    HW144621   2.249   9.818   2.052
10853SOL    HW244622   2.133   9.869   2.155
10854SOL     OW44623   3.563   9.451   3.218
10854SOL    HW144624   3.519   9.499   3.294
10854SOL    HW244625   3.541   9.497   3.132
10855SOL     OW44626   2.069   9.516   2.079
10855SOL    HW144627   2.113   9.485   1.996
10855SOL    HW244628   2.070   9.616   2.083
10856SOL     OW44629   1.922   9.768   2.690
10856SOL    HW144630   1.886   9.861   2.682
10856SOL    HW244631   2.005   9.769   2.746
10857SOL     OW44632   2.983   9.947   1.892
10857SOL    HW144633   2.914  10.004   1.848
10857SOL    HW244634   3.064   9.941   1.833
10858SOL     OW44635   2.718   9.866   2.035
10858SOL    HW144636   2.808   9.867   1.990
10858SOL    HW244637   2.695   9.772   2.060
10859SOL     OW44638   3.169   9.383   2.329
10859SOL    HW144639   3.079   9.367   2.370
10859SOL    HW244640   3.177   9.479   2.303
10860SOL     OW44641   3.283   9.783   3.345
10860SOL    HW144642   3.235   9.806   3.429
10860SOL    HW244643   3.217   9.753   3.276
10861SOL     OW44644   1.918   9.298   1.989
10861SOL    HW144645   1.981   9.221   1.997
10861SOL    HW244646   1.938   9.366   2.060
10862SOL     OW44647   2.472   9.886   3.012
10862SOL    HW144648   2.547   9.929   3.061
10862SOL    HW244649   2.405   9.851   3.078
10863SOL     OW44650   2.936   9.458   2.485
10863SOL    HW144651   2.995   9.518   2.540
10863SOL    HW244652   2.863   9.422   2.542
10864SOL     OW44653   2.464   9.335   2.756
10864SOL    HW144654   2.392   9.268   2.742
10864SOL    HW244655   2.546   9.289   2.791
10865SOL     OW44656   2.118   9.247   2.276
10865SOL    HW144657   2.156   9.335   2.303
10865SOL    HW244658   2.041   9.223   2.336
10866SOL     OW44659   3.637   9.446   2.697
10866SOL    HW144660   3.592   9.428   2.784
10866SOL    HW244661   3.735   9.463   2.713
10867SOL     OW44662   3.023   9.845   2.158
10867SOL    HW144663   3.075   9.917   2.204
10867SOL    HW244664   3.036   9.852   2.060
10868SOL     OW44665   2.141  10.102   3.225
10868SOL    HW144666   2.105  10.012   3.251
10868SOL    HW244667   2.102  10.172   3.285
10869SOL     OW44668   2.309   9.684   3.630
10869SOL    HW144669   2.345   9.631   3.553
10869SOL    HW244670   2.370   9.761   3.648
10870SOL     OW44671   2.373  10.101   2.202
10870SOL    HW144672   2.323  10.166   2.146
10870SOL    HW244673   2.315  10.022   2.221
10871SOL     OW44674   3.146   9.575   3.196
10871SOL    HW144675   3.217   9.547   3.260
10871SOL    HW244676   3.093   9.495   3.168
10872SOL     OW44677   1.847   9.274   2.397
10872SOL    HW144678   1.760   9.261   2.350
10872SOL    HW244679   1.855   9.369   2.427
10873SOL     OW44680   3.068   9.375   3.638
10873SOL    HW144681   3.127   9.391   3.718
10873SOL    HW244682   3.015   9.458   3.619
10874SOL     OW44683   2.890   9.794   2.954
10874SOL    HW144684   2.976   9.845   2.953
10874SOL    HW244685   2.896   9.720   3.021
10875SOL     OW44686   2.839   9.409   2.743
10875SOL    HW144687   2.935   9.410   2.771
10875SOL    HW244688   2.784   9.366   2.815
10876SOL     OW44689   3.492   9.682   2.623
10876SOL    HW144690   3.511   9.768   2.670
10876SOL    HW244691   3.560   9.613   2.651
10877SOL     OW44692   2.706   9.330   1.961
10877SOL    HW144693   2.781   9.264   1.973
10877SOL    HW244694   2.737   9.421   1.989
10878SOL     OW44695   2.385   9.759   2.573
10878SOL    HW144696   2.423   9.670   2.599
10878SOL    HW244697   2.452   9.809   2.518
10879SOL     OW44698   2.065   9.828   3.634
10879SOL    HW144699   2.082   9.729   3.639
10879SOL    HW244700   2.129   9.876   3.695
10880SOL     OW44701   2.634   9.742   2.853
10880SOL    HW144702   2.726   9.770   2.880
10880SOL    HW244703   2.566   9.793   2.907
10881SOL     OW44704   2.053   9.935   2.994
10881SOL    HW144705   2.091   9.994   3.065
10881SOL    HW244706   2.036   9.988   2.912
10882SOL     OW44707   2.528   9.601   2.309
10882SOL    HW144708   2.430   9.595   2.289
10882SOL    HW244709   2.547   9.558   2.397
10883SOL     OW44710   3.448   9.284   2.568
10883SOL    HW144711   3.443   9.325   2.477
10883SOL    HW244712   3.529   9.318   2.615
10884SOL     OW44713   3.213   9.692   2.550
10884SOL    HW144714   3.212   9.684   2.451
10884SOL    HW244715   3.302   9.664   2.585
10885SOL     OW44716   3.531   9.786   5.105
10885SOL    HW144717   3.433   9.778   5.127
10885SOL    HW244718   3.584   9.775   5.189
10886SOL     OW44719   2.198   9.423   3.710
10886SOL    HW144720   2.111   9.420   3.661
10886SOL    HW244721   2.249   9.505   3.682
10887SOL     OW44722   3.063   9.323   5.043
10887SOL    HW144723   2.987   9.278   5.090
10887SOL    HW244724   3.092   9.268   4.965
10888SOL     OW44725   2.426   9.310   3.836
10888SOL    HW144726   2.514   9.338   3.797
10888SOL    HW244727   2.354   9.373   3.806
10889SOL     OW44728   2.562   9.856   4.240
10889SOL    HW144729   2.601   9.926   4.181
10889SOL    HW244730   2.536   9.776   4.186
10890SOL     OW44731   3.182   9.764   5.449
10890SOL    HW144732   3.278   9.768   5.475
10890SOL    HW244733   3.138   9.688   5.496
10891SOL     OW44734   2.416   9.575   4.703
10891SOL    HW144735   2.492   9.640   4.699
10891SOL    HW244736   2.446   9.486   4.670
10892SOL     OW44737   3.503   9.521   4.811
10892SOL    HW144738   3.554   9.593   4.764
10892SOL    HW244739   3.408   9.548   4.820
10893SOL     OW44740   2.903   9.550   4.080
10893SOL    HW144741   2.928   9.644   4.101
10893SOL    HW244742   2.904   9.496   4.164
10894SOL     OW44743   2.353   9.908   3.808
10894SOL    HW144744   2.313   9.987   3.761
10894SOL    HW244745   2.442   9.887   3.768
10895SOL     OW44746   2.868   9.864   5.260
10895SOL    HW144747   2.901   9.781   5.307
10895SOL    HW244748   2.941   9.932   5.259
10896SOL     OW44749   3.061   9.540   3.869
10896SOL    HW144750   3.155   9.510   3.887
10896SOL    HW244751   3.009   9.540   3.955
10897SOL     OW44752   2.213   9.745   4.964
10897SOL    HW144753   2.203   9.658   4.916
10897SOL    HW244754   2.149   9.812   4.927
10898SOL     OW44755   3.295  10.025   5.002
10898SOL    HW144756   3.299  10.119   4.967
10898SOL    HW244757   3.388   9.994   5.024
10899SOL     OW44758   2.248   9.517   4.123
10899SOL    HW144759   2.202   9.557   4.202
10899SOL    HW244760   2.196   9.536   4.041
10900SOL     OW44761   3.671   9.762   4.890
10900SOL    HW144762   3.728   9.844   4.892
10900SOL    HW244763   3.612   9.761   4.970
10901SOL     OW44764   2.801   9.728   4.365
10901SOL    HW144765   2.877   9.756   4.424
10901SOL    HW244766   2.757   9.808   4.326
10902SOL     OW44767   2.878   9.614   5.503
10902SOL    HW144768   2.941   9.619   5.580
10902SOL    HW244769   2.786   9.592   5.536
10903SOL     OW44770   2.594   9.266   5.401
10903SOL    HW144771   2.601   9.172   5.368
10903SOL    HW244772   2.651   9.276   5.483
10904SOL     OW44773   3.517   9.867   4.669
10904SOL    HW144774   3.502   9.958   4.706
10904SOL    HW244775   3.587   9.820   4.723
10905SOL     OW44776   3.217   9.239   4.545
10905SOL    HW144777   3.166   9.323   4.527
10905SOL    HW244778   3.303   9.241   4.494
10906SOL     OW44779   3.572   9.445   5.474
10906SOL    HW144780   3.549   9.466   5.569
10906SOL    HW244781   3.548   9.350   5.454
10907SOL     OW44782   2.196   9.437   4.539
10907SOL    HW144783   2.248   9.477   4.614
10907SOL    HW244784   2.249   9.364   4.496
10908SOL     OW44785   2.180   9.485   4.873
10908SOL    HW144786   2.145   9.392   4.873
10908SOL    HW244787   2.267   9.488   4.824
10909SOL     OW44788   2.852  10.361   5.010
10909SOL    HW144789   2.902  10.276   4.994
10909SOL    HW244790   2.806  10.388   4.925
10910SOL     OW44791   3.210   9.652   4.114
10910SOL    HW144792   3.147   9.710   4.062
10910SOL    HW244793   3.303   9.686   4.102
10911SOL     OW44794   2.107   9.853   5.214
10911SOL    HW144795   2.127   9.758   5.189
10911SOL    HW244796   2.070   9.856   5.307
10912SOL     OW44797   1.989   9.508   5.104
10912SOL    HW144798   2.061   9.518   5.035
10912SOL    HW244799   1.900   9.507   5.059
10913SOL     OW44800   2.887  10.129   4.869
10913SOL    HW144801   2.881  10.115   4.770
10913SOL    HW244802   2.806  10.090   4.913
10914SOL     OW44803   2.712   9.604   3.906
10914SOL    HW144804   2.621   9.617   3.944
10914SOL    HW244805   2.772   9.564   3.976
10915SOL     OW44806   2.770  10.234   4.263
10915SOL    HW144807   2.757  10.145   4.220
10915SOL    HW244808   2.701  10.248   4.334
10916SOL     OW44809   1.881   9.539   4.166
10916SOL    HW144810   1.941   9.490   4.104
10916SOL    HW244811   1.936   9.591   4.231
10917SOL     OW44812   2.668  10.004   5.015
10917SOL    HW144813   2.670  10.090   5.066
10917SOL    HW244814   2.725   9.936   5.062
10918SOL     OW44815   2.208   9.768   4.619
10918SOL    HW144816   2.264   9.761   4.536
10918SOL    HW244817   2.265   9.746   4.699
10919SOL     OW44818   2.637   9.288   4.089
10919SOL    HW144819   2.598   9.277   3.998
10919SOL    HW244820   2.593   9.364   4.136
10920SOL     OW44821   3.412   9.552   5.267
10920SOL    HW144822   3.351   9.630   5.264
10920SOL    HW244823   3.467   9.556   5.350
10921SOL     OW44824   3.128   9.498   4.558
10921SOL    HW144825   3.127   9.576   4.495
10921SOL    HW244826   3.171   9.525   4.644
10922SOL     OW44827   3.248   9.304   3.854
10922SOL    HW144828   3.328   9.244   3.851
10922SOL    HW244829   3.174   9.257   3.902
10923SOL     OW44830   3.461   9.276   5.288
10923SOL    HW144831   3.487   9.233   5.202
10923SOL    HW244832   3.411   9.360   5.270
10924SOL     OW44833   2.563   9.535   4.420
10924SOL    HW144834   2.552   9.477   4.501
10924SOL    HW244835   2.648   9.587   4.428
10925SOL     OW44836   3.143   9.886   4.812
10925SOL    HW144837   3.197   9.926   4.738
10925SOL    HW244838   3.181   9.915   4.900
10926SOL     OW44839   3.436   9.292   4.128
10926SOL    HW144840   3.443   9.246   4.040
10926SOL    HW244841   3.340   9.302   4.153
10927SOL     OW44842   3.035   9.830   4.530
10927SOL    HW144843   3.117   9.807   4.478
10927SOL    HW244844   3.030   9.771   4.611
10928SOL     OW44845   3.635   9.857   5.366
10928SOL    HW144846   3.624   9.943   5.315
10928SOL    HW244847   3.729   9.848   5.396
10929SOL     OW44848   3.206   9.630   4.785
10929SOL    HW144849   3.180   9.727   4.791
10929SOL    HW244850   3.206   9.590   4.877
10930SOL     OW44851   3.436   9.762   5.536
10930SOL    HW144852   3.516   9.787   5.480
10930SOL    HW244853   3.467   9.727   5.624
10931SOL     OW44854   3.454   9.518   3.910
10931SOL    HW144855   3.459   9.560   4.001
10931SOL    HW244856   3.387   9.443   3.912
10932SOL     OW44857   1.992   9.528   5.395
10932SOL    HW144858   2.010   9.517   5.297
10932SOL    HW244859   1.894   9.524   5.412
10933SOL     OW44860   2.040   9.598   4.363
10933SOL    HW144861   1.983   9.653   4.424
10933SOL    HW244862   2.110   9.550   4.416
10934SOL     OW44863   2.177   9.789   3.961
10934SOL    HW144864   2.249   9.818   3.898
10934SOL    HW244865   2.133   9.869   4.001
10935SOL     OW44866   2.069   9.516   3.925
10935SOL    HW144867   2.113   9.485   3.842
10935SOL    HW244868   2.070   9.616   3.929
10936SOL     OW44869   1.922   9.768   4.536
10936SOL    HW144870   1.886   9.861   4.528
10936SOL    HW244871   2.005   9.769   4.592
10937SOL     OW44872   2.983   9.947   3.738
10937SOL    HW144873   2.914  10.004   3.694
10937SOL    HW244874   3.064   9.941   3.679
10938SOL     OW44875   2.718   9.866   3.881
10938SOL    HW144876   2.808   9.867   3.836
10938SOL    HW244877   2.695   9.772   3.906
10939SOL     OW44878   3.169   9.383   4.175
10939SOL    HW144879   3.079   9.367   4.216
10939SOL    HW244880   3.177   9.479   4.149
10940SOL     OW44881   3.283   9.783   5.191
10940SOL    HW144882   3.235   9.806   5.275
10940SOL    HW244883   3.217   9.753   5.122
10941SOL     OW44884   1.918   9.298   3.835
10941SOL    HW144885   1.981   9.221   3.843
10941SOL    HW244886   1.938   9.366   3.906
10942SOL     OW44887   2.472   9.886   4.858
10942SOL    HW144888   2.547   9.929   4.907
10942SOL    HW244889   2.405   9.851   4.924
10943SOL     OW44890   2.936   9.458   4.331
10943SOL    HW144891   2.995   9.518   4.386
10943SOL    HW244892   2.863   9.422   4.388
10944SOL     OW44893   2.464   9.335   4.602
10944SOL    HW144894   2.392   9.268   4.588
10944SOL    HW244895   2.546   9.289   4.637
10945SOL     OW44896   1.890  10.202   4.842
10945SOL    HW144897   1.979  10.180   4.882
10945SOL    HW244898   1.835  10.118   4.838
10946SOL     OW44899   2.118   9.247   4.122
10946SOL    HW144900   2.156   9.335   4.149
10946SOL    HW244901   2.041   9.223   4.182
10947SOL     OW44902   3.023   9.845   4.004
10947SOL    HW144903   3.075   9.917   4.050
10947SOL    HW244904   3.036   9.852   3.906
10948SOL     OW44905   2.141  10.102   5.071
10948SOL    HW144906   2.105  10.012   5.097
10948SOL    HW244907   2.102  10.172   5.131
10949SOL     OW44908   2.309   9.684   5.476
10949SOL    HW144909   2.345   9.631   5.399
10949SOL    HW244910   2.370   9.761   5.494
10950SOL     OW44911   2.373  10.101   4.048
10950SOL    HW144912   2.323  10.166   3.992
10950SOL    HW244913   2.315  10.022   4.067
10951SOL     OW44914   3.146   9.575   5.042
10951SOL    HW144915   3.217   9.547   5.106
10951SOL    HW244916   3.093   9.495   5.014
10952SOL     OW44917   1.847   9.274   4.243
10952SOL    HW144918   1.760   9.261   4.196
10952SOL    HW244919   1.855   9.369   4.273
10953SOL     OW44920   3.068   9.375   5.484
10953SOL    HW144921   3.127   9.391   5.564
10953SOL    HW244922   3.015   9.458   5.465
10954SOL     OW44923   2.890   9.794   4.800
10954SOL    HW144924   2.976   9.845   4.799
10954SOL    HW244925   2.896   9.720   4.867
10955SOL     OW44926   2.839   9.409   4.589
10955SOL    HW144927   2.935   9.410   4.617
10955SOL    HW244928   2.784   9.366   4.661
10956SOL     OW44929   3.492   9.682   4.469
10956SOL    HW144930   3.511   9.768   4.516
10956SOL    HW244931   3.560   9.613   4.497
10957SOL     OW44932   2.706   9.330   3.807
10957SOL    HW144933   2.781   9.264   3.819
10957SOL    HW244934   2.737   9.421   3.835
10958SOL     OW44935   2.385   9.759   4.419
10958SOL    HW144936   2.423   9.670   4.445
10958SOL    HW244937   2.452   9.809   4.364
10959SOL     OW44938   2.065   9.828   5.480
10959SOL    HW144939   2.082   9.729   5.485
10959SOL    HW244940   2.129   9.876   5.541
10960SOL     OW44941   2.634   9.742   4.699
10960SOL    HW144942   2.726   9.770   4.726
10960SOL    HW244943   2.566   9.793   4.753
10961SOL     OW44944   2.053   9.935   4.840
10961SOL    HW144945   2.091   9.994   4.911
10961SOL    HW244946   2.036   9.988   4.758
10962SOL     OW44947   2.528   9.601   4.155
10962SOL    HW144948   2.430   9.595   4.135
10962SOL    HW244949   2.547   9.558   4.243
10963SOL     OW44950   3.213   9.692   4.396
10963SOL    HW144951   3.212   9.684   4.297
10963SOL    HW244952   3.302   9.664   4.431
10964SOL     OW44953   3.531   9.786   6.950
10964SOL    HW144954   3.433   9.778   6.972
10964SOL    HW244955   3.584   9.775   7.034
10965SOL     OW44956   2.198   9.423   5.555
10965SOL    HW144957   2.111   9.420   5.506
10965SOL    HW244958   2.249   9.505   5.527
10966SOL     OW44959   3.063   9.323   6.888
10966SOL    HW144960   2.987   9.278   6.935
10966SOL    HW244961   3.092   9.268   6.810
10967SOL     OW44962   2.426   9.310   5.681
10967SOL    HW144963   2.514   9.338   5.642
10967SOL    HW244964   2.354   9.373   5.651
10968SOL     OW44965   2.562   9.856   6.085
10968SOL    HW144966   2.601   9.926   6.026
10968SOL    HW244967   2.536   9.776   6.031
10969SOL     OW44968   3.182   9.764   7.294
10969SOL    HW144969   3.278   9.768   7.320
10969SOL    HW244970   3.138   9.688   7.341
10970SOL     OW44971   2.416   9.575   6.548
10970SOL    HW144972   2.492   9.640   6.544
10970SOL    HW244973   2.446   9.486   6.515
10971SOL     OW44974   3.503   9.521   6.656
10971SOL    HW144975   3.554   9.593   6.609
10971SOL    HW244976   3.408   9.548   6.665
10972SOL     OW44977   2.903   9.550   5.925
10972SOL    HW144978   2.928   9.644   5.946
10972SOL    HW244979   2.904   9.496   6.009
10973SOL     OW44980   2.353   9.908   5.653
10973SOL    HW144981   2.313   9.987   5.606
10973SOL    HW244982   2.442   9.887   5.613
10974SOL     OW44983   2.868   9.864   7.105
10974SOL    HW144984   2.901   9.781   7.152
10974SOL    HW244985   2.941   9.932   7.104
10975SOL     OW44986   3.061   9.540   5.714
10975SOL    HW144987   3.155   9.510   5.732
10975SOL    HW244988   3.009   9.540   5.800
10976SOL     OW44989   2.213   9.745   6.809
10976SOL    HW144990   2.203   9.658   6.761
10976SOL    HW244991   2.149   9.812   6.772
10977SOL     OW44992   3.295  10.025   6.847
10977SOL    HW144993   3.299  10.119   6.812
10977SOL    HW244994   3.388   9.994   6.869
10978SOL     OW44995   2.248   9.517   5.968
10978SOL    HW144996   2.202   9.557   6.047
10978SOL    HW244997   2.196   9.536   5.886
10979SOL     OW44998   3.671   9.762   6.735
10979SOL    HW144999   3.728   9.844   6.737
10979SOL    HW245000   3.612   9.761   6.815
10980SOL     OW45001   2.801   9.728   6.210
10980SOL    HW145002   2.877   9.756   6.269
10980SOL    HW245003   2.757   9.808   6.171
10981SOL     OW45004   2.878   9.614   7.348
10981SOL    HW145005   2.941   9.619   7.425
10981SOL    HW245006   2.786   9.592   7.381
10982SOL     OW45007   3.619   9.861   5.806
10982SOL    HW145008   3.640   9.780   5.752
10982SOL    HW245009   3.636   9.842   5.903
10983SOL     OW45010   2.594   9.266   7.246
10983SOL    HW145011   2.601   9.172   7.213
10983SOL    HW245012   2.651   9.276   7.328
10984SOL     OW45013   3.517   9.867   6.514
10984SOL    HW145014   3.502   9.958   6.551
10984SOL    HW245015   3.587   9.820   6.568
10985SOL     OW45016   3.217   9.239   6.390
10985SOL    HW145017   3.166   9.323   6.372
10985SOL    HW245018   3.303   9.241   6.339
10986SOL     OW45019   3.572   9.445   7.319
10986SOL    HW145020   3.549   9.466   7.414
10986SOL    HW245021   3.548   9.350   7.299
10987SOL     OW45022   2.196   9.437   6.384
10987SOL    HW145023   2.248   9.477   6.459
10987SOL    HW245024   2.249   9.364   6.341
10988SOL     OW45025   2.180   9.485   6.718
10988SOL    HW145026   2.145   9.392   6.718
10988SOL    HW245027   2.267   9.488   6.669
10989SOL     OW45028   2.852  10.361   6.855
10989SOL    HW145029   2.902  10.276   6.839
10989SOL    HW245030   2.806  10.388   6.770
10990SOL     OW45031   3.210   9.652   5.959
10990SOL    HW145032   3.147   9.710   5.907
10990SOL    HW245033   3.303   9.686   5.947
10991SOL     OW45034   2.107   9.853   7.059
10991SOL    HW145035   2.127   9.758   7.034
10991SOL    HW245036   2.070   9.856   7.152
10992SOL     OW45037   1.989   9.508   6.949
10992SOL    HW145038   2.061   9.518   6.880
10992SOL    HW245039   1.900   9.507   6.904
10993SOL     OW45040   2.887  10.129   6.714
10993SOL    HW145041   2.881  10.115   6.615
10993SOL    HW245042   2.806  10.090   6.758
10994SOL     OW45043   3.478   9.663   6.029
10994SOL    HW145044   3.574   9.634   6.026
10994SOL    HW245045   3.439   9.641   6.118
10995SOL     OW45046   2.712   9.604   5.751
10995SOL    HW145047   2.621   9.617   5.789
10995SOL    HW245048   2.772   9.564   5.821
10996SOL     OW45049   2.770  10.234   6.108
10996SOL    HW145050   2.757  10.145   6.065
10996SOL    HW245051   2.701  10.248   6.179
10997SOL     OW45052   1.881   9.539   6.011
10997SOL    HW145053   1.941   9.490   5.949
10997SOL    HW245054   1.936   9.591   6.076
10998SOL     OW45055   2.668  10.004   6.860
10998SOL    HW145056   2.670  10.090   6.911
10998SOL    HW245057   2.725   9.936   6.907
10999SOL     OW45058   2.208   9.768   6.464
10999SOL    HW145059   2.264   9.761   6.381
10999SOL    HW245060   2.265   9.746   6.544
11000SOL     OW45061   2.637   9.288   5.934
11000SOL    HW145062   2.598   9.277   5.843
11000SOL    HW245063   2.593   9.364   5.981
11001SOL     OW45064   3.412   9.552   7.112
11001SOL    HW145065   3.351   9.630   7.109
11001SOL    HW245066   3.467   9.556   7.195
11002SOL     OW45067   3.128   9.498   6.403
11002SOL    HW145068   3.127   9.576   6.340
11002SOL    HW245069   3.171   9.525   6.489
11003SOL     OW45070   3.248   9.304   5.699
11003SOL    HW145071   3.328   9.244   5.696
11003SOL    HW245072   3.174   9.257   5.747
11004SOL     OW45073   3.461   9.276   7.133
11004SOL    HW145074   3.487   9.233   7.047
11004SOL    HW245075   3.411   9.360   7.115
11005SOL     OW45076   2.563   9.535   6.265
11005SOL    HW145077   2.552   9.477   6.346
11005SOL    HW245078   2.648   9.587   6.273
11006SOL     OW45079   3.143   9.886   6.657
11006SOL    HW145080   3.197   9.926   6.583
11006SOL    HW245081   3.181   9.915   6.745
11007SOL     OW45082   3.436   9.292   5.973
11007SOL    HW145083   3.443   9.246   5.885
11007SOL    HW245084   3.340   9.302   5.998
11008SOL     OW45085   3.035   9.830   6.375
11008SOL    HW145086   3.117   9.807   6.323
11008SOL    HW245087   3.030   9.771   6.456
11009SOL     OW45088   3.206   9.630   6.630
11009SOL    HW145089   3.180   9.727   6.636
11009SOL    HW245090   3.206   9.590   6.722
11010SOL     OW45091   3.436   9.762   7.381
11010SOL    HW145092   3.516   9.787   7.325
11010SOL    HW245093   3.467   9.727   7.469
11011SOL     OW45094   3.454   9.518   5.755
11011SOL    HW145095   3.459   9.560   5.846
11011SOL    HW245096   3.387   9.443   5.757
11012SOL     OW45097   1.992   9.528   7.240
11012SOL    HW145098   2.010   9.517   7.142
11012SOL    HW245099   1.894   9.524   7.257
11013SOL     OW45100   2.040   9.598   6.208
11013SOL    HW145101   1.983   9.653   6.269
11013SOL    HW245102   2.110   9.550   6.261
11014SOL     OW45103   2.177   9.789   5.806
11014SOL    HW145104   2.249   9.818   5.743
11014SOL    HW245105   2.133   9.869   5.846
11015SOL     OW45106   3.563   9.451   6.909
11015SOL    HW145107   3.519   9.499   6.985
11015SOL    HW245108   3.541   9.497   6.823
11016SOL     OW45109   2.069   9.516   5.770
11016SOL    HW145110   2.113   9.485   5.687
11016SOL    HW245111   2.070   9.616   5.774
11017SOL     OW45112   1.922   9.768   6.381
11017SOL    HW145113   1.886   9.861   6.373
11017SOL    HW245114   2.005   9.769   6.437
11018SOL     OW45115   2.983   9.947   5.583
11018SOL    HW145116   2.914  10.004   5.539
11018SOL    HW245117   3.064   9.941   5.524
11019SOL     OW45118   2.718   9.866   5.726
11019SOL    HW145119   2.808   9.867   5.681
11019SOL    HW245120   2.695   9.772   5.751
11020SOL     OW45121   3.169   9.383   6.020
11020SOL    HW145122   3.079   9.367   6.061
11020SOL    HW245123   3.177   9.479   5.994
11021SOL     OW45124   3.283   9.783   7.036
11021SOL    HW145125   3.235   9.806   7.120
11021SOL    HW245126   3.217   9.753   6.967
11022SOL     OW45127   1.918   9.298   5.680
11022SOL    HW145128   1.981   9.221   5.688
11022SOL    HW245129   1.938   9.366   5.751
11023SOL     OW45130   2.472   9.886   6.703
11023SOL    HW145131   2.547   9.929   6.752
11023SOL    HW245132   2.405   9.851   6.769
11024SOL     OW45133   2.936   9.458   6.176
11024SOL    HW145134   2.995   9.518   6.231
11024SOL    HW245135   2.863   9.422   6.233
11025SOL     OW45136   2.464   9.335   6.447
11025SOL    HW145137   2.392   9.268   6.433
11025SOL    HW245138   2.546   9.289   6.482
11026SOL     OW45139   1.890  10.202   6.687
11026SOL    HW145140   1.979  10.180   6.727
11026SOL    HW245141   1.835  10.118   6.683
11027SOL     OW45142   2.118   9.247   5.967
11027SOL    HW145143   2.156   9.335   5.994
11027SOL    HW245144   2.041   9.223   6.027
11028SOL     OW45145   3.637   9.446   6.388
11028SOL    HW145146   3.592   9.428   6.475
11028SOL    HW245147   3.735   9.463   6.404
11029SOL     OW45148   3.023   9.845   5.849
11029SOL    HW145149   3.075   9.917   5.895
11029SOL    HW245150   3.036   9.852   5.751
11030SOL     OW45151   2.141  10.102   6.916
11030SOL    HW145152   2.105  10.012   6.942
11030SOL    HW245153   2.102  10.172   6.976
11031SOL     OW45154   2.309   9.684   7.321
11031SOL    HW145155   2.345   9.631   7.244
11031SOL    HW245156   2.370   9.761   7.339
11032SOL     OW45157   2.373  10.101   5.893
11032SOL    HW145158   2.323  10.166   5.837
11032SOL    HW245159   2.315  10.022   5.912
11033SOL     OW45160   3.146   9.575   6.887
11033SOL    HW145161   3.217   9.547   6.951
11033SOL    HW245162   3.093   9.495   6.859
11034SOL     OW45163   1.847   9.274   6.088
11034SOL    HW145164   1.760   9.261   6.041
11034SOL    HW245165   1.855   9.369   6.118
11035SOL     OW45166   3.068   9.375   7.329
11035SOL    HW145167   3.127   9.391   7.409
11035SOL    HW245168   3.015   9.458   7.310
11036SOL     OW45169   2.890   9.794   6.645
11036SOL    HW145170   2.976   9.845   6.644
11036SOL    HW245171   2.896   9.720   6.712
11037SOL     OW45172   2.839   9.409   6.434
11037SOL    HW145173   2.935   9.410   6.462
11037SOL    HW245174   2.784   9.366   6.506
11038SOL     OW45175   3.492   9.682   6.314
11038SOL    HW145176   3.511   9.768   6.361
11038SOL    HW245177   3.560   9.613   6.342
11039SOL     OW45178   2.706   9.330   5.652
11039SOL    HW145179   2.781   9.264   5.664
11039SOL    HW245180   2.737   9.421   5.680
11040SOL     OW45181   2.385   9.759   6.264
11040SOL    HW145182   2.423   9.670   6.290
11040SOL    HW245183   2.452   9.809   6.209
11041SOL     OW45184   2.065   9.828   7.325
11041SOL    HW145185   2.082   9.729   7.330
11041SOL    HW245186   2.129   9.876   7.386
11042SOL     OW45187   2.634   9.742   6.544
11042SOL    HW145188   2.726   9.770   6.571
11042SOL    HW245189   2.566   9.793   6.598
11043SOL     OW45190   2.053   9.935   6.685
11043SOL    HW145191   2.091   9.994   6.756
11043SOL    HW245192   2.036   9.988   6.603
11044SOL     OW45193   2.528   9.601   6.000
11044SOL    HW145194   2.430   9.595   5.980
11044SOL    HW245195   2.547   9.558   6.088
11045SOL     OW45196   3.448   9.284   6.259
11045SOL    HW145197   3.443   9.325   6.168
11045SOL    HW245198   3.529   9.318   6.306
11046SOL     OW45199   3.213   9.692   6.241
11046SOL    HW145200   3.212   9.684   6.142
11046SOL    HW245201   3.302   9.664   6.276
11047SOL     OW45202   3.531   9.786   8.796
11047SOL    HW145203   3.433   9.778   8.818
11047SOL    HW245204   3.584   9.775   8.880
11048SOL     OW45205   2.198   9.423   7.401
11048SOL    HW145206   2.111   9.420   7.352
11048SOL    HW245207   2.249   9.505   7.373
11049SOL     OW45208   3.063   9.323   8.734
11049SOL    HW145209   2.987   9.278   8.781
11049SOL    HW245210   3.092   9.268   8.656
11050SOL     OW45211   2.426   9.310   7.527
11050SOL    HW145212   2.514   9.338   7.488
11050SOL    HW245213   2.354   9.373   7.497
11051SOL     OW45214   2.562   9.856   7.931
11051SOL    HW145215   2.601   9.926   7.872
11051SOL    HW245216   2.536   9.776   7.877
11052SOL     OW45217   2.416   9.575   8.394
11052SOL    HW145218   2.492   9.640   8.390
11052SOL    HW245219   2.446   9.486   8.361
11053SOL     OW45220   3.503   9.521   8.502
11053SOL    HW145221   3.554   9.593   8.455
11053SOL    HW245222   3.408   9.548   8.511
11054SOL     OW45223   2.903   9.550   7.771
11054SOL    HW145224   2.928   9.644   7.792
11054SOL    HW245225   2.904   9.496   7.855
11055SOL     OW45226   2.353   9.908   7.499
11055SOL    HW145227   2.313   9.987   7.452
11055SOL    HW245228   2.442   9.887   7.459
11056SOL     OW45229   2.868   9.864   8.951
11056SOL    HW145230   2.901   9.781   8.998
11056SOL    HW245231   2.941   9.932   8.950
11057SOL     OW45232   3.061   9.540   7.560
11057SOL    HW145233   3.155   9.510   7.578
11057SOL    HW245234   3.009   9.540   7.646
11058SOL     OW45235   2.213   9.745   8.655
11058SOL    HW145236   2.203   9.658   8.607
11058SOL    HW245237   2.149   9.812   8.618
11059SOL     OW45238   3.295  10.025   8.693
11059SOL    HW145239   3.299  10.119   8.658
11059SOL    HW245240   3.388   9.994   8.715
11060SOL     OW45241   2.248   9.517   7.814
11060SOL    HW145242   2.202   9.557   7.893
11060SOL    HW245243   2.196   9.536   7.732
11061SOL     OW45244   3.671   9.762   8.581
11061SOL    HW145245   3.728   9.844   8.583
11061SOL    HW245246   3.612   9.761   8.661
11062SOL     OW45247   2.801   9.728   8.056
11062SOL    HW145248   2.877   9.756   8.115
11062SOL    HW245249   2.757   9.808   8.017
11063SOL     OW45250   2.878   9.614   9.194
11063SOL    HW145251   2.941   9.619   9.271
11063SOL    HW245252   2.786   9.592   9.227
11064SOL     OW45253   3.619   9.861   7.652
11064SOL    HW145254   3.640   9.780   7.598
11064SOL    HW245255   3.636   9.842   7.749
11065SOL     OW45256   2.594   9.266   9.092
11065SOL    HW145257   2.601   9.172   9.059
11065SOL    HW245258   2.651   9.276   9.174
11066SOL     OW45259   3.517   9.867   8.360
11066SOL    HW145260   3.502   9.958   8.397
11066SOL    HW245261   3.587   9.820   8.414
11067SOL     OW45262   3.217   9.239   8.236
11067SOL    HW145263   3.166   9.323   8.218
11067SOL    HW245264   3.303   9.241   8.185
11068SOL     OW45265   3.572   9.445   9.165
11068SOL    HW145266   3.549   9.466   9.260
11068SOL    HW245267   3.548   9.350   9.145
11069SOL     OW45268   2.196   9.437   8.230
11069SOL    HW145269   2.248   9.477   8.305
11069SOL    HW245270   2.249   9.364   8.187
11070SOL     OW45271   2.180   9.485   8.564
11070SOL    HW145272   2.145   9.392   8.564
11070SOL    HW245273   2.267   9.488   8.515
11071SOL     OW45274   2.852  10.361   8.701
11071SOL    HW145275   2.902  10.276   8.685
11071SOL    HW245276   2.806  10.388   8.616
11072SOL     OW45277   3.210   9.652   7.805
11072SOL    HW145278   3.147   9.710   7.753
11072SOL    HW245279   3.303   9.686   7.793
11073SOL     OW45280   2.107   9.853   8.905
11073SOL    HW145281   2.127   9.758   8.880
11073SOL    HW245282   2.070   9.856   8.998
11074SOL     OW45283   1.989   9.508   8.795
11074SOL    HW145284   2.061   9.518   8.726
11074SOL    HW245285   1.900   9.507   8.750
11075SOL     OW45286   2.887  10.129   8.560
11075SOL    HW145287   2.881  10.115   8.461
11075SOL    HW245288   2.806  10.090   8.604
11076SOL     OW45289   3.478   9.663   7.875
11076SOL    HW145290   3.574   9.634   7.872
11076SOL    HW245291   3.439   9.641   7.964
11077SOL     OW45292   2.712   9.604   7.597
11077SOL    HW145293   2.621   9.617   7.635
11077SOL    HW245294   2.772   9.564   7.667
11078SOL     OW45295   2.770  10.234   7.954
11078SOL    HW145296   2.757  10.145   7.911
11078SOL    HW245297   2.701  10.248   8.025
11079SOL     OW45298   1.881   9.539   7.857
11079SOL    HW145299   1.941   9.490   7.795
11079SOL    HW245300   1.936   9.591   7.922
11080SOL     OW45301   2.668  10.004   8.706
11080SOL    HW145302   2.670  10.090   8.757
11080SOL    HW245303   2.725   9.936   8.753
11081SOL     OW45304   2.208   9.768   8.310
11081SOL    HW145305   2.264   9.761   8.227
11081SOL    HW245306   2.265   9.746   8.390
11082SOL     OW45307   2.637   9.288   7.780
11082SOL    HW145308   2.598   9.277   7.689
11082SOL    HW245309   2.593   9.364   7.827
11083SOL     OW45310   3.412   9.552   8.958
11083SOL    HW145311   3.351   9.630   8.955
11083SOL    HW245312   3.467   9.556   9.041
11084SOL     OW45313   3.128   9.498   8.249
11084SOL    HW145314   3.127   9.576   8.186
11084SOL    HW245315   3.171   9.525   8.335
11085SOL     OW45316   3.248   9.304   7.545
11085SOL    HW145317   3.328   9.244   7.542
11085SOL    HW245318   3.174   9.257   7.593
11086SOL     OW45319   3.461   9.276   8.979
11086SOL    HW145320   3.487   9.233   8.893
11086SOL    HW245321   3.411   9.360   8.961
11087SOL     OW45322   2.563   9.535   8.111
11087SOL    HW145323   2.552   9.477   8.192
11087SOL    HW245324   2.648   9.587   8.119
11088SOL     OW45325   3.143   9.886   8.503
11088SOL    HW145326   3.197   9.926   8.429
11088SOL    HW245327   3.181   9.915   8.591
11089SOL     OW45328   3.436   9.292   7.819
11089SOL    HW145329   3.443   9.246   7.731
11089SOL    HW245330   3.340   9.302   7.844
11090SOL     OW45331   3.035   9.830   8.221
11090SOL    HW145332   3.117   9.807   8.169
11090SOL    HW245333   3.030   9.771   8.302
11091SOL     OW45334   3.635   9.857   9.057
11091SOL    HW145335   3.624   9.943   9.006
11091SOL    HW245336   3.729   9.848   9.087
11092SOL     OW45337   3.206   9.630   8.476
11092SOL    HW145338   3.180   9.727   8.482
11092SOL    HW245339   3.206   9.590   8.568
11093SOL     OW45340   3.454   9.518   7.601
11093SOL    HW145341   3.459   9.560   7.692
11093SOL    HW245342   3.387   9.443   7.603
11094SOL     OW45343   1.992   9.528   9.086
11094SOL    HW145344   2.010   9.517   8.988
11094SOL    HW245345   1.894   9.524   9.103
11095SOL     OW45346   2.040   9.598   8.054
11095SOL    HW145347   1.983   9.653   8.115
11095SOL    HW245348   2.110   9.550   8.107
11096SOL     OW45349   2.177   9.789   7.652
11096SOL    HW145350   2.249   9.818   7.589
11096SOL    HW245351   2.133   9.869   7.692
11097SOL     OW45352   3.563   9.451   8.755
11097SOL    HW145353   3.519   9.499   8.831
11097SOL    HW245354   3.541   9.497   8.669
11098SOL     OW45355   2.069   9.516   7.616
11098SOL    HW145356   2.113   9.485   7.533
11098SOL    HW245357   2.070   9.616   7.620
11099SOL     OW45358   1.922   9.768   8.227
11099SOL    HW145359   1.886   9.861   8.219
11099SOL    HW245360   2.005   9.769   8.283
11100SOL     OW45361   2.983   9.947   7.429
11100SOL    HW145362   2.914  10.004   7.385
11100SOL    HW245363   3.064   9.941   7.370
11101SOL     OW45364   2.718   9.866   7.572
11101SOL    HW145365   2.808   9.867   7.527
11101SOL    HW245366   2.695   9.772   7.597
11102SOL     OW45367   3.169   9.383   7.866
11102SOL    HW145368   3.079   9.367   7.907
11102SOL    HW245369   3.177   9.479   7.840
11103SOL     OW45370   3.283   9.783   8.882
11103SOL    HW145371   3.235   9.806   8.966
11103SOL    HW245372   3.217   9.753   8.813
11104SOL     OW45373   1.918   9.298   7.526
11104SOL    HW145374   1.981   9.221   7.534
11104SOL    HW245375   1.938   9.366   7.597
11105SOL     OW45376   2.472   9.886   8.549
11105SOL    HW145377   2.547   9.929   8.598
11105SOL    HW245378   2.405   9.851   8.615
11106SOL     OW45379   2.936   9.458   8.022
11106SOL    HW145380   2.995   9.518   8.077
11106SOL    HW245381   2.863   9.422   8.079
11107SOL     OW45382   2.464   9.335   8.293
11107SOL    HW145383   2.392   9.268   8.279
11107SOL    HW245384   2.546   9.289   8.328
11108SOL     OW45385   1.890  10.202   8.533
11108SOL    HW145386   1.979  10.180   8.573
11108SOL    HW245387   1.835  10.118   8.529
11109SOL     OW45388   2.118   9.247   7.813
11109SOL    HW145389   2.156   9.335   7.840
11109SOL    HW245390   2.041   9.223   7.873
11110SOL     OW45391   3.637   9.446   8.234
11110SOL    HW145392   3.592   9.428   8.321
11110SOL    HW245393   3.735   9.463   8.250
11111SOL     OW45394   3.023   9.845   7.695
11111SOL    HW145395   3.075   9.917   7.741
11111SOL    HW245396   3.036   9.852   7.597
11112SOL     OW45397   2.141  10.102   8.762
11112SOL    HW145398   2.105  10.012   8.788
11112SOL    HW245399   2.102  10.172   8.822
11113SOL     OW45400   2.309   9.684   9.167
11113SOL    HW145401   2.345   9.631   9.090
11113SOL    HW245402   2.370   9.761   9.185
11114SOL     OW45403   2.373  10.101   7.739
11114SOL    HW145404   2.323  10.166   7.683
11114SOL    HW245405   2.315  10.022   7.758
11115SOL     OW45406   3.146   9.575   8.733
11115SOL    HW145407   3.217   9.547   8.797
11115SOL    HW245408   3.093   9.495   8.705
11116SOL     OW45409   1.847   9.274   7.934
11116SOL    HW145410   1.760   9.261   7.887
11116SOL    HW245411   1.855   9.369   7.964
11117SOL     OW45412   3.068   9.375   9.175
11117SOL    HW145413   3.127   9.391   9.255
11117SOL    HW245414   3.015   9.458   9.156
11118SOL     OW45415   2.890   9.794   8.491
11118SOL    HW145416   2.976   9.845   8.490
11118SOL    HW245417   2.896   9.720   8.558
11119SOL     OW45418   2.839   9.409   8.280
11119SOL    HW145419   2.935   9.410   8.308
11119SOL    HW245420   2.784   9.366   8.352
11120SOL     OW45421   3.492   9.682   8.160
11120SOL    HW145422   3.511   9.768   8.207
11120SOL    HW245423   3.560   9.613   8.188
11121SOL     OW45424   2.706   9.330   7.498
11121SOL    HW145425   2.781   9.264   7.510
11121SOL    HW245426   2.737   9.421   7.526
11122SOL     OW45427   2.385   9.759   8.110
11122SOL    HW145428   2.423   9.670   8.136
11122SOL    HW245429   2.452   9.809   8.055
11123SOL     OW45430   2.065   9.828   9.171
11123SOL    HW145431   2.082   9.729   9.176
11123SOL    HW245432   2.129   9.876   9.232
11124SOL     OW45433   2.634   9.742   8.390
11124SOL    HW145434   2.726   9.770   8.417
11124SOL    HW245435   2.566   9.793   8.444
11125SOL     OW45436   2.053   9.935   8.531
11125SOL    HW145437   2.091   9.994   8.602
11125SOL    HW245438   2.036   9.988   8.449
11126SOL     OW45439   2.528   9.601   7.846
11126SOL    HW145440   2.430   9.595   7.826
11126SOL    HW245441   2.547   9.558   7.934
11127SOL     OW45442   3.448   9.284   8.105
11127SOL    HW145443   3.443   9.325   8.014
11127SOL    HW245444   3.529   9.318   8.152
11128SOL     OW45445   3.213   9.692   8.087
11128SOL    HW145446   3.212   9.684   7.988
11128SOL    HW245447   3.302   9.664   8.122
11129SOL     OW45448   2.198   9.423   9.246
11129SOL    HW145449   2.111   9.420   9.197
11129SOL    HW245450   2.249   9.505   9.218
11130SOL     OW45451   2.426   9.310   9.372
11130SOL    HW145452   2.514   9.338   9.333
11130SOL    HW245453   2.354   9.373   9.342
11131SOL     OW45454   2.562   9.856   9.776
11131SOL    HW145455   2.601   9.926   9.717
11131SOL    HW245456   2.536   9.776   9.722
11132SOL     OW45457   2.903   9.550   9.616
11132SOL    HW145458   2.928   9.644   9.637
11132SOL    HW245459   2.904   9.496   9.700
11133SOL     OW45460   2.353   9.908   9.344
11133SOL    HW145461   2.313   9.987   9.297
11133SOL    HW245462   2.442   9.887   9.304
11134SOL     OW45463   3.061   9.540   9.405
11134SOL    HW145464   3.155   9.510   9.423
11134SOL    HW245465   3.009   9.540   9.491
11135SOL     OW45466   2.248   9.517   9.659
11135SOL    HW145467   2.202   9.557   9.738
11135SOL    HW245468   2.196   9.536   9.577
11136SOL     OW45469   2.801   9.728   9.901
11136SOL    HW145470   2.877   9.756   9.960
11136SOL    HW245471   2.757   9.808   9.862
11137SOL     OW45472   2.712   9.604   9.442
11137SOL    HW145473   2.621   9.617   9.480
11137SOL    HW245474   2.772   9.564   9.512
11138SOL     OW45475   2.770  10.234   9.799
11138SOL    HW145476   2.757  10.145   9.756
11138SOL    HW245477   2.701  10.248   9.870
11139SOL     OW45478   1.881   9.539   9.702
11139SOL    HW145479   1.941   9.490   9.640
11139SOL    HW245480   1.936   9.591   9.767
11140SOL     OW45481   2.637   9.288   9.625
11140SOL    HW145482   2.598   9.277   9.534
11140SOL    HW245483   2.593   9.364   9.672
11141SOL     OW45484   3.248   9.304   9.390
11141SOL    HW145485   3.328   9.244   9.387
11141SOL    HW245486   3.174   9.257   9.438
11142SOL     OW45487   2.563   9.535   9.956
11142SOL    HW145488   2.552   9.477  10.037
11142SOL    HW245489   2.648   9.587   9.964
11143SOL     OW45490   3.436   9.292   9.664
11143SOL    HW145491   3.443   9.246   9.576
11143SOL    HW245492   3.340   9.302   9.689
11144SOL     OW45493   2.177   9.789   9.497
11144SOL    HW145494   2.249   9.818   9.434
11144SOL    HW245495   2.133   9.869   9.537
11145SOL     OW45496   2.069   9.516   9.461
11145SOL    HW145497   2.113   9.485   9.378
11145SOL    HW245498   2.070   9.616   9.465
11146SOL     OW45499   1.922   9.768  10.072
11146SOL    HW145500   1.886   9.861  10.064
11146SOL    HW245501   2.005   9.769  10.128
11147SOL     OW45502   2.983   9.947   9.274
11147SOL    HW145503   2.914  10.004   9.230
11147SOL    HW245504   3.064   9.941   9.215
11148SOL     OW45505   2.718   9.866   9.417
11148SOL    HW145506   2.808   9.867   9.372
11148SOL    HW245507   2.695   9.772   9.442
11149SOL     OW45508   3.169   9.383   9.711
11149SOL    HW145509   3.079   9.367   9.752
11149SOL    HW245510   3.177   9.479   9.685
11150SOL     OW45511   1.918   9.298   9.371
11150SOL    HW145512   1.981   9.221   9.379
11150SOL    HW245513   1.938   9.366   9.442
11151SOL     OW45514   2.936   9.458   9.867
11151SOL    HW145515   2.995   9.518   9.922
11151SOL    HW245516   2.863   9.422   9.924
11152SOL     OW45517   2.118   9.247   9.658
11152SOL    HW145518   2.156   9.335   9.685
11152SOL    HW245519   2.041   9.223   9.718
11153SOL     OW45520   3.637   9.446  10.079
11153SOL    HW145521   3.592   9.428  10.166
11153SOL    HW245522   3.735   9.463  10.095
11154SOL     OW45523   3.023   9.845   9.540
11154SOL    HW145524   3.075   9.917   9.586
11154SOL    HW245525   3.036   9.852   9.442
11155SOL     OW45526   2.373  10.101   9.584
11155SOL    HW145527   2.323  10.166   9.528
11155SOL    HW245528   2.315  10.022   9.603
11156SOL     OW45529   1.847   9.274   9.779
11156SOL    HW145530   1.760   9.261   9.732
11156SOL    HW245531   1.855   9.369   9.809
11157SOL     OW45532   2.706   9.330   9.343
11157SOL    HW145533   2.781   9.264   9.355
11157SOL    HW245534   2.737   9.421   9.371
11158SOL     OW45535   2.385   9.759   9.955
11158SOL    HW145536   2.423   9.670   9.981
11158SOL    HW245537   2.452   9.809   9.900
11159SOL     OW45538   2.528   9.601   9.691
11159SOL    HW145539   2.430   9.595   9.671
11159SOL    HW245540   2.547   9.558   9.779
11160SOL     OW45541   4.786   1.481   0.692
11160SOL    HW145542   4.877   1.515   0.715
11160SOL    HW245543   4.758   1.519   0.604
11161SOL     OW45544   4.044   0.196   0.019
11161SOL    HW145545   3.957   0.193  -0.030
11161SOL    HW245546   4.095   0.278  -0.009
11162SOL     OW45547   5.031   1.585   0.794
11162SOL    HW145548   5.020   1.682   0.817
11162SOL    HW245549   5.124   1.568   0.764
11163SOL     OW45550   4.909   0.096   1.352
11163SOL    HW145551   4.833   0.051   1.399
11163SOL    HW245552   4.938   0.041   1.274
11164SOL     OW45553   4.647   0.876   1.729
11164SOL    HW145554   4.612   0.851   1.639
11164SOL    HW245555   4.571   0.897   1.790
11165SOL     OW45556   4.254   1.550   0.423
11165SOL    HW145557   4.210   1.559   0.512
11165SOL    HW245558   4.325   1.480   0.427
11166SOL     OW45559   4.272   0.083   0.145
11166SOL    HW145560   4.360   0.111   0.106
11166SOL    HW245561   4.200   0.146   0.115
11167SOL     OW45562   5.242   1.068   1.528
11167SOL    HW145563   5.150   1.073   1.490
11167SOL    HW245564   5.307   1.106   1.462
11168SOL     OW45565   5.142   1.075   1.209
11168SOL    HW145566   5.067   1.064   1.274
11168SOL    HW245567   5.179   1.168   1.215
11169SOL     OW45568   4.638   1.330   1.509
11169SOL    HW145569   4.581   1.393   1.455
11169SOL    HW245570   4.671   1.256   1.450
11170SOL     OW45571   4.181   1.223   0.718
11170SOL    HW145572   4.114   1.177   0.777
11170SOL    HW245573   4.273   1.191   0.741
11171SOL     OW45574   4.408   0.629   0.549
11171SOL    HW145575   4.447   0.699   0.490
11171SOL    HW245576   4.382   0.549   0.495
11172SOL     OW45577   5.028   0.537   1.758
11172SOL    HW145578   5.124   0.541   1.784
11172SOL    HW245579   4.984   0.461   1.805
11173SOL     OW45580   4.111   1.392   0.202
11173SOL    HW145581   4.175   1.408   0.127
11173SOL    HW245582   4.135   1.450   0.280
11174SOL     OW45583   4.262   0.348   1.012
11174SOL    HW145584   4.338   0.413   1.008
11174SOL    HW245585   4.292   0.259   0.979
11175SOL     OW45586   3.959   0.774   0.430
11175SOL    HW145587   3.974   0.708   0.504
11175SOL    HW245588   3.909   0.853   0.465
11176SOL     OW45589   4.545   1.719   0.607
11176SOL    HW145590   4.610   1.652   0.571
11176SOL    HW245591   4.535   1.795   0.543
11177SOL     OW45592   4.749   0.323   0.389
11177SOL    HW145593   4.774   0.417   0.410
11177SOL    HW245594   4.750   0.269   0.473
11178SOL     OW45595   3.873   1.036   1.574
11178SOL    HW145596   3.969   1.051   1.592
11178SOL    HW245597   3.835   0.974   1.643
11179SOL     OW45598   4.199   0.681   0.117
11179SOL    HW145599   4.159   0.760   0.070
11179SOL    HW245600   4.288   0.660   0.077
11180SOL     OW45601   4.372   1.605   0.815
11180SOL    HW145602   4.445   1.628   0.751
11180SOL    HW245603   4.301   1.552   0.769
11181SOL     OW45604   4.714   0.637   1.569
11181SOL    HW145605   4.747   0.554   1.616
11181SOL    HW245606   4.787   0.705   1.568
11182SOL     OW45607   5.318   1.437   0.791
11182SOL    HW145608   5.314   1.472   0.884
11182SOL    HW245609   5.377   1.496   0.735
11183SOL     OW45610   4.049   1.258   0.467
11183SOL    HW145611   4.095   1.232   0.552
11183SOL    HW245612   4.069   1.190   0.396
11184SOL     OW45613   4.907   0.313   0.178
11184SOL    HW145614   5.001   0.283   0.196
11184SOL    HW245615   4.855   0.313   0.264
11185SOL     OW45616   4.059   0.518   1.273
11185SOL    HW145617   4.049   0.431   1.225
11185SOL    HW245618   3.995   0.585   1.236
11186SOL     OW45619   5.141   0.798   1.311
11186SOL    HW145620   5.145   0.892   1.276
11186SOL    HW245621   5.234   0.767   1.333
11187SOL     OW45622   4.094   0.290   0.432
11187SOL    HW145623   4.048   0.330   0.511
11187SOL    HW245624   4.042   0.309   0.350
11188SOL     OW45625   5.222   1.817   1.344
11188SOL    HW145626   5.165   1.768   1.278
11188SOL    HW245627   5.308   1.844   1.301
11189SOL     OW45628   5.517   0.535   1.199
11189SOL    HW145629   5.574   0.617   1.201
11189SOL    HW245630   5.458   0.534   1.279
11190SOL     OW45631   5.534   1.761   1.112
11190SOL    HW145632   5.580   1.771   1.200
11190SOL    HW245633   5.601   1.764   1.039
11191SOL     OW45634   4.647   0.501   0.674
11191SOL    HW145635   4.723   0.529   0.733
11191SOL    HW245636   4.603   0.581   0.635
11192SOL     OW45637   4.882   0.965   0.191
11192SOL    HW145638   4.919   0.915   0.269
11192SOL    HW245639   4.812   0.910   0.146
11193SOL     OW45640   4.724   0.387   1.812
11193SOL    HW145641   4.787   0.392   1.889
11193SOL    HW245642   4.632   0.365   1.845
11194SOL     OW45643   4.759   1.772   0.178
11194SOL    HW145644   4.793   1.685   0.143
11194SOL    HW245645   4.727   1.760   0.272
11195SOL     OW45646   4.440   0.039   1.710
11195SOL    HW145647   4.447  -0.055   1.677
11195SOL    HW245648   4.497   0.049   1.792
11196SOL     OW45649   5.363   0.640   0.978
11196SOL    HW145650   5.348   0.731   1.015
11196SOL    HW245651   5.433   0.593   1.032
11197SOL     OW45652   4.773   1.306   1.744
11197SOL    HW145653   4.795   1.216   1.706
11197SOL    HW245654   4.708   1.353   1.685
11198SOL     OW45655   4.428   1.148   1.748
11198SOL    HW145656   4.399   1.225   1.805
11198SOL    HW245657   4.438   1.067   1.806
11199SOL     OW45658   5.063   0.012   0.854
11199SOL    HW145659   5.012   0.096   0.836
11199SOL    HW245660   5.149   0.014   0.803
11200SOL     OW45661   5.418   0.218   1.783
11200SOL    HW145662   5.395   0.239   1.878
11200SOL    HW245663   5.394   0.123   1.763
11201SOL     OW45664   3.721   0.622   0.527
11201SOL    HW145665   3.723   0.573   0.614
11201SOL    HW245666   3.723   0.721   0.545
11202SOL     OW45667   4.042   0.210   0.848
11202SOL    HW145668   4.094   0.250   0.923
11202SOL    HW245669   4.095   0.137   0.805
11203SOL     OW45670   4.026   0.258   1.182
11203SOL    HW145671   3.991   0.165   1.182
11203SOL    HW245672   4.113   0.261   1.133
11204SOL     OW45673   4.693   0.880   0.922
11204SOL    HW145674   4.719   0.960   0.868
11204SOL    HW245675   4.687   0.800   0.862
11205SOL     OW45676   3.894   1.507   0.381
11205SOL    HW145677   3.921   1.413   0.401
11205SOL    HW245678   3.919   1.529   0.287
11206SOL     OW45679   5.176   1.376   1.255
11206SOL    HW145680   5.147   1.413   1.166
11206SOL    HW245681   5.098   1.376   1.317
11207SOL     OW45682   3.908   1.650   0.618
11207SOL    HW145683   3.824   1.701   0.636
11207SOL    HW245684   3.899   1.599   0.533
11208SOL     OW45685   5.429   1.447   1.293
11208SOL    HW145686   5.460   1.461   1.387
11208SOL    HW245687   5.330   1.434   1.292
11209SOL     OW45688   4.181   0.947   0.020
11209SOL    HW145689   4.150   0.981  -0.068
11209SOL    HW245690   4.185   1.022   0.086
11210SOL     OW45691   4.698   1.134   1.319
11210SOL    HW145692   4.748   1.049   1.303
11210SOL    HW245693   4.652   1.161   1.234
11211SOL     OW45694   3.785   0.839   0.193
11211SOL    HW145695   3.845   0.786   0.253
11211SOL    HW245696   3.691   0.807   0.205
11212SOL     OW45697   5.305   0.837   0.393
11212SOL    HW145698   5.373   0.771   0.360
11212SOL    HW245699   5.320   0.925   0.349
11213SOL     OW45700   4.553   1.824   1.041
11213SOL    HW145701   4.599   1.757   0.983
11213SOL    HW245702   4.479   1.780   1.091
11214SOL     OW45703   4.460   0.893   0.077
11214SOL    HW145704   4.489   0.812   0.128
11214SOL    HW245705   4.360   0.892   0.068
11215SOL     OW45706   5.056   0.425   0.423
11215SOL    HW145707   4.993   0.483   0.371
11215SOL    HW245708   5.149   0.459   0.411
11216SOL     OW45709   3.953   0.626   1.523
11216SOL    HW145710   3.973   0.531   1.498
11216SOL    HW245711   3.916   0.629   1.616
11217SOL     OW45712   3.835   0.281   1.413
11217SOL    HW145713   3.907   0.291   1.344
11217SOL    HW245714   3.746   0.280   1.368
11218SOL     OW45715   4.733   0.902   1.178
11218SOL    HW145716   4.727   0.888   1.079
11218SOL    HW245717   4.652   0.863   1.222
11219SOL     OW45718   5.324   0.436   0.493
11219SOL    HW145719   5.420   0.407   0.490
11219SOL    HW245720   5.285   0.414   0.582
11220SOL     OW45721   4.608   1.511   0.930
11220SOL    HW145722   4.666   1.522   0.849
11220SOL    HW245723   4.514   1.535   0.908
11221SOL     OW45724   4.558   0.377   0.215
11221SOL    HW145725   4.467   0.390   0.253
11221SOL    HW245726   4.618   0.337   0.285
11222SOL     OW45727   4.669   1.322   0.150
11222SOL    HW145728   4.722   1.262   0.210
11222SOL    HW245729   4.708   1.323   0.059
11223SOL     OW45730   5.420   1.617   0.635
11223SOL    HW145731   5.387   1.710   0.654
11223SOL    HW245732   5.418   1.601   0.536
11224SOL     OW45733   4.835   0.890   0.624
11224SOL    HW145734   4.900   0.918   0.695
11224SOL    HW245735   4.756   0.951   0.626
11225SOL     OW45736   4.583   1.616   1.648
11225SOL    HW145737   4.571   1.547   1.577
11225SOL    HW245738   4.546   1.581   1.735
11226SOL     OW45739   5.027   0.930   0.827
11226SOL    HW145740   5.048   0.872   0.905
11226SOL    HW245741   5.036   1.026   0.853
11227SOL     OW45742   3.983   1.059   0.873
11227SOL    HW145743   3.906   1.121   0.866
11227SOL    HW245744   4.020   1.060   0.966
11228SOL     OW45745   4.616   1.007   0.572
11228SOL    HW145746   4.603   0.918   0.529
11228SOL    HW245747   4.547   1.021   0.643
11229SOL     OW45748   4.920   1.395   1.411
11229SOL    HW145749   4.953   1.480   1.452
11229SOL    HW245750   4.821   1.391   1.418
11230SOL     OW45751   3.727   0.312   0.475
11230SOL    HW145752   3.787   0.263   0.413
11230SOL    HW245753   3.782   0.364   0.540
11231SOL     OW45754   4.514   0.777   1.324
11231SOL    HW145755   4.516   0.863   1.375
11231SOL    HW245756   4.571   0.709   1.371
11232SOL     OW45757   3.751   1.804   1.395
11232SOL    HW145758   3.759   1.904   1.393
11232SOL    HW245759   3.727   1.775   1.488
11233SOL     OW45760   4.532   0.823   0.389
11233SOL    HW145761   4.443   0.851   0.354
11233SOL    HW245762   4.573   0.757   0.325
11234SOL     OW45763   4.054   0.541   0.928
11234SOL    HW145764   4.110   0.534   0.845
11234SOL    HW245765   4.111   0.519   1.008
11235SOL     OW45766   4.051   1.739   0.199
11235SOL    HW145767   4.143   1.769   0.174
11235SOL    HW245768   4.026   1.778   0.288
11236SOL     OW45769   5.027   1.761   1.136
11236SOL    HW145770   5.046   1.824   1.062
11236SOL    HW245771   5.035   1.667   1.103
11237SOL     OW45772   3.732   1.156   0.948
11237SOL    HW145773   3.642   1.172   0.909
11237SOL    HW245774   3.730   1.072   1.003
11238SOL     OW45775   4.483   0.061   0.398
11238SOL    HW145776   4.444   0.050   0.307
11238SOL    HW245777   4.439   0.137   0.445
11239SOL     OW45778   3.728   1.197   0.492
11239SOL    HW145779   3.806   1.255   0.516
11239SOL    HW245780   3.747   1.148   0.407
11240SOL     OW45781   4.974   0.271   0.867
11240SOL    HW145782   4.973   0.349   0.804
11240SOL    HW245783   5.017   0.298   0.953
11241SOL     OW45784   5.094   0.077   0.163
11241SOL    HW145785   5.174   0.017   0.160
11241SOL    HW245786   5.020   0.030   0.211
11242SOL     OW45787   4.409   0.308   0.729
11242SOL    HW145788   4.398   0.250   0.810
11242SOL    HW245789   4.494   0.360   0.737
11243SOL     OW45790   4.989   0.659   1.121
11243SOL    HW145791   5.043   0.699   1.047
11243SOL    HW245792   5.027   0.688   1.209
11244SOL     OW45793   5.282   0.065   0.437
11244SOL    HW145794   5.289   0.019   0.349
11244SOL    HW245795   5.186   0.075   0.462
11245SOL     OW45796   4.258   1.380   1.800
11245SOL    HW145797   4.219   1.443   1.733
11245SOL    HW245798   4.341   1.420   1.840
11246SOL     OW45799   4.134   1.112   1.632
11246SOL    HW145800   4.153   1.136   1.537
11246SOL    HW245801   4.127   1.195   1.687
11247SOL     OW45802   3.795   1.402   1.106
11247SOL    HW145803   3.764   1.328   1.047
11247SOL    HW245804   3.727   1.420   1.177
11248SOL     OW45805   4.881   0.603   0.839
11248SOL    HW145806   4.963   0.580   0.787
11248SOL    HW245807   4.876   0.544   0.920
11249SOL     OW45808   5.481   0.630   1.675
11249SOL    HW145809   5.470   0.716   1.624
11249SOL    HW245810   5.575   0.621   1.705
11250SOL     OW45811   5.282   0.535   1.845
11250SOL    HW145812   5.362   0.560   1.789
11250SOL    HW245813   5.313   0.500   1.933
11251SOL     OW45814   4.993   0.838   0.425
11251SOL    HW145815   4.939   0.836   0.509
11251SOL    HW245816   5.070   0.901   0.436
11252SOL     OW45817   5.290   0.934   0.645
11252SOL    HW145818   5.304   0.897   0.552
11252SOL    HW245819   5.201   0.904   0.679
11253SOL     OW45820   5.446   0.871   1.540
11253SOL    HW145821   5.348   0.892   1.542
11253SOL    HW245822   5.495   0.947   1.499
11254SOL     OW45823   5.300   0.291   0.219
11254SOL    HW145824   5.305   0.333   0.310
11254SOL    HW245825   5.233   0.216   0.221
11255SOL     OW45826   4.447   1.506   1.439
11255SOL    HW145827   4.384   1.584   1.446
11255SOL    HW245828   4.415   1.444   1.367
11256SOL     OW45829   3.838   0.301   1.704
11256SOL    HW145830   3.856   0.290   1.606
11256SOL    HW245831   3.740   0.297   1.721
11257SOL     OW45832   3.718   1.715   1.648
11257SOL    HW145833   3.790   1.701   1.716
11257SOL    HW245834   3.629   1.718   1.693
11258SOL     OW45835   3.886   0.371   0.672
11258SOL    HW145836   3.829   0.426   0.733
11258SOL    HW245837   3.956   0.323   0.725
11259SOL     OW45838   5.058   1.603   1.535
11259SOL    HW145839   5.011   1.671   1.590
11259SOL    HW245840   5.125   1.649   1.476
11260SOL     OW45841   4.023   0.562   0.270
11260SOL    HW145842   4.095   0.591   0.207
11260SOL    HW245843   3.979   0.642   0.310
11261SOL     OW45844   4.138   1.825   0.736
11261SOL    HW145845   4.062   1.791   0.681
11261SOL    HW245846   4.224   1.788   0.701
11262SOL     OW45847   4.063   1.334   1.181
11262SOL    HW145848   4.075   1.350   1.278
11262SOL    HW245849   3.976   1.374   1.151
11263SOL     OW45850   4.947   1.538   1.827
11263SOL    HW145851   4.906   1.453   1.793
11263SOL    HW245852   4.927   1.612   1.763
11264SOL     OW45853   4.437   1.258   0.517
11264SOL    HW145854   4.480   1.189   0.459
11264SOL    HW245855   4.401   1.215   0.600
11265SOL     OW45856   4.069   0.809   0.719
11265SOL    HW145857   4.061   0.907   0.737
11265SOL    HW245858   4.153   0.775   0.760
11266SOL     OW45859   3.915   0.289   0.234
11266SOL    HW145860   3.959   0.258   0.151
11266SOL    HW245861   3.916   0.389   0.238
11267SOL     OW45862   3.768   0.541   0.845
11267SOL    HW145863   3.732   0.634   0.837
11267SOL    HW245864   3.851   0.542   0.901
11268SOL     OW45865   4.203   1.128   0.231
11268SOL    HW145866   4.303   1.128   0.242
11268SOL    HW245867   4.172   1.221   0.210
11269SOL     OW45868   4.829   0.720   0.047
11269SOL    HW145869   4.760   0.777   0.003
11269SOL    HW245870   4.910   0.714  -0.012
11270SOL     OW45871   4.564   0.639   0.190
11270SOL    HW145872   4.654   0.640   0.145
11270SOL    HW245873   4.541   0.545   0.215
11271SOL     OW45874   5.015   0.156   0.484
11271SOL    HW145875   4.925   0.140   0.525
11271SOL    HW245876   5.023   0.252   0.458
11272SOL     OW45877   5.129   0.556   1.500
11272SOL    HW145878   5.081   0.579   1.584
11272SOL    HW245879   5.063   0.526   1.431
11273SOL     OW45880   3.764   0.071   0.144
11273SOL    HW145881   3.827  -0.006   0.152
11273SOL    HW245882   3.784   0.139   0.215
11274SOL     OW45883   4.037   1.046   1.145
11274SOL    HW145884   4.048   1.001   1.234
11274SOL    HW245885   4.064   1.142   1.152
11275SOL     OW45886   4.318   0.659   1.167
11275SOL    HW145887   4.393   0.702   1.216
11275SOL    HW245888   4.251   0.624   1.233
11276SOL     OW45889   4.461   1.028   1.484
11276SOL    HW145890   4.530   1.080   1.434
11276SOL    HW245891   4.456   1.061   1.579
11277SOL     OW45892   4.853   1.049   1.644
11277SOL    HW145893   4.775   0.995   1.677
11277SOL    HW245894   4.934   1.027   1.699
11278SOL     OW45895   4.782   0.231   0.640
11278SOL    HW145896   4.841   0.291   0.695
11278SOL    HW245897   4.709   0.195   0.697
11279SOL     OW45898   4.892   1.763   1.680
11279SOL    HW145899   4.797   1.761   1.648
11279SOL    HW245900   4.913   1.854   1.717
11280SOL     OW45901   4.310   0.108   0.911
11280SOL    HW145902   4.238   0.041   0.897
11280SOL    HW245903   4.392   0.062   0.946
11281SOL     OW45904   4.010   1.773   1.278
11281SOL    HW145905   3.990   1.755   1.182
11281SOL    HW245906   3.937   1.735   1.335
11282SOL     OW45907   4.703   1.237   0.823
11282SOL    HW145908   4.742   1.280   0.742
11282SOL    HW245909   4.776   1.220   0.890
11283SOL     OW45910   4.397   0.965   1.025
11283SOL    HW145911   4.395   0.881   0.970
11283SOL    HW245912   4.346   0.951   1.110
11284SOL     OW45913   3.736   0.975   1.151
11284SOL    HW145914   3.825   0.953   1.191
11284SOL    HW245915   3.681   0.891   1.147
11285SOL     OW45916   3.964   0.020   0.431
11285SOL    HW145917   4.002   0.108   0.458
11285SOL    HW245918   3.887  -0.004   0.491
11286SOL     OW45919   4.380   0.637   1.759
11286SOL    HW145920   4.332   0.688   1.688
11286SOL    HW245921   4.473   0.616   1.729
11287SOL     OW45922   3.786   1.107   0.251
11287SOL    HW145923   3.776   1.010   0.230
11287SOL    HW245924   3.839   1.152   0.179
11288SOL     OW45925   5.483   0.219   0.852
11288SOL    HW145926   5.438   0.201   0.939
11288SOL    HW245927   5.581   0.236   0.868
11289SOL     OW45928   4.531   1.195   1.104
11289SOL    HW145929   4.482   1.110   1.085
11289SOL    HW245930   4.601   1.210   1.035
11290SOL     OW45931   4.869   0.618   0.313
11290SOL    HW145932   4.921   0.690   0.359
11290SOL    HW245933   4.882   0.625   0.215
11291SOL     OW45934   5.230   1.433   1.640
11291SOL    HW145935   5.215   1.335   1.654
11291SOL    HW245936   5.147   1.475   1.604
11292SOL     OW45937   3.987   0.875   1.380
11292SOL    HW145938   3.951   0.785   1.406
11292SOL    HW245939   3.948   0.945   1.440
11293SOL     OW45940   4.489   1.501   0.038
11293SOL    HW145941   4.464   1.578   0.097
11293SOL    HW245942   4.553   1.441   0.086
11294SOL     OW45943   4.307   1.708   1.072
11294SOL    HW145944   4.327   1.678   0.979
11294SOL    HW245945   4.232   1.653   1.109
11295SOL     OW45946   4.450   1.119   0.789
11295SOL    HW145947   4.539   1.165   0.789
11295SOL    HW245948   4.443   1.059   0.868
11296SOL     OW45949   4.628   1.466   0.458
11296SOL    HW145950   4.678   1.454   0.373
11296SOL    HW245951   4.574   1.383   0.477
11297SOL     OW45952   3.818   0.813   0.858
11297SOL    HW145953   3.913   0.804   0.826
11297SOL    HW245954   3.784   0.905   0.837
11298SOL     OW45955   3.755   0.930   1.785
11298SOL    HW145956   3.670   0.881   1.766
11298SOL    HW245957   3.782   0.917   1.880
11299SOL     OW45958   4.652   1.839   1.491
11299SOL    HW145959   4.624   1.752   1.532
11299SOL    HW245960   4.596   1.913   1.528
11300SOL     OW45961   4.881   1.186   1.021
11300SOL    HW145962   4.865   1.280   1.052
11300SOL    HW245963   4.884   1.125   1.101
11301SOL     OW45964   4.155   0.457   1.785
11301SOL    HW145965   4.191   0.404   1.708
11301SOL    HW245966   4.216   0.534   1.803
11302SOL     OW45967   4.219   0.874   0.357
11302SOL    HW145968   4.169   0.939   0.301
11302SOL    HW245969   4.161   0.795   0.376
11303SOL     OW45970   5.300   0.905   1.055
11303SOL    HW145971   5.319   0.944   0.964
11303SOL    HW245972   5.254   0.974   1.111
11304SOL     OW45973   3.693   0.047   0.552
11304SOL    HW145974   3.606   0.034   0.505
11304SOL    HW245975   3.701   0.142   0.582
11305SOL     OW45976   4.130   1.567   1.618
11305SOL    HW145977   4.072   1.632   1.667
11305SOL    HW245978   4.192   1.617   1.558
11306SOL     OW45979   5.486   1.454   1.559
11306SOL    HW145980   5.514   1.547   1.581
11306SOL    HW245981   5.393   1.438   1.592
11307SOL     OW45982   4.736   0.567   1.109
11307SOL    HW145983   4.822   0.618   1.108
11307SOL    HW245984   4.742   0.493   1.176
11308SOL     OW45985   4.140   1.513   0.681
11308SOL    HW145986   4.138   1.414   0.694
11308SOL    HW245987   4.049   1.546   0.658
11309SOL     OW45988   4.781   1.630   1.269
11309SOL    HW145989   4.707   1.694   1.287
11309SOL    HW245990   4.860   1.679   1.231
11310SOL     OW45991   3.990   1.760   1.768
11310SOL    HW145992   4.033   1.844   1.734
11310SOL    HW245993   4.015   1.747   1.864
11311SOL     OW45994   3.850   1.296   1.639
11311SOL    HW145995   3.829   1.201   1.612
11311SOL    HW245996   3.781   1.357   1.601
11312SOL     OW45997   3.939   1.661   1.043
11312SOL    HW145998   3.881   1.581   1.057
11312SOL    HW245999   3.963   1.668   0.946
11313SOL     OW46000   4.685   0.182   0.898
11313SOL    HW146001   4.781   0.183   0.926
11313SOL    HW246002   4.630   0.139   0.970
11314SOL     OW46003   4.747   1.188   0.414
11314SOL    HW146004   4.827   1.224   0.462
11314SOL    HW246005   4.705   1.115   0.470
11315SOL     OW46006   5.338   0.455   0.778
11315SOL    HW146007   5.357   0.541   0.825
11315SOL    HW246008   5.406   0.386   0.806
11316SOL     OW46009   4.481   1.127   0.264
11316SOL    HW146010   4.553   1.186   0.229
11316SOL    HW246011   4.521   1.043   0.300
11317SOL     OW46012   4.552   0.103   0.116
11317SOL    HW146013   4.627   0.037   0.128
11317SOL    HW246014   4.583   0.194   0.144
11318SOL     OW46015   4.231   0.532   0.728
11318SOL    HW146016   4.269   0.443   0.754
11318SOL    HW246017   4.298   0.582   0.673
11319SOL     OW46018   4.219   1.090   1.382
11319SOL    HW146019   4.315   1.070   1.402
11319SOL    HW246020   4.208   1.188   1.364
11320SOL     OW46021   5.441   1.133   1.351
11320SOL    HW146022   5.455   1.231   1.365
11320SOL    HW246023   5.498   1.102   1.275
11321SOL     OW46024   3.924   1.242   0.043
11321SOL    HW146025   3.916   1.254  -0.056
11321SOL    HW246026   3.983   1.313   0.081
11322SOL     OW46027   4.351   1.681   0.203
11322SOL    HW146028   4.326   1.776   0.187
11322SOL    HW246029   4.318   1.653   0.293
11323SOL     OW46030   5.001   1.104   1.427
11323SOL    HW146031   4.945   1.063   1.498
11323SOL    HW246032   4.981   1.202   1.421
11324SOL     OW46033   4.268   1.720   1.427
11324SOL    HW146034   4.317   1.800   1.391
11324SOL    HW246035   4.176   1.718   1.388
11325SOL     OW46036   3.911   0.601   1.789
11325SOL    HW146037   3.928   0.502   1.794
11325SOL    HW246038   3.975   0.649   1.850
11326SOL     OW46039   5.350   1.562   1.028
11326SOL    HW146040   5.322   1.655   1.052
11326SOL    HW246041   5.400   1.521   1.104
11327SOL     OW46042   3.746   0.935   0.589
11327SOL    HW146043   3.753   1.034   0.576
11327SOL    HW246044   3.655   0.912   0.623
11328SOL     OW46045   4.255   0.733   1.527
11328SOL    HW146046   4.161   0.703   1.508
11328SOL    HW246047   4.264   0.830   1.504
11329SOL     OW46048   5.322   1.109   0.839
11329SOL    HW146049   5.284   1.198   0.812
11329SOL    HW246050   5.322   1.047   0.761
11330SOL     OW46051   4.480   0.515   1.008
11330SOL    HW146052   4.572   0.543   1.035
11330SOL    HW246053   4.412   0.566   1.062
11331SOL     OW46054   4.333   1.366   1.235
11331SOL    HW146055   4.246   1.365   1.186
11331SOL    HW246056   4.399   1.306   1.188
11332SOL     OW46057   3.899   0.708   1.149
11332SOL    HW146058   3.937   0.767   1.220
11332SOL    HW246059   3.882   0.761   1.067
11333SOL     OW46060   4.070   1.354   1.447
11333SOL    HW146061   4.089   1.442   1.491
11333SOL    HW246062   3.975   1.328   1.465
11334SOL     OW46063   5.313   1.670   1.795
11334SOL    HW146064   5.282   1.592   1.740
11334SOL    HW246065   5.282   1.755   1.753
11335SOL     OW46066   5.021   1.208   0.516
11335SOL    HW146067   5.120   1.212   0.532
11335SOL    HW246068   5.004   1.194   0.418
11336SOL     OW46069   4.374   0.374   0.464
11336SOL    HW146070   4.276   0.368   0.444
11336SOL    HW246071   4.393   0.331   0.552
11337SOL     OW46072   5.294   0.057   0.723
11337SOL    HW146073   5.289   0.098   0.632
11337SOL    HW246074   5.375   0.091   0.770
11338SOL     OW46075   4.897   0.813   1.416
11338SOL    HW146076   4.996   0.822   1.406
11338SOL    HW246077   4.853   0.815   1.326
11339SOL     OW46078   4.391   0.773   0.818
11339SOL    HW146079   4.413   0.695   0.876
11339SOL    HW246080   4.400   0.747   0.722
11340SOL     OW46081   5.056   1.480   1.030
11340SOL    HW146082   4.970   1.437   1.059
11340SOL    HW246083   5.045   1.520   0.939
11341SOL     OW46084   5.059   0.465   0.705
11341SOL    HW146085   5.058   0.457   0.606
11341SOL    HW246086   5.148   0.437   0.740
11342SOL     OW46087   4.786   1.481   2.537
11342SOL    HW146088   4.877   1.515   2.560
11342SOL    HW246089   4.758   1.519   2.449
11343SOL     OW46090   5.297   1.277   2.395
11343SOL    HW146091   5.308   1.361   2.449
11343SOL    HW246092   5.387   1.240   2.372
11344SOL     OW46093   5.377   0.559   3.259
11344SOL    HW146094   5.279   0.551   3.281
11344SOL    HW246095   5.430   0.548   3.343
11345SOL     OW46096   4.044   0.196   1.864
11345SOL    HW146097   3.957   0.193   1.815
11345SOL    HW246098   4.095   0.278   1.836
11346SOL     OW46099   5.031   1.585   2.639
11346SOL    HW146100   5.020   1.682   2.662
11346SOL    HW246101   5.124   1.568   2.609
11347SOL     OW46102   4.909   0.096   3.197
11347SOL    HW146103   4.833   0.051   3.244
11347SOL    HW246104   4.938   0.041   3.119
11348SOL     OW46105   4.647   0.876   3.574
11348SOL    HW146106   4.612   0.851   3.484
11348SOL    HW246107   4.571   0.897   3.635
11349SOL     OW46108   4.254   1.550   2.268
11349SOL    HW146109   4.210   1.559   2.357
11349SOL    HW246110   4.325   1.480   2.272
11350SOL     OW46111   4.272   0.083   1.990
11350SOL    HW146112   4.360   0.111   1.951
11350SOL    HW246113   4.200   0.146   1.960
11351SOL     OW46114   5.242   1.068   3.373
11351SOL    HW146115   5.150   1.073   3.335
11351SOL    HW246116   5.307   1.106   3.307
11352SOL     OW46117   5.142   1.075   3.054
11352SOL    HW146118   5.067   1.064   3.119
11352SOL    HW246119   5.179   1.168   3.060
11353SOL     OW46120   4.638   1.330   3.354
11353SOL    HW146121   4.581   1.393   3.300
11353SOL    HW246122   4.671   1.256   3.295
11354SOL     OW46123   4.181   1.223   2.563
11354SOL    HW146124   4.114   1.177   2.622
11354SOL    HW246125   4.273   1.191   2.586
11355SOL     OW46126   4.408   0.629   2.394
11355SOL    HW146127   4.447   0.699   2.335
11355SOL    HW246128   4.382   0.549   2.340
11356SOL     OW46129   4.111   1.392   2.047
11356SOL    HW146130   4.175   1.408   1.972
11356SOL    HW246131   4.135   1.450   2.125
11357SOL     OW46132   4.262   0.348   2.857
11357SOL    HW146133   4.338   0.413   2.853
11357SOL    HW246134   4.292   0.259   2.824
11358SOL     OW46135   3.959   0.774   2.275
11358SOL    HW146136   3.974   0.708   2.349
11358SOL    HW246137   3.909   0.853   2.310
11359SOL     OW46138   4.545   1.719   2.452
11359SOL    HW146139   4.610   1.652   2.416
11359SOL    HW246140   4.535   1.795   2.388
11360SOL     OW46141   5.437   1.601   2.194
11360SOL    HW146142   5.533   1.575   2.187
11360SOL    HW246143   5.413   1.661   2.118
11361SOL     OW46144   5.349   0.294   2.965
11361SOL    HW146145   5.400   0.366   2.918
11361SOL    HW246146   5.254   0.321   2.974
11362SOL     OW46147   4.749   0.323   2.234
11362SOL    HW146148   4.774   0.417   2.255
11362SOL    HW246149   4.750   0.269   2.318
11363SOL     OW46150   4.199   0.681   1.962
11363SOL    HW146151   4.159   0.760   1.915
11363SOL    HW246152   4.288   0.660   1.922
11364SOL     OW46153   4.372   1.605   2.660
11364SOL    HW146154   4.445   1.628   2.596
11364SOL    HW246155   4.301   1.552   2.614
11365SOL     OW46156   5.318   1.437   2.636
11365SOL    HW146157   5.314   1.472   2.729
11365SOL    HW246158   5.377   1.496   2.580
11366SOL     OW46159   4.049   1.258   2.312
11366SOL    HW146160   4.095   1.232   2.397
11366SOL    HW246161   4.069   1.190   2.241
11367SOL     OW46162   4.907   0.313   2.023
11367SOL    HW146163   5.001   0.283   2.041
11367SOL    HW246164   4.855   0.313   2.109
11368SOL     OW46165   5.141   0.798   3.156
11368SOL    HW146166   5.145   0.892   3.121
11368SOL    HW246167   5.234   0.767   3.178
11369SOL     OW46168   4.094   0.290   2.277
11369SOL    HW146169   4.048   0.330   2.356
11369SOL    HW246170   4.042   0.309   2.195
11370SOL     OW46171   5.222   1.817   3.189
11370SOL    HW146172   5.165   1.768   3.123
11370SOL    HW246173   5.308   1.844   3.146
11371SOL     OW46174   5.517   0.535   3.044
11371SOL    HW146175   5.574   0.617   3.046
11371SOL    HW246176   5.458   0.534   3.124
11372SOL     OW46177   5.534   1.761   2.957
11372SOL    HW146178   5.580   1.771   3.045
11372SOL    HW246179   5.601   1.764   2.884
11373SOL     OW46180   4.647   0.501   2.519
11373SOL    HW146181   4.723   0.529   2.578
11373SOL    HW246182   4.603   0.581   2.480
11374SOL     OW46183   4.882   0.965   2.036
11374SOL    HW146184   4.919   0.915   2.114
11374SOL    HW246185   4.812   0.910   1.991
11375SOL     OW46186   5.465   0.634   2.115
11375SOL    HW146187   5.486   0.553   2.061
11375SOL    HW246188   5.482   0.615   2.212
11376SOL     OW46189   4.759   1.772   2.023
11376SOL    HW146190   4.793   1.685   1.988
11376SOL    HW246191   4.727   1.760   2.117
11377SOL     OW46192   5.363   0.640   2.823
11377SOL    HW146193   5.348   0.731   2.860
11377SOL    HW246194   5.433   0.593   2.877
11378SOL     OW46195   4.773   1.306   3.589
11378SOL    HW146196   4.795   1.216   3.551
11378SOL    HW246197   4.708   1.353   3.530
11379SOL     OW46198   4.428   1.148   3.593
11379SOL    HW146199   4.399   1.225   3.650
11379SOL    HW246200   4.438   1.067   3.651
11380SOL     OW46201   5.063   0.012   2.699
11380SOL    HW146202   5.012   0.096   2.681
11380SOL    HW246203   5.149   0.014   2.648
11381SOL     OW46204   3.721   0.622   2.372
11381SOL    HW146205   3.723   0.573   2.459
11381SOL    HW246206   3.723   0.721   2.390
11382SOL     OW46207   4.042   0.210   2.693
11382SOL    HW146208   4.094   0.250   2.768
11382SOL    HW246209   4.095   0.137   2.650
11383SOL     OW46210   4.026   0.258   3.027
11383SOL    HW146211   3.991   0.165   3.027
11383SOL    HW246212   4.113   0.261   2.978
11384SOL     OW46213   4.693   0.880   2.767
11384SOL    HW146214   4.719   0.960   2.713
11384SOL    HW246215   4.687   0.800   2.707
11385SOL     OW46216   3.894   1.507   2.226
11385SOL    HW146217   3.921   1.413   2.246
11385SOL    HW246218   3.919   1.529   2.132
11386SOL     OW46219   5.176   1.376   3.100
11386SOL    HW146220   5.147   1.413   3.011
11386SOL    HW246221   5.098   1.376   3.162
11387SOL     OW46222   3.908   1.650   2.463
11387SOL    HW146223   3.824   1.701   2.481
11387SOL    HW246224   3.899   1.599   2.378
11388SOL     OW46225   5.429   1.447   3.138
11388SOL    HW146226   5.460   1.461   3.232
11388SOL    HW246227   5.330   1.434   3.137
11389SOL     OW46228   4.181   0.947   1.865
11389SOL    HW146229   4.150   0.981   1.777
11389SOL    HW246230   4.185   1.022   1.931
11390SOL     OW46231   4.698   1.134   3.164
11390SOL    HW146232   4.748   1.049   3.148
11390SOL    HW246233   4.652   1.161   3.079
11391SOL     OW46234   3.785   0.839   2.038
11391SOL    HW146235   3.845   0.786   2.098
11391SOL    HW246236   3.691   0.807   2.050
11392SOL     OW46237   5.305   0.837   2.238
11392SOL    HW146238   5.373   0.771   2.205
11392SOL    HW246239   5.320   0.925   2.194
11393SOL     OW46240   4.553   1.824   2.886
11393SOL    HW146241   4.599   1.757   2.828
11393SOL    HW246242   4.479   1.780   2.936
11394SOL     OW46243   4.460   0.893   1.922
11394SOL    HW146244   4.489   0.812   1.973
11394SOL    HW246245   4.360   0.892   1.913
11395SOL     OW46246   5.056   0.425   2.268
11395SOL    HW146247   4.993   0.483   2.216
11395SOL    HW246248   5.149   0.459   2.256
11396SOL     OW46249   4.733   0.902   3.023
11396SOL    HW146250   4.727   0.888   2.924
11396SOL    HW246251   4.652   0.863   3.067
11397SOL     OW46252   5.324   0.436   2.338
11397SOL    HW146253   5.420   0.407   2.335
11397SOL    HW246254   5.285   0.414   2.427
11398SOL     OW46255   4.608   1.511   2.775
11398SOL    HW146256   4.666   1.522   2.694
11398SOL    HW246257   4.514   1.535   2.753
11399SOL     OW46258   4.558   0.377   2.060
11399SOL    HW146259   4.467   0.390   2.098
11399SOL    HW246260   4.618   0.337   2.130
11400SOL     OW46261   4.669   1.322   1.995
11400SOL    HW146262   4.722   1.262   2.055
11400SOL    HW246263   4.708   1.323   1.904
11401SOL     OW46264   5.420   1.617   2.480
11401SOL    HW146265   5.387   1.710   2.499
11401SOL    HW246266   5.418   1.601   2.381
11402SOL     OW46267   4.835   0.890   2.469
11402SOL    HW146268   4.900   0.918   2.540
11402SOL    HW246269   4.756   0.951   2.471
11403SOL     OW46270   4.583   1.616   3.493
11403SOL    HW146271   4.571   1.547   3.422
11403SOL    HW246272   4.546   1.581   3.580
11404SOL     OW46273   5.027   0.930   2.672
11404SOL    HW146274   5.048   0.872   2.750
11404SOL    HW246275   5.036   1.026   2.698
11405SOL     OW46276   3.983   1.059   2.718
11405SOL    HW146277   3.906   1.121   2.711
11405SOL    HW246278   4.020   1.060   2.811
11406SOL     OW46279   4.616   1.007   2.417
11406SOL    HW146280   4.603   0.918   2.374
11406SOL    HW246281   4.547   1.021   2.488
11407SOL     OW46282   4.920   1.395   3.256
11407SOL    HW146283   4.953   1.480   3.297
11407SOL    HW246284   4.821   1.391   3.263
11408SOL     OW46285   3.727   0.312   2.320
11408SOL    HW146286   3.787   0.263   2.258
11408SOL    HW246287   3.782   0.364   2.385
11409SOL     OW46288   5.350   1.810   2.011
11409SOL    HW146289   5.440   1.854   2.013
11409SOL    HW246290   5.349   1.741   1.939
11410SOL     OW46291   3.751   1.804   3.240
11410SOL    HW146292   3.759   1.904   3.238
11410SOL    HW246293   3.727   1.775   3.333
11411SOL     OW46294   4.532   0.823   2.234
11411SOL    HW146295   4.443   0.851   2.199
11411SOL    HW246296   4.573   0.757   2.170
11412SOL     OW46297   4.054   0.541   2.773
11412SOL    HW146298   4.110   0.534   2.690
11412SOL    HW246299   4.111   0.519   2.853
11413SOL     OW46300   4.051   1.739   2.044
11413SOL    HW146301   4.143   1.769   2.019
11413SOL    HW246302   4.026   1.778   2.133
11414SOL     OW46303   5.027   1.761   2.981
11414SOL    HW146304   5.046   1.824   2.907
11414SOL    HW246305   5.035   1.667   2.948
11415SOL     OW46306   3.732   1.156   2.793
11415SOL    HW146307   3.642   1.172   2.754
11415SOL    HW246308   3.730   1.072   2.848
11416SOL     OW46309   4.483   0.061   2.243
11416SOL    HW146310   4.444   0.050   2.152
11416SOL    HW246311   4.439   0.137   2.290
11417SOL     OW46312   3.728   1.197   2.337
11417SOL    HW146313   3.806   1.255   2.361
11417SOL    HW246314   3.747   1.148   2.252
11418SOL     OW46315   5.258   0.325   3.421
11418SOL    HW146316   5.197   0.403   3.418
11418SOL    HW246317   5.313   0.329   3.504
11419SOL     OW46318   4.974   0.271   2.712
11419SOL    HW146319   4.973   0.349   2.649
11419SOL    HW246320   5.017   0.298   2.798
11420SOL     OW46321   5.094   0.077   2.008
11420SOL    HW146322   5.174   0.017   2.005
11420SOL    HW246323   5.020   0.030   2.056
11421SOL     OW46324   5.307   0.049   3.442
11421SOL    HW146325   5.333   0.006   3.356
11421SOL    HW246326   5.257   0.133   3.424
11422SOL     OW46327   4.409   0.308   2.574
11422SOL    HW146328   4.398   0.250   2.655
11422SOL    HW246329   4.494   0.360   2.582
11423SOL     OW46330   4.989   0.659   2.966
11423SOL    HW146331   5.043   0.699   2.892
11423SOL    HW246332   5.027   0.688   3.054
11424SOL     OW46333   5.282   0.065   2.282
11424SOL    HW146334   5.289   0.019   2.194
11424SOL    HW246335   5.186   0.075   2.307
11425SOL     OW46336   4.258   1.380   3.645
11425SOL    HW146337   4.219   1.443   3.578
11425SOL    HW246338   4.341   1.420   3.685
11426SOL     OW46339   3.795   1.402   2.951
11426SOL    HW146340   3.764   1.328   2.892
11426SOL    HW246341   3.727   1.420   3.022
11427SOL     OW46342   4.881   0.603   2.684
11427SOL    HW146343   4.963   0.580   2.632
11427SOL    HW246344   4.876   0.544   2.765
11428SOL     OW46345   5.481   0.630   3.520
11428SOL    HW146346   5.470   0.716   3.469
11428SOL    HW246347   5.575   0.621   3.550
11429SOL     OW46348   5.052   0.403   2.939
11429SOL    HW146349   5.026   0.500   2.945
11429SOL    HW246350   5.052   0.363   3.031
11430SOL     OW46351   5.282   0.535   3.690
11430SOL    HW146352   5.362   0.560   3.634
11430SOL    HW246353   5.313   0.500   3.778
11431SOL     OW46354   4.993   0.838   2.270
11431SOL    HW146355   4.939   0.836   2.354
11431SOL    HW246356   5.070   0.901   2.281
11432SOL     OW46357   5.290   0.934   2.490
11432SOL    HW146358   5.304   0.897   2.397
11432SOL    HW246359   5.201   0.904   2.524
11433SOL     OW46360   5.446   0.871   3.385
11433SOL    HW146361   5.348   0.892   3.387
11433SOL    HW246362   5.495   0.947   3.344
11434SOL     OW46363   5.300   0.291   2.064
11434SOL    HW146364   5.305   0.333   2.155
11434SOL    HW246365   5.233   0.216   2.066
11435SOL     OW46366   4.447   1.506   3.284
11435SOL    HW146367   4.384   1.584   3.291
11435SOL    HW246368   4.415   1.444   3.212
11436SOL     OW46369   3.718   1.715   3.493
11436SOL    HW146370   3.790   1.701   3.561
11436SOL    HW246371   3.629   1.718   3.538
11437SOL     OW46372   3.886   0.371   2.517
11437SOL    HW146373   3.829   0.426   2.578
11437SOL    HW246374   3.956   0.323   2.570
11438SOL     OW46375   5.058   1.603   3.380
11438SOL    HW146376   5.011   1.671   3.435
11438SOL    HW246377   5.125   1.649   3.321
11439SOL     OW46378   4.023   0.562   2.115
11439SOL    HW146379   4.095   0.591   2.052
11439SOL    HW246380   3.979   0.642   2.155
11440SOL     OW46381   5.409   0.224   3.218
11440SOL    HW146382   5.365   0.272   3.294
11440SOL    HW246383   5.387   0.270   3.132
11441SOL     OW46384   4.138   1.825   2.581
11441SOL    HW146385   4.062   1.791   2.526
11441SOL    HW246386   4.224   1.788   2.546
11442SOL     OW46387   4.063   1.334   3.026
11442SOL    HW146388   4.075   1.350   3.123
11442SOL    HW246389   3.976   1.374   2.996
11443SOL     OW46390   4.947   1.538   3.672
11443SOL    HW146391   4.906   1.453   3.638
11443SOL    HW246392   4.927   1.612   3.608
11444SOL     OW46393   4.437   1.258   2.362
11444SOL    HW146394   4.480   1.189   2.304
11444SOL    HW246395   4.401   1.215   2.445
11445SOL     OW46396   4.069   0.809   2.564
11445SOL    HW146397   4.061   0.907   2.582
11445SOL    HW246398   4.153   0.775   2.605
11446SOL     OW46399   3.915   0.289   2.079
11446SOL    HW146400   3.959   0.258   1.996
11446SOL    HW246401   3.916   0.389   2.083
11447SOL     OW46402   3.768   0.541   2.690
11447SOL    HW146403   3.732   0.634   2.682
11447SOL    HW246404   3.851   0.542   2.746
11448SOL     OW46405   4.203   1.128   2.076
11448SOL    HW146406   4.303   1.128   2.087
11448SOL    HW246407   4.172   1.221   2.055
11449SOL     OW46408   4.829   0.720   1.892
11449SOL    HW146409   4.760   0.777   1.848
11449SOL    HW246410   4.910   0.714   1.833
11450SOL     OW46411   4.564   0.639   2.035
11450SOL    HW146412   4.654   0.640   1.990
11450SOL    HW246413   4.541   0.545   2.060
11451SOL     OW46414   5.015   0.156   2.329
11451SOL    HW146415   4.925   0.140   2.370
11451SOL    HW246416   5.023   0.252   2.303
11452SOL     OW46417   5.129   0.556   3.345
11452SOL    HW146418   5.081   0.579   3.429
11452SOL    HW246419   5.063   0.526   3.276
11453SOL     OW46420   3.764   0.071   1.989
11453SOL    HW146421   3.827  -0.006   1.997
11453SOL    HW246422   3.784   0.139   2.060
11454SOL     OW46423   4.037   1.046   2.990
11454SOL    HW146424   4.048   1.001   3.079
11454SOL    HW246425   4.064   1.142   2.997
11455SOL     OW46426   5.336   1.058   2.090
11455SOL    HW146427   5.407   1.128   2.092
11455SOL    HW246428   5.323   1.028   1.995
11456SOL     OW46429   4.461   1.028   3.329
11456SOL    HW146430   4.530   1.080   3.279
11456SOL    HW246431   4.456   1.061   3.424
11457SOL     OW46432   4.853   1.049   3.489
11457SOL    HW146433   4.775   0.995   3.522
11457SOL    HW246434   4.934   1.027   3.544
11458SOL     OW46435   4.782   0.231   2.485
11458SOL    HW146436   4.841   0.291   2.540
11458SOL    HW246437   4.709   0.195   2.542
11459SOL     OW46438   4.892   1.763   3.525
11459SOL    HW146439   4.797   1.761   3.493
11459SOL    HW246440   4.913   1.854   3.562
11460SOL     OW46441   4.310   0.108   2.756
11460SOL    HW146442   4.238   0.041   2.742
11460SOL    HW246443   4.392   0.062   2.791
11461SOL     OW46444   4.010   1.773   3.123
11461SOL    HW146445   3.990   1.755   3.027
11461SOL    HW246446   3.937   1.735   3.180
11462SOL     OW46447   4.703   1.237   2.668
11462SOL    HW146448   4.742   1.280   2.587
11462SOL    HW246449   4.776   1.220   2.735
11463SOL     OW46450   4.397   0.965   2.870
11463SOL    HW146451   4.395   0.881   2.815
11463SOL    HW246452   4.346   0.951   2.955
11464SOL     OW46453   3.736   0.975   2.996
11464SOL    HW146454   3.825   0.953   3.036
11464SOL    HW246455   3.681   0.891   2.992
11465SOL     OW46456   3.964   0.020   2.276
11465SOL    HW146457   4.002   0.108   2.303
11465SOL    HW246458   3.887  -0.004   2.336
11466SOL     OW46459   4.380   0.637   3.604
11466SOL    HW146460   4.332   0.688   3.533
11466SOL    HW246461   4.473   0.616   3.574
11467SOL     OW46462   3.786   1.107   2.096
11467SOL    HW146463   3.776   1.010   2.075
11467SOL    HW246464   3.839   1.152   2.024
11468SOL     OW46465   5.483   0.219   2.697
11468SOL    HW146466   5.438   0.201   2.784
11468SOL    HW246467   5.581   0.236   2.713
11469SOL     OW46468   4.531   1.195   2.949
11469SOL    HW146469   4.482   1.110   2.930
11469SOL    HW246470   4.601   1.210   2.880
11470SOL     OW46471   4.869   0.618   2.158
11470SOL    HW146472   4.921   0.690   2.204
11470SOL    HW246473   4.882   0.625   2.060
11471SOL     OW46474   5.230   1.433   3.485
11471SOL    HW146475   5.215   1.335   3.499
11471SOL    HW246476   5.147   1.475   3.449
11472SOL     OW46477   3.987   0.875   3.225
11472SOL    HW146478   3.951   0.785   3.251
11472SOL    HW246479   3.948   0.945   3.285
11473SOL     OW46480   4.489   1.501   1.883
11473SOL    HW146481   4.464   1.578   1.942
11473SOL    HW246482   4.553   1.441   1.931
11474SOL     OW46483   4.307   1.708   2.917
11474SOL    HW146484   4.327   1.678   2.824
11474SOL    HW246485   4.232   1.653   2.954
11475SOL     OW46486   4.450   1.119   2.634
11475SOL    HW146487   4.539   1.165   2.634
11475SOL    HW246488   4.443   1.059   2.713
11476SOL     OW46489   4.628   1.466   2.303
11476SOL    HW146490   4.678   1.454   2.218
11476SOL    HW246491   4.574   1.383   2.322
11477SOL     OW46492   3.818   0.813   2.703
11477SOL    HW146493   3.913   0.804   2.671
11477SOL    HW246494   3.784   0.905   2.682
11478SOL     OW46495   4.652   1.839   3.336
11478SOL    HW146496   4.624   1.752   3.377
11478SOL    HW246497   4.596   1.913   3.373
11479SOL     OW46498   4.881   1.186   2.866
11479SOL    HW146499   4.865   1.280   2.897
11479SOL    HW246500   4.884   1.125   2.946
11480SOL     OW46501   4.155   0.457   3.630
11480SOL    HW146502   4.191   0.404   3.553
11480SOL    HW246503   4.216   0.534   3.648
11481SOL     OW46504   4.219   0.874   2.202
11481SOL    HW146505   4.169   0.939   2.146
11481SOL    HW246506   4.161   0.795   2.221
11482SOL     OW46507   5.300   0.905   2.900
11482SOL    HW146508   5.319   0.944   2.809
11482SOL    HW246509   5.254   0.974   2.956
11483SOL     OW46510   4.992   0.348   3.196
11483SOL    HW146511   5.063   0.320   3.260
11483SOL    HW246512   4.939   0.268   3.168
11484SOL     OW46513   3.693   0.047   2.397
11484SOL    HW146514   3.606   0.034   2.350
11484SOL    HW246515   3.701   0.142   2.427
11485SOL     OW46516   4.130   1.567   3.463
11485SOL    HW146517   4.072   1.632   3.512
11485SOL    HW246518   4.192   1.617   3.403
11486SOL     OW46519   5.486   1.454   3.404
11486SOL    HW146520   5.514   1.547   3.426
11486SOL    HW246521   5.393   1.438   3.437
11487SOL     OW46522   4.736   0.567   2.954
11487SOL    HW146523   4.822   0.618   2.953
11487SOL    HW246524   4.742   0.493   3.021
11488SOL     OW46525   4.140   1.513   2.526
11488SOL    HW146526   4.138   1.414   2.539
11488SOL    HW246527   4.049   1.546   2.503
11489SOL     OW46528   4.781   1.630   3.114
11489SOL    HW146529   4.707   1.694   3.132
11489SOL    HW246530   4.860   1.679   3.076
11490SOL     OW46531   3.990   1.760   3.613
11490SOL    HW146532   4.033   1.844   3.579
11490SOL    HW246533   4.015   1.747   3.709
11491SOL     OW46534   3.939   1.661   2.888
11491SOL    HW146535   3.881   1.581   2.902
11491SOL    HW246536   3.963   1.668   2.791
11492SOL     OW46537   4.685   0.182   2.743
11492SOL    HW146538   4.781   0.183   2.771
11492SOL    HW246539   4.630   0.139   2.815
11493SOL     OW46540   4.747   1.188   2.259
11493SOL    HW146541   4.827   1.224   2.307
11493SOL    HW246542   4.705   1.115   2.315
11494SOL     OW46543   5.338   0.455   2.623
11494SOL    HW146544   5.357   0.541   2.670
11494SOL    HW246545   5.406   0.386   2.651
11495SOL     OW46546   4.481   1.127   2.109
11495SOL    HW146547   4.553   1.186   2.074
11495SOL    HW246548   4.521   1.043   2.145
11496SOL     OW46549   4.552   0.103   1.961
11496SOL    HW146550   4.627   0.037   1.973
11496SOL    HW246551   4.583   0.194   1.989
11497SOL     OW46552   4.231   0.532   2.573
11497SOL    HW146553   4.269   0.443   2.599
11497SOL    HW246554   4.298   0.582   2.518
11498SOL     OW46555   4.219   1.090   3.227
11498SOL    HW146556   4.315   1.070   3.247
11498SOL    HW246557   4.208   1.188   3.209
11499SOL     OW46558   5.441   1.133   3.196
11499SOL    HW146559   5.455   1.231   3.210
11499SOL    HW246560   5.498   1.102   3.120
11500SOL     OW46561   3.924   1.242   1.888
11500SOL    HW146562   3.916   1.254   1.789
11500SOL    HW246563   3.983   1.313   1.926
11501SOL     OW46564   4.351   1.681   2.048
11501SOL    HW146565   4.326   1.776   2.032
11501SOL    HW246566   4.318   1.653   2.138
11502SOL     OW46567   5.001   1.104   3.272
11502SOL    HW146568   4.945   1.063   3.343
11502SOL    HW246569   4.981   1.202   3.266
11503SOL     OW46570   4.268   1.720   3.272
11503SOL    HW146571   4.317   1.800   3.236
11503SOL    HW246572   4.176   1.718   3.233
11504SOL     OW46573   5.350   1.562   2.873
11504SOL    HW146574   5.322   1.655   2.897
11504SOL    HW246575   5.400   1.521   2.949
11505SOL     OW46576   3.746   0.935   2.434
11505SOL    HW146577   3.753   1.034   2.421
11505SOL    HW246578   3.655   0.912   2.468
11506SOL     OW46579   5.322   1.109   2.684
11506SOL    HW146580   5.284   1.198   2.657
11506SOL    HW246581   5.322   1.047   2.606
11507SOL     OW46582   4.480   0.515   2.853
11507SOL    HW146583   4.572   0.543   2.880
11507SOL    HW246584   4.412   0.566   2.907
11508SOL     OW46585   4.333   1.366   3.080
11508SOL    HW146586   4.246   1.365   3.031
11508SOL    HW246587   4.399   1.306   3.033
11509SOL     OW46588   3.899   0.708   2.994
11509SOL    HW146589   3.937   0.767   3.065
11509SOL    HW246590   3.882   0.761   2.912
11510SOL     OW46591   4.070   1.354   3.292
11510SOL    HW146592   4.089   1.442   3.336
11510SOL    HW246593   3.975   1.328   3.310
11511SOL     OW46594   5.313   1.670   3.640
11511SOL    HW146595   5.282   1.592   3.585
11511SOL    HW246596   5.282   1.755   3.598
11512SOL     OW46597   5.021   1.208   2.361
11512SOL    HW146598   5.120   1.212   2.377
11512SOL    HW246599   5.004   1.194   2.263
11513SOL     OW46600   4.374   0.374   2.309
11513SOL    HW146601   4.276   0.368   2.289
11513SOL    HW246602   4.393   0.331   2.397
11514SOL     OW46603   5.294   0.057   2.568
11514SOL    HW146604   5.289   0.098   2.477
11514SOL    HW246605   5.375   0.091   2.615
11515SOL     OW46606   4.897   0.813   3.261
11515SOL    HW146607   4.996   0.822   3.251
11515SOL    HW246608   4.853   0.815   3.171
11516SOL     OW46609   4.391   0.773   2.663
11516SOL    HW146610   4.413   0.695   2.721
11516SOL    HW246611   4.400   0.747   2.567
11517SOL     OW46612   5.056   1.480   2.875
11517SOL    HW146613   4.970   1.437   2.904
11517SOL    HW246614   5.045   1.520   2.784
11518SOL     OW46615   5.059   0.465   2.550
11518SOL    HW146616   5.058   0.457   2.451
11518SOL    HW246617   5.148   0.437   2.585
11519SOL     OW46618   4.786   1.481   4.383
11519SOL    HW146619   4.877   1.515   4.406
11519SOL    HW246620   4.758   1.519   4.295
11520SOL     OW46621   5.297   1.277   4.241
11520SOL    HW146622   5.308   1.361   4.295
11520SOL    HW246623   5.387   1.240   4.218
11521SOL     OW46624   5.377   0.559   5.105
11521SOL    HW146625   5.279   0.551   5.127
11521SOL    HW246626   5.430   0.548   5.189
11522SOL     OW46627   4.044   0.196   3.710
11522SOL    HW146628   3.957   0.193   3.661
11522SOL    HW246629   4.095   0.278   3.682
11523SOL     OW46630   5.031   1.585   4.485
11523SOL    HW146631   5.020   1.682   4.508
11523SOL    HW246632   5.124   1.568   4.455
11524SOL     OW46633   4.909   0.096   5.043
11524SOL    HW146634   4.833   0.051   5.090
11524SOL    HW246635   4.938   0.041   4.965
11525SOL     OW46636   4.647   0.876   5.420
11525SOL    HW146637   4.612   0.851   5.330
11525SOL    HW246638   4.571   0.897   5.481
11526SOL     OW46639   4.254   1.550   4.114
11526SOL    HW146640   4.210   1.559   4.203
11526SOL    HW246641   4.325   1.480   4.118
11527SOL     OW46642   4.272   0.083   3.836
11527SOL    HW146643   4.360   0.111   3.797
11527SOL    HW246644   4.200   0.146   3.806
11528SOL     OW46645   5.242   1.068   5.219
11528SOL    HW146646   5.150   1.073   5.181
11528SOL    HW246647   5.307   1.106   5.153
11529SOL     OW46648   5.142   1.075   4.900
11529SOL    HW146649   5.067   1.064   4.965
11529SOL    HW246650   5.179   1.168   4.906
11530SOL     OW46651   4.638   1.330   5.200
11530SOL    HW146652   4.581   1.393   5.146
11530SOL    HW246653   4.671   1.256   5.141
11531SOL     OW46654   4.408   0.629   4.240
11531SOL    HW146655   4.447   0.699   4.181
11531SOL    HW246656   4.382   0.549   4.186
11532SOL     OW46657   5.028   0.537   5.449
11532SOL    HW146658   5.124   0.541   5.475
11532SOL    HW246659   4.984   0.461   5.496
11533SOL     OW46660   4.111   1.392   3.893
11533SOL    HW146661   4.175   1.408   3.818
11533SOL    HW246662   4.135   1.450   3.971
11534SOL     OW46663   4.262   0.348   4.703
11534SOL    HW146664   4.338   0.413   4.699
11534SOL    HW246665   4.292   0.259   4.670
11535SOL     OW46666   4.545   1.719   4.298
11535SOL    HW146667   4.610   1.652   4.262
11535SOL    HW246668   4.535   1.795   4.234
11536SOL     OW46669   5.437   1.601   4.040
11536SOL    HW146670   5.533   1.575   4.033
11536SOL    HW246671   5.413   1.661   3.964
11537SOL     OW46672   5.349   0.294   4.811
11537SOL    HW146673   5.400   0.366   4.764
11537SOL    HW246674   5.254   0.321   4.820
11538SOL     OW46675   4.749   0.323   4.080
11538SOL    HW146676   4.774   0.417   4.101
11538SOL    HW246677   4.750   0.269   4.164
11539SOL     OW46678   3.873   1.036   5.265
11539SOL    HW146679   3.969   1.051   5.283
11539SOL    HW246680   3.835   0.974   5.334
11540SOL     OW46681   4.199   0.681   3.808
11540SOL    HW146682   4.159   0.760   3.761
11540SOL    HW246683   4.288   0.660   3.768
11541SOL     OW46684   4.714   0.637   5.260
11541SOL    HW146685   4.747   0.554   5.307
11541SOL    HW246686   4.787   0.705   5.259
11542SOL     OW46687   5.318   1.437   4.482
11542SOL    HW146688   5.314   1.472   4.575
11542SOL    HW246689   5.377   1.496   4.426
11543SOL     OW46690   5.141   0.798   5.002
11543SOL    HW146691   5.145   0.892   4.967
11543SOL    HW246692   5.234   0.767   5.024
11544SOL     OW46693   5.222   1.817   5.035
11544SOL    HW146694   5.165   1.768   4.969
11544SOL    HW246695   5.308   1.844   4.992
11545SOL     OW46696   5.517   0.535   4.890
11545SOL    HW146697   5.574   0.617   4.892
11545SOL    HW246698   5.458   0.534   4.970
11546SOL     OW46699   5.534   1.761   4.803
11546SOL    HW146700   5.580   1.771   4.891
11546SOL    HW246701   5.601   1.764   4.730
11547SOL     OW46702   4.647   0.501   4.365
11547SOL    HW146703   4.723   0.529   4.424
11547SOL    HW246704   4.603   0.581   4.326
11548SOL     OW46705   4.882   0.965   3.882
11548SOL    HW146706   4.919   0.915   3.960
11548SOL    HW246707   4.812   0.910   3.837
11549SOL     OW46708   4.724   0.387   5.503
11549SOL    HW146709   4.787   0.392   5.580
11549SOL    HW246710   4.632   0.365   5.536
11550SOL     OW46711   5.465   0.634   3.961
11550SOL    HW146712   5.486   0.553   3.907
11550SOL    HW246713   5.482   0.615   4.058
11551SOL     OW46714   4.759   1.772   3.869
11551SOL    HW146715   4.793   1.685   3.834
11551SOL    HW246716   4.727   1.760   3.963
11552SOL     OW46717   4.440   0.039   5.401
11552SOL    HW146718   4.447  -0.055   5.368
11552SOL    HW246719   4.497   0.049   5.483
11553SOL     OW46720   5.363   0.640   4.669
11553SOL    HW146721   5.348   0.731   4.706
11553SOL    HW246722   5.433   0.593   4.723
11554SOL     OW46723   4.773   1.306   5.435
11554SOL    HW146724   4.795   1.216   5.397
11554SOL    HW246725   4.708   1.353   5.376
11555SOL     OW46726   5.063   0.012   4.545
11555SOL    HW146727   5.012   0.096   4.527
11555SOL    HW246728   5.149   0.014   4.494
11556SOL     OW46729   5.418   0.218   5.474
11556SOL    HW146730   5.395   0.239   5.569
11556SOL    HW246731   5.394   0.123   5.454
11557SOL     OW46732   4.042   0.210   4.539
11557SOL    HW146733   4.094   0.250   4.614
11557SOL    HW246734   4.095   0.137   4.496
11558SOL     OW46735   4.693   0.880   4.613
11558SOL    HW146736   4.719   0.960   4.559
11558SOL    HW246737   4.687   0.800   4.553
11559SOL     OW46738   5.176   1.376   4.946
11559SOL    HW146739   5.147   1.413   4.857
11559SOL    HW246740   5.098   1.376   5.008
11560SOL     OW46741   5.429   1.447   4.984
11560SOL    HW146742   5.460   1.461   5.078
11560SOL    HW246743   5.330   1.434   4.983
11561SOL     OW46744   4.181   0.947   3.711
11561SOL    HW146745   4.150   0.981   3.623
11561SOL    HW246746   4.185   1.022   3.777
11562SOL     OW46747   4.698   1.134   5.010
11562SOL    HW146748   4.748   1.049   4.994
11562SOL    HW246749   4.652   1.161   4.925
11563SOL     OW46750   5.305   0.837   4.084
11563SOL    HW146751   5.373   0.771   4.051
11563SOL    HW246752   5.320   0.925   4.040
11564SOL     OW46753   4.553   1.824   4.732
11564SOL    HW146754   4.599   1.757   4.674
11564SOL    HW246755   4.479   1.780   4.782
11565SOL     OW46756   4.460   0.893   3.768
11565SOL    HW146757   4.489   0.812   3.819
11565SOL    HW246758   4.360   0.892   3.759
11566SOL     OW46759   3.953   0.626   5.214
11566SOL    HW146760   3.973   0.531   5.189
11566SOL    HW246761   3.916   0.629   5.307
11567SOL     OW46762   3.835   0.281   5.104
11567SOL    HW146763   3.907   0.291   5.035
11567SOL    HW246764   3.746   0.280   5.059
11568SOL     OW46765   4.733   0.902   4.869
11568SOL    HW146766   4.727   0.888   4.770
11568SOL    HW246767   4.652   0.863   4.913
11569SOL     OW46768   5.324   0.436   4.184
11569SOL    HW146769   5.420   0.407   4.181
11569SOL    HW246770   5.285   0.414   4.273
11570SOL     OW46771   4.608   1.511   4.621
11570SOL    HW146772   4.666   1.522   4.540
11570SOL    HW246773   4.514   1.535   4.599
11571SOL     OW46774   4.558   0.377   3.906
11571SOL    HW146775   4.467   0.390   3.944
11571SOL    HW246776   4.618   0.337   3.976
11572SOL     OW46777   4.669   1.322   3.841
11572SOL    HW146778   4.722   1.262   3.901
11572SOL    HW246779   4.708   1.323   3.750
11573SOL     OW46780   5.420   1.617   4.326
11573SOL    HW146781   5.387   1.710   4.345
11573SOL    HW246782   5.418   1.601   4.227
11574SOL     OW46783   4.835   0.890   4.315
11574SOL    HW146784   4.900   0.918   4.386
11574SOL    HW246785   4.756   0.951   4.317
11575SOL     OW46786   4.583   1.616   5.339
11575SOL    HW146787   4.571   1.547   5.268
11575SOL    HW246788   4.546   1.581   5.426
11576SOL     OW46789   5.027   0.930   4.518
11576SOL    HW146790   5.048   0.872   4.596
11576SOL    HW246791   5.036   1.026   4.544
11577SOL     OW46792   3.983   1.059   4.564
11577SOL    HW146793   3.906   1.121   4.557
11577SOL    HW246794   4.020   1.060   4.657
11578SOL     OW46795   4.616   1.007   4.263
11578SOL    HW146796   4.603   0.918   4.220
11578SOL    HW246797   4.547   1.021   4.334
11579SOL     OW46798   4.920   1.395   5.102
11579SOL    HW146799   4.953   1.480   5.143
11579SOL    HW246800   4.821   1.391   5.109
11580SOL     OW46801   5.350   1.810   3.857
11580SOL    HW146802   5.440   1.854   3.859
11580SOL    HW246803   5.349   1.741   3.785
11581SOL     OW46804   4.514   0.777   5.015
11581SOL    HW146805   4.516   0.863   5.066
11581SOL    HW246806   4.571   0.709   5.062
11582SOL     OW46807   3.751   1.804   5.086
11582SOL    HW146808   3.759   1.904   5.084
11582SOL    HW246809   3.727   1.775   5.179
11583SOL     OW46810   4.532   0.823   4.080
11583SOL    HW146811   4.443   0.851   4.045
11583SOL    HW246812   4.573   0.757   4.016
11584SOL     OW46813   5.027   1.761   4.827
11584SOL    HW146814   5.046   1.824   4.753
11584SOL    HW246815   5.035   1.667   4.794
11585SOL     OW46816   3.732   1.156   4.639
11585SOL    HW146817   3.642   1.172   4.600
11585SOL    HW246818   3.730   1.072   4.694
11586SOL     OW46819   4.483   0.061   4.089
11586SOL    HW146820   4.444   0.050   3.998
11586SOL    HW246821   4.439   0.137   4.136
11587SOL     OW46822   5.258   0.325   5.267
11587SOL    HW146823   5.197   0.403   5.264
11587SOL    HW246824   5.313   0.329   5.350
11588SOL     OW46825   4.974   0.271   4.558
11588SOL    HW146826   4.973   0.349   4.495
11588SOL    HW246827   5.017   0.298   4.644
11589SOL     OW46828   5.307   0.049   5.288
11589SOL    HW146829   5.333   0.006   5.202
11589SOL    HW246830   5.257   0.133   5.270
11590SOL     OW46831   4.409   0.308   4.420
11590SOL    HW146832   4.398   0.250   4.501
11590SOL    HW246833   4.494   0.360   4.428
11591SOL     OW46834   4.989   0.659   4.812
11591SOL    HW146835   5.043   0.699   4.738
11591SOL    HW246836   5.027   0.688   4.900
11592SOL     OW46837   4.258   1.380   5.491
11592SOL    HW146838   4.219   1.443   5.424
11592SOL    HW246839   4.341   1.420   5.531
11593SOL     OW46840   3.795   1.402   4.797
11593SOL    HW146841   3.764   1.328   4.738
11593SOL    HW246842   3.727   1.420   4.868
11594SOL     OW46843   4.881   0.603   4.530
11594SOL    HW146844   4.963   0.580   4.478
11594SOL    HW246845   4.876   0.544   4.611
11595SOL     OW46846   5.481   0.630   5.366
11595SOL    HW146847   5.470   0.716   5.315
11595SOL    HW246848   5.575   0.621   5.396
11596SOL     OW46849   5.052   0.403   4.785
11596SOL    HW146850   5.026   0.500   4.791
11596SOL    HW246851   5.052   0.363   4.877
11597SOL     OW46852   5.282   0.535   5.536
11597SOL    HW146853   5.362   0.560   5.480
11597SOL    HW246854   5.313   0.500   5.624
11598SOL     OW46855   4.993   0.838   4.116
11598SOL    HW146856   4.939   0.836   4.200
11598SOL    HW246857   5.070   0.901   4.127
11599SOL     OW46858   5.290   0.934   4.336
11599SOL    HW146859   5.304   0.897   4.243
11599SOL    HW246860   5.201   0.904   4.370
11600SOL     OW46861   5.446   0.871   5.231
11600SOL    HW146862   5.348   0.892   5.233
11600SOL    HW246863   5.495   0.947   5.190
11601SOL     OW46864   4.447   1.506   5.130
11601SOL    HW146865   4.384   1.584   5.137
11601SOL    HW246866   4.415   1.444   5.058
11602SOL     OW46867   3.838   0.301   5.395
11602SOL    HW146868   3.856   0.290   5.297
11602SOL    HW246869   3.740   0.297   5.412
11603SOL     OW46870   3.718   1.715   5.339
11603SOL    HW146871   3.790   1.701   5.407
11603SOL    HW246872   3.629   1.718   5.384
11604SOL     OW46873   5.058   1.603   5.226
11604SOL    HW146874   5.011   1.671   5.281
11604SOL    HW246875   5.125   1.649   5.167
11605SOL     OW46876   5.409   0.224   5.064
11605SOL    HW146877   5.365   0.272   5.140
11605SOL    HW246878   5.387   0.270   4.978
11606SOL     OW46879   4.063   1.334   4.872
11606SOL    HW146880   4.075   1.350   4.969
11606SOL    HW246881   3.976   1.374   4.842
11607SOL     OW46882   4.947   1.538   5.518
11607SOL    HW146883   4.906   1.453   5.484
11607SOL    HW246884   4.927   1.612   5.454
11608SOL     OW46885   4.437   1.258   4.208
11608SOL    HW146886   4.480   1.189   4.150
11608SOL    HW246887   4.401   1.215   4.291
11609SOL     OW46888   3.915   0.289   3.925
11609SOL    HW146889   3.959   0.258   3.842
11609SOL    HW246890   3.916   0.389   3.929
11610SOL     OW46891   4.829   0.720   3.738
11610SOL    HW146892   4.760   0.777   3.694
11610SOL    HW246893   4.910   0.714   3.679
11611SOL     OW46894   4.564   0.639   3.881
11611SOL    HW146895   4.654   0.640   3.836
11611SOL    HW246896   4.541   0.545   3.906
11612SOL     OW46897   5.129   0.556   5.191
11612SOL    HW146898   5.081   0.579   5.275
11612SOL    HW246899   5.063   0.526   5.122
11613SOL     OW46900   5.336   1.058   3.936
11613SOL    HW146901   5.407   1.128   3.938
11613SOL    HW246902   5.323   1.028   3.841
11614SOL     OW46903   4.853   1.049   5.335
11614SOL    HW146904   4.775   0.995   5.368
11614SOL    HW246905   4.934   1.027   5.390
11615SOL     OW46906   4.782   0.231   4.331
11615SOL    HW146907   4.841   0.291   4.386
11615SOL    HW246908   4.709   0.195   4.388
11616SOL     OW46909   4.892   1.763   5.371
11616SOL    HW146910   4.797   1.761   5.339
11616SOL    HW246911   4.913   1.854   5.408
11617SOL     OW46912   4.310   0.108   4.602
11617SOL    HW146913   4.238   0.041   4.588
11617SOL    HW246914   4.392   0.062   4.637
11618SOL     OW46915   4.010   1.773   4.969
11618SOL    HW146916   3.990   1.755   4.873
11618SOL    HW246917   3.937   1.735   5.026
11619SOL     OW46918   4.703   1.237   4.514
11619SOL    HW146919   4.742   1.280   4.433
11619SOL    HW246920   4.776   1.220   4.581
11620SOL     OW46921   4.397   0.965   4.716
11620SOL    HW146922   4.395   0.881   4.661
11620SOL    HW246923   4.346   0.951   4.801
11621SOL     OW46924   5.483   0.219   4.543
11621SOL    HW146925   5.438   0.201   4.630
11621SOL    HW246926   5.581   0.236   4.559
11622SOL     OW46927   4.531   1.195   4.795
11622SOL    HW146928   4.482   1.110   4.776
11622SOL    HW246929   4.601   1.210   4.726
11623SOL     OW46930   4.869   0.618   4.004
11623SOL    HW146931   4.921   0.690   4.050
11623SOL    HW246932   4.882   0.625   3.906
11624SOL     OW46933   5.230   1.433   5.331
11624SOL    HW146934   5.215   1.335   5.345
11624SOL    HW246935   5.147   1.475   5.295
11625SOL     OW46936   4.489   1.501   3.729
11625SOL    HW146937   4.464   1.578   3.788
11625SOL    HW246938   4.553   1.441   3.777
11626SOL     OW46939   4.307   1.708   4.763
11626SOL    HW146940   4.327   1.678   4.670
11626SOL    HW246941   4.232   1.653   4.800
11627SOL     OW46942   4.450   1.119   4.480
11627SOL    HW146943   4.539   1.165   4.480
11627SOL    HW246944   4.443   1.059   4.559
11628SOL     OW46945   4.628   1.466   4.149
11628SOL    HW146946   4.678   1.454   4.064
11628SOL    HW246947   4.574   1.383   4.168
11629SOL     OW46948   3.755   0.930   5.476
11629SOL    HW146949   3.670   0.881   5.457
11629SOL    HW246950   3.782   0.917   5.571
11630SOL     OW46951   4.652   1.839   5.182
11630SOL    HW146952   4.624   1.752   5.223
11630SOL    HW246953   4.596   1.913   5.219
11631SOL     OW46954   4.881   1.186   4.712
11631SOL    HW146955   4.865   1.280   4.743
11631SOL    HW246956   4.884   1.125   4.792
11632SOL     OW46957   5.300   0.905   4.746
11632SOL    HW146958   5.319   0.944   4.655
11632SOL    HW246959   5.254   0.974   4.802
11633SOL     OW46960   4.992   0.348   5.042
11633SOL    HW146961   5.063   0.320   5.106
11633SOL    HW246962   4.939   0.268   5.014
11634SOL     OW46963   4.914   0.148   5.484
11634SOL    HW146964   4.973   0.164   5.564
11634SOL    HW246965   4.861   0.231   5.465
11635SOL     OW46966   4.130   1.567   5.309
11635SOL    HW146967   4.072   1.632   5.358
11635SOL    HW246968   4.192   1.617   5.249
11636SOL     OW46969   5.486   1.454   5.250
11636SOL    HW146970   5.514   1.547   5.272
11636SOL    HW246971   5.393   1.438   5.283
11637SOL     OW46972   4.736   0.567   4.800
11637SOL    HW146973   4.822   0.618   4.799
11637SOL    HW246974   4.742   0.493   4.867
11638SOL     OW46975   4.781   1.630   4.960
11638SOL    HW146976   4.707   1.694   4.978
11638SOL    HW246977   4.860   1.679   4.922
11639SOL     OW46978   3.990   1.760   5.459
11639SOL    HW146979   4.033   1.844   5.425
11639SOL    HW246980   4.015   1.747   5.555
11640SOL     OW46981   3.850   1.296   5.330
11640SOL    HW146982   3.829   1.201   5.303
11640SOL    HW246983   3.781   1.357   5.292
11641SOL     OW46984   3.939   1.661   4.734
11641SOL    HW146985   3.881   1.581   4.748
11641SOL    HW246986   3.963   1.668   4.637
11642SOL     OW46987   4.685   0.182   4.589
11642SOL    HW146988   4.781   0.183   4.617
11642SOL    HW246989   4.630   0.139   4.661
11643SOL     OW46990   4.747   1.188   4.105
11643SOL    HW146991   4.827   1.224   4.153
11643SOL    HW246992   4.705   1.115   4.161
11644SOL     OW46993   5.338   0.455   4.469
11644SOL    HW146994   5.357   0.541   4.516
11644SOL    HW246995   5.406   0.386   4.497
11645SOL     OW46996   4.481   1.127   3.955
11645SOL    HW146997   4.553   1.186   3.920
11645SOL    HW246998   4.521   1.043   3.991
11646SOL     OW46999   4.552   0.103   3.807
11646SOL    HW147000   4.627   0.037   3.819
11646SOL    HW247001   4.583   0.194   3.835
11647SOL     OW47002   4.231   0.532   4.419
11647SOL    HW147003   4.269   0.443   4.445
11647SOL    HW247004   4.298   0.582   4.364
11648SOL     OW47005   5.441   1.133   5.042
11648SOL    HW147006   5.455   1.231   5.056
11648SOL    HW247007   5.498   1.102   4.966
11649SOL     OW47008   4.351   1.681   3.894
11649SOL    HW147009   4.326   1.776   3.878
11649SOL    HW247010   4.318   1.653   3.984
11650SOL     OW47011   5.001   1.104   5.118
11650SOL    HW147012   4.945   1.063   5.189
11650SOL    HW247013   4.981   1.202   5.112
11651SOL     OW47014   4.268   1.720   5.118
11651SOL    HW147015   4.317   1.800   5.082
11651SOL    HW247016   4.176   1.718   5.079
11652SOL     OW47017   5.350   1.562   4.719
11652SOL    HW147018   5.322   1.655   4.743
11652SOL    HW247019   5.400   1.521   4.795
11653SOL     OW47020   5.322   1.109   4.530
11653SOL    HW147021   5.284   1.198   4.503
11653SOL    HW247022   5.322   1.047   4.452
11654SOL     OW47023   4.480   0.515   4.699
11654SOL    HW147024   4.572   0.543   4.726
11654SOL    HW247025   4.412   0.566   4.753
11655SOL     OW47026   4.333   1.366   4.926
11655SOL    HW147027   4.246   1.365   4.877
11655SOL    HW247028   4.399   1.306   4.879
11656SOL     OW47029   4.070   1.354   5.138
11656SOL    HW147030   4.089   1.442   5.182
11656SOL    HW247031   3.975   1.328   5.156
11657SOL     OW47032   5.313   1.670   5.486
11657SOL    HW147033   5.282   1.592   5.431
11657SOL    HW247034   5.282   1.755   5.444
11658SOL     OW47035   5.021   1.208   4.207
11658SOL    HW147036   5.120   1.212   4.223
11658SOL    HW247037   5.004   1.194   4.109
11659SOL     OW47038   4.374   0.374   4.155
11659SOL    HW147039   4.276   0.368   4.135
11659SOL    HW247040   4.393   0.331   4.243
11660SOL     OW47041   4.897   0.813   5.107
11660SOL    HW147042   4.996   0.822   5.097
11660SOL    HW247043   4.853   0.815   5.017
11661SOL     OW47044   4.391   0.773   4.509
11661SOL    HW147045   4.413   0.695   4.567
11661SOL    HW247046   4.400   0.747   4.413
11662SOL     OW47047   5.056   1.480   4.721
11662SOL    HW147048   4.970   1.437   4.750
11662SOL    HW247049   5.045   1.520   4.630
11663SOL     OW47050   5.059   0.465   4.396
11663SOL    HW147051   5.058   0.457   4.297
11663SOL    HW247052   5.148   0.437   4.431
11664SOL     OW47053   4.786   1.481   6.228
11664SOL    HW147054   4.877   1.515   6.251
11664SOL    HW247055   4.758   1.519   6.140
11665SOL     OW47056   5.297   1.277   6.086
11665SOL    HW147057   5.308   1.361   6.140
11665SOL    HW247058   5.387   1.240   6.063
11666SOL     OW47059   5.377   0.559   6.950
11666SOL    HW147060   5.279   0.551   6.972
11666SOL    HW247061   5.430   0.548   7.034
11667SOL     OW47062   4.044   0.196   5.555
11667SOL    HW147063   3.957   0.193   5.506
11667SOL    HW247064   4.095   0.278   5.527
11668SOL     OW47065   5.031   1.585   6.330
11668SOL    HW147066   5.020   1.682   6.353
11668SOL    HW247067   5.124   1.568   6.300
11669SOL     OW47068   4.909   0.096   6.888
11669SOL    HW147069   4.833   0.051   6.935
11669SOL    HW247070   4.938   0.041   6.810
11670SOL     OW47071   4.647   0.876   7.265
11670SOL    HW147072   4.612   0.851   7.175
11670SOL    HW247073   4.571   0.897   7.326
11671SOL     OW47074   4.254   1.550   5.959
11671SOL    HW147075   4.210   1.559   6.048
11671SOL    HW247076   4.325   1.480   5.963
11672SOL     OW47077   5.242   1.068   7.064
11672SOL    HW147078   5.150   1.073   7.026
11672SOL    HW247079   5.307   1.106   6.998
11673SOL     OW47080   5.142   1.075   6.745
11673SOL    HW147081   5.067   1.064   6.810
11673SOL    HW247082   5.179   1.168   6.751
11674SOL     OW47083   4.408   0.629   6.085
11674SOL    HW147084   4.447   0.699   6.026
11674SOL    HW247085   4.382   0.549   6.031
11675SOL     OW47086   5.028   0.537   7.294
11675SOL    HW147087   5.124   0.541   7.320
11675SOL    HW247088   4.984   0.461   7.341
11676SOL     OW47089   4.111   1.392   5.738
11676SOL    HW147090   4.175   1.408   5.663
11676SOL    HW247091   4.135   1.450   5.816
11677SOL     OW47092   4.262   0.348   6.548
11677SOL    HW147093   4.338   0.413   6.544
11677SOL    HW247094   4.292   0.259   6.515
11678SOL     OW47095   3.959   0.774   5.966
11678SOL    HW147096   3.974   0.708   6.040
11678SOL    HW247097   3.909   0.853   6.001
11679SOL     OW47098   4.545   1.719   6.143
11679SOL    HW147099   4.610   1.652   6.107
11679SOL    HW247100   4.535   1.795   6.079
11680SOL     OW47101   5.437   1.601   5.885
11680SOL    HW147102   5.533   1.575   5.878
11680SOL    HW247103   5.413   1.661   5.809
11681SOL     OW47104   5.349   0.294   6.656
11681SOL    HW147105   5.400   0.366   6.609
11681SOL    HW247106   5.254   0.321   6.665
11682SOL     OW47107   4.749   0.323   5.925
11682SOL    HW147108   4.774   0.417   5.946
11682SOL    HW247109   4.750   0.269   6.009
11683SOL     OW47110   3.873   1.036   7.110
11683SOL    HW147111   3.969   1.051   7.128
11683SOL    HW247112   3.835   0.974   7.179
11684SOL     OW47113   4.372   1.605   6.351
11684SOL    HW147114   4.445   1.628   6.287
11684SOL    HW247115   4.301   1.552   6.305
11685SOL     OW47116   4.714   0.637   7.105
11685SOL    HW147117   4.747   0.554   7.152
11685SOL    HW247118   4.787   0.705   7.104
11686SOL     OW47119   5.318   1.437   6.327
11686SOL    HW147120   5.314   1.472   6.420
11686SOL    HW247121   5.377   1.496   6.271
11687SOL     OW47122   4.907   0.313   5.714
11687SOL    HW147123   5.001   0.283   5.732
11687SOL    HW247124   4.855   0.313   5.800
11688SOL     OW47125   4.059   0.518   6.809
11688SOL    HW147126   4.049   0.431   6.761
11688SOL    HW247127   3.995   0.585   6.772
11689SOL     OW47128   5.141   0.798   6.847
11689SOL    HW147129   5.145   0.892   6.812
11689SOL    HW247130   5.234   0.767   6.869
11690SOL     OW47131   5.517   0.535   6.735
11690SOL    HW147132   5.574   0.617   6.737
11690SOL    HW247133   5.458   0.534   6.815
11691SOL     OW47134   4.647   0.501   6.210
11691SOL    HW147135   4.723   0.529   6.269
11691SOL    HW247136   4.603   0.581   6.171
11692SOL     OW47137   4.882   0.965   5.727
11692SOL    HW147138   4.919   0.915   5.805
11692SOL    HW247139   4.812   0.910   5.682
11693SOL     OW47140   4.724   0.387   7.348
11693SOL    HW147141   4.787   0.392   7.425
11693SOL    HW247142   4.632   0.365   7.381
11694SOL     OW47143   5.465   0.634   5.806
11694SOL    HW147144   5.486   0.553   5.752
11694SOL    HW247145   5.482   0.615   5.903
11695SOL     OW47146   4.759   1.772   5.714
11695SOL    HW147147   4.793   1.685   5.679
11695SOL    HW247148   4.727   1.760   5.808
11696SOL     OW47149   4.440   0.039   7.246
11696SOL    HW147150   4.447  -0.055   7.213
11696SOL    HW247151   4.497   0.049   7.328
11697SOL     OW47152   5.363   0.640   6.514
11697SOL    HW147153   5.348   0.731   6.551
11697SOL    HW247154   5.433   0.593   6.568
11698SOL     OW47155   4.773   1.306   7.280
11698SOL    HW147156   4.795   1.216   7.242
11698SOL    HW247157   4.708   1.353   7.221
11699SOL     OW47158   5.063   0.012   6.390
11699SOL    HW147159   5.012   0.096   6.372
11699SOL    HW247160   5.149   0.014   6.339
11700SOL     OW47161   5.418   0.218   7.319
11700SOL    HW147162   5.395   0.239   7.414
11700SOL    HW247163   5.394   0.123   7.299
11701SOL     OW47164   3.721   0.622   6.063
11701SOL    HW147165   3.723   0.573   6.150
11701SOL    HW247166   3.723   0.721   6.081
11702SOL     OW47167   3.894   1.507   5.917
11702SOL    HW147168   3.921   1.413   5.937
11702SOL    HW247169   3.919   1.529   5.823
11703SOL     OW47170   5.176   1.376   6.791
11703SOL    HW147171   5.147   1.413   6.702
11703SOL    HW247172   5.098   1.376   6.853
11704SOL     OW47173   3.908   1.650   6.154
11704SOL    HW147174   3.824   1.701   6.172
11704SOL    HW247175   3.899   1.599   6.069
11705SOL     OW47176   5.429   1.447   6.829
11705SOL    HW147177   5.460   1.461   6.923
11705SOL    HW247178   5.330   1.434   6.828
11706SOL     OW47179   4.698   1.134   6.855
11706SOL    HW147180   4.748   1.049   6.839
11706SOL    HW247181   4.652   1.161   6.770
11707SOL     OW47182   5.305   0.837   5.929
11707SOL    HW147183   5.373   0.771   5.896
11707SOL    HW247184   5.320   0.925   5.885
11708SOL     OW47185   4.553   1.824   6.577
11708SOL    HW147186   4.599   1.757   6.519
11708SOL    HW247187   4.479   1.780   6.627
11709SOL     OW47188   5.056   0.425   5.959
11709SOL    HW147189   4.993   0.483   5.907
11709SOL    HW247190   5.149   0.459   5.947
11710SOL     OW47191   5.324   0.436   6.029
11710SOL    HW147192   5.420   0.407   6.026
11710SOL    HW247193   5.285   0.414   6.118
11711SOL     OW47194   4.608   1.511   6.466
11711SOL    HW147195   4.666   1.522   6.385
11711SOL    HW247196   4.514   1.535   6.444
11712SOL     OW47197   4.558   0.377   5.751
11712SOL    HW147198   4.467   0.390   5.789
11712SOL    HW247199   4.618   0.337   5.821
11713SOL     OW47200   4.669   1.322   5.686
11713SOL    HW147201   4.722   1.262   5.746
11713SOL    HW247202   4.708   1.323   5.595
11714SOL     OW47203   5.420   1.617   6.171
11714SOL    HW147204   5.387   1.710   6.190
11714SOL    HW247205   5.418   1.601   6.072
11715SOL     OW47206   4.835   0.890   6.160
11715SOL    HW147207   4.900   0.918   6.231
11715SOL    HW247208   4.756   0.951   6.162
11716SOL     OW47209   5.027   0.930   6.363
11716SOL    HW147210   5.048   0.872   6.441
11716SOL    HW247211   5.036   1.026   6.389
11717SOL     OW47212   4.616   1.007   6.108
11717SOL    HW147213   4.603   0.918   6.065
11717SOL    HW247214   4.547   1.021   6.179
11718SOL     OW47215   3.727   0.312   6.011
11718SOL    HW147216   3.787   0.263   5.949
11718SOL    HW247217   3.782   0.364   6.076
11719SOL     OW47218   5.350   1.810   5.702
11719SOL    HW147219   5.440   1.854   5.704
11719SOL    HW247220   5.349   1.741   5.630
11720SOL     OW47221   4.514   0.777   6.860
11720SOL    HW147222   4.516   0.863   6.911
11720SOL    HW247223   4.571   0.709   6.907
11721SOL     OW47224   3.751   1.804   6.931
11721SOL    HW147225   3.759   1.904   6.929
11721SOL    HW247226   3.727   1.775   7.024
11722SOL     OW47227   4.532   0.823   5.925
11722SOL    HW147228   4.443   0.851   5.890
11722SOL    HW247229   4.573   0.757   5.861
11723SOL     OW47230   4.054   0.541   6.464
11723SOL    HW147231   4.110   0.534   6.381
11723SOL    HW247232   4.111   0.519   6.544
11724SOL     OW47233   4.051   1.739   5.735
11724SOL    HW147234   4.143   1.769   5.710
11724SOL    HW247235   4.026   1.778   5.824
11725SOL     OW47236   3.732   1.156   6.484
11725SOL    HW147237   3.642   1.172   6.445
11725SOL    HW247238   3.730   1.072   6.539
11726SOL     OW47239   3.728   1.197   6.028
11726SOL    HW147240   3.806   1.255   6.052
11726SOL    HW247241   3.747   1.148   5.943
11727SOL     OW47242   5.258   0.325   7.112
11727SOL    HW147243   5.197   0.403   7.109
11727SOL    HW247244   5.313   0.329   7.195
11728SOL     OW47245   4.974   0.271   6.403
11728SOL    HW147246   4.973   0.349   6.340
11728SOL    HW247247   5.017   0.298   6.489
11729SOL     OW47248   5.094   0.077   5.699
11729SOL    HW147249   5.174   0.017   5.696
11729SOL    HW247250   5.020   0.030   5.747
11730SOL     OW47251   5.307   0.049   7.133
11730SOL    HW147252   5.333   0.006   7.047
11730SOL    HW247253   5.257   0.133   7.115
11731SOL     OW47254   4.409   0.308   6.265
11731SOL    HW147255   4.398   0.250   6.346
11731SOL    HW247256   4.494   0.360   6.273
11732SOL     OW47257   4.989   0.659   6.657
11732SOL    HW147258   5.043   0.699   6.583
11732SOL    HW247259   5.027   0.688   6.745
11733SOL     OW47260   5.282   0.065   5.973
11733SOL    HW147261   5.289   0.019   5.885
11733SOL    HW247262   5.186   0.075   5.998
11734SOL     OW47263   3.795   1.402   6.642
11734SOL    HW147264   3.764   1.328   6.583
11734SOL    HW247265   3.727   1.420   6.713
11735SOL     OW47266   4.881   0.603   6.375
11735SOL    HW147267   4.963   0.580   6.323
11735SOL    HW247268   4.876   0.544   6.456
11736SOL     OW47269   5.481   0.630   7.211
11736SOL    HW147270   5.470   0.716   7.160
11736SOL    HW247271   5.575   0.621   7.241
11737SOL     OW47272   5.052   0.403   6.630
11737SOL    HW147273   5.026   0.500   6.636
11737SOL    HW247274   5.052   0.363   6.722
11738SOL     OW47275   5.282   0.535   7.381
11738SOL    HW147276   5.362   0.560   7.325
11738SOL    HW247277   5.313   0.500   7.469
11739SOL     OW47278   4.993   0.838   5.961
11739SOL    HW147279   4.939   0.836   6.045
11739SOL    HW247280   5.070   0.901   5.972
11740SOL     OW47281   5.290   0.934   6.181
11740SOL    HW147282   5.304   0.897   6.088
11740SOL    HW247283   5.201   0.904   6.215
11741SOL     OW47284   5.446   0.871   7.076
11741SOL    HW147285   5.348   0.892   7.078
11741SOL    HW247286   5.495   0.947   7.035
11742SOL     OW47287   5.300   0.291   5.755
11742SOL    HW147288   5.305   0.333   5.846
11742SOL    HW247289   5.233   0.216   5.757
11743SOL     OW47290   3.718   1.715   7.184
11743SOL    HW147291   3.790   1.701   7.252
11743SOL    HW247292   3.629   1.718   7.229
11744SOL     OW47293   3.886   0.371   6.208
11744SOL    HW147294   3.829   0.426   6.269
11744SOL    HW247295   3.956   0.323   6.261
11745SOL     OW47296   4.023   0.562   5.806
11745SOL    HW147297   4.095   0.591   5.743
11745SOL    HW247298   3.979   0.642   5.846
11746SOL     OW47299   5.409   0.224   6.909
11746SOL    HW147300   5.365   0.272   6.985
11746SOL    HW247301   5.387   0.270   6.823
11747SOL     OW47302   4.138   1.825   6.272
11747SOL    HW147303   4.062   1.791   6.217
11747SOL    HW247304   4.224   1.788   6.237
11748SOL     OW47305   4.063   1.334   6.717
11748SOL    HW147306   4.075   1.350   6.814
11748SOL    HW247307   3.976   1.374   6.687
11749SOL     OW47308   4.947   1.538   7.363
11749SOL    HW147309   4.906   1.453   7.329
11749SOL    HW247310   4.927   1.612   7.299
11750SOL     OW47311   3.768   0.541   6.381
11750SOL    HW147312   3.732   0.634   6.373
11750SOL    HW247313   3.851   0.542   6.437
11751SOL     OW47314   4.829   0.720   5.583
11751SOL    HW147315   4.760   0.777   5.539
11751SOL    HW247316   4.910   0.714   5.524
11752SOL     OW47317   4.564   0.639   5.726
11752SOL    HW147318   4.654   0.640   5.681
11752SOL    HW247319   4.541   0.545   5.751
11753SOL     OW47320   5.015   0.156   6.020
11753SOL    HW147321   4.925   0.140   6.061
11753SOL    HW247322   5.023   0.252   5.994
11754SOL     OW47323   5.129   0.556   7.036
11754SOL    HW147324   5.081   0.579   7.120
11754SOL    HW247325   5.063   0.526   6.967
11755SOL     OW47326   3.764   0.071   5.680
11755SOL    HW147327   3.827  -0.006   5.688
11755SOL    HW247328   3.784   0.139   5.751
11756SOL     OW47329   5.336   1.058   5.781
11756SOL    HW147330   5.407   1.128   5.783
11756SOL    HW247331   5.323   1.028   5.686
11757SOL     OW47332   4.318   0.659   6.703
11757SOL    HW147333   4.393   0.702   6.752
11757SOL    HW247334   4.251   0.624   6.769
11758SOL     OW47335   4.853   1.049   7.180
11758SOL    HW147336   4.775   0.995   7.213
11758SOL    HW247337   4.934   1.027   7.235
11759SOL     OW47338   4.782   0.231   6.176
11759SOL    HW147339   4.841   0.291   6.231
11759SOL    HW247340   4.709   0.195   6.233
11760SOL     OW47341   4.010   1.773   6.814
11760SOL    HW147342   3.990   1.755   6.718
11760SOL    HW247343   3.937   1.735   6.871
11761SOL     OW47344   4.703   1.237   6.359
11761SOL    HW147345   4.742   1.280   6.278
11761SOL    HW247346   4.776   1.220   6.426
11762SOL     OW47347   3.736   0.975   6.687
11762SOL    HW147348   3.825   0.953   6.727
11762SOL    HW247349   3.681   0.891   6.683
11763SOL     OW47350   4.380   0.637   7.295
11763SOL    HW147351   4.332   0.688   7.224
11763SOL    HW247352   4.473   0.616   7.265
11764SOL     OW47353   5.483   0.219   6.388
11764SOL    HW147354   5.438   0.201   6.475
11764SOL    HW247355   5.581   0.236   6.404
11765SOL     OW47356   4.869   0.618   5.849
11765SOL    HW147357   4.921   0.690   5.895
11765SOL    HW247358   4.882   0.625   5.751
11766SOL     OW47359   5.230   1.433   7.176
11766SOL    HW147360   5.215   1.335   7.190
11766SOL    HW247361   5.147   1.475   7.140
11767SOL     OW47362   3.987   0.875   6.916
11767SOL    HW147363   3.951   0.785   6.942
11767SOL    HW247364   3.948   0.945   6.976
11768SOL     OW47365   4.489   1.501   5.574
11768SOL    HW147366   4.464   1.578   5.633
11768SOL    HW247367   4.553   1.441   5.622
11769SOL     OW47368   4.307   1.708   6.608
11769SOL    HW147369   4.327   1.678   6.515
11769SOL    HW247370   4.232   1.653   6.645
11770SOL     OW47371   4.628   1.466   5.994
11770SOL    HW147372   4.678   1.454   5.909
11770SOL    HW247373   4.574   1.383   6.013
11771SOL     OW47374   3.818   0.813   6.394
11771SOL    HW147375   3.913   0.804   6.362
11771SOL    HW247376   3.784   0.905   6.373
11772SOL     OW47377   3.755   0.930   7.321
11772SOL    HW147378   3.670   0.881   7.302
11772SOL    HW247379   3.782   0.917   7.416
11773SOL     OW47380   5.300   0.905   6.591
11773SOL    HW147381   5.319   0.944   6.500
11773SOL    HW247382   5.254   0.974   6.647
11774SOL     OW47383   4.992   0.348   6.887
11774SOL    HW147384   5.063   0.320   6.951
11774SOL    HW247385   4.939   0.268   6.859
11775SOL     OW47386   4.914   0.148   7.329
11775SOL    HW147387   4.973   0.164   7.409
11775SOL    HW247388   4.861   0.231   7.310
11776SOL     OW47389   4.130   1.567   7.154
11776SOL    HW147390   4.072   1.632   7.203
11776SOL    HW247391   4.192   1.617   7.094
11777SOL     OW47392   5.486   1.454   7.095
11777SOL    HW147393   5.514   1.547   7.117
11777SOL    HW247394   5.393   1.438   7.128
11778SOL     OW47395   4.736   0.567   6.645
11778SOL    HW147396   4.822   0.618   6.644
11778SOL    HW247397   4.742   0.493   6.712
11779SOL     OW47398   4.140   1.513   6.217
11779SOL    HW147399   4.138   1.414   6.230
11779SOL    HW247400   4.049   1.546   6.194
11780SOL     OW47401   4.781   1.630   6.805
11780SOL    HW147402   4.707   1.694   6.823
11780SOL    HW247403   4.860   1.679   6.767
11781SOL     OW47404   3.990   1.760   7.304
11781SOL    HW147405   4.033   1.844   7.270
11781SOL    HW247406   4.015   1.747   7.400
11782SOL     OW47407   3.850   1.296   7.175
11782SOL    HW147408   3.829   1.201   7.148
11782SOL    HW247409   3.781   1.357   7.137
11783SOL     OW47410   3.939   1.661   6.579
11783SOL    HW147411   3.881   1.581   6.593
11783SOL    HW247412   3.963   1.668   6.482
11784SOL     OW47413   4.685   0.182   6.434
11784SOL    HW147414   4.781   0.183   6.462
11784SOL    HW247415   4.630   0.139   6.506
11785SOL     OW47416   4.747   1.188   5.950
11785SOL    HW147417   4.827   1.224   5.998
11785SOL    HW247418   4.705   1.115   6.006
11786SOL     OW47419   5.338   0.455   6.314
11786SOL    HW147420   5.357   0.541   6.361
11786SOL    HW247421   5.406   0.386   6.342
11787SOL     OW47422   4.481   1.127   5.800
11787SOL    HW147423   4.553   1.186   5.765
11787SOL    HW247424   4.521   1.043   5.836
11788SOL     OW47425   4.552   0.103   5.652
11788SOL    HW147426   4.627   0.037   5.664
11788SOL    HW247427   4.583   0.194   5.680
11789SOL     OW47428   4.231   0.532   6.264
11789SOL    HW147429   4.269   0.443   6.290
11789SOL    HW247430   4.298   0.582   6.209
11790SOL     OW47431   5.441   1.133   6.887
11790SOL    HW147432   5.455   1.231   6.901
11790SOL    HW247433   5.498   1.102   6.811
11791SOL     OW47434   4.351   1.681   5.739
11791SOL    HW147435   4.326   1.776   5.723
11791SOL    HW247436   4.318   1.653   5.829
11792SOL     OW47437   5.001   1.104   6.963
11792SOL    HW147438   4.945   1.063   7.034
11792SOL    HW247439   4.981   1.202   6.957
11793SOL     OW47440   4.268   1.720   6.963
11793SOL    HW147441   4.317   1.800   6.927
11793SOL    HW247442   4.176   1.718   6.924
11794SOL     OW47443   5.350   1.562   6.564
11794SOL    HW147444   5.322   1.655   6.588
11794SOL    HW247445   5.400   1.521   6.640
11795SOL     OW47446   3.746   0.935   6.125
11795SOL    HW147447   3.753   1.034   6.112
11795SOL    HW247448   3.655   0.912   6.159
11796SOL     OW47449   5.322   1.109   6.375
11796SOL    HW147450   5.284   1.198   6.348
11796SOL    HW247451   5.322   1.047   6.297
11797SOL     OW47452   4.480   0.515   6.544
11797SOL    HW147453   4.572   0.543   6.571
11797SOL    HW247454   4.412   0.566   6.598
11798SOL     OW47455   3.899   0.708   6.685
11798SOL    HW147456   3.937   0.767   6.756
11798SOL    HW247457   3.882   0.761   6.603
11799SOL     OW47458   4.070   1.354   6.983
11799SOL    HW147459   4.089   1.442   7.027
11799SOL    HW247460   3.975   1.328   7.001
11800SOL     OW47461   5.313   1.670   7.331
11800SOL    HW147462   5.282   1.592   7.276
11800SOL    HW247463   5.282   1.755   7.289
11801SOL     OW47464   5.021   1.208   6.052
11801SOL    HW147465   5.120   1.212   6.068
11801SOL    HW247466   5.004   1.194   5.954
11802SOL     OW47467   4.374   0.374   6.000
11802SOL    HW147468   4.276   0.368   5.980
11802SOL    HW247469   4.393   0.331   6.088
11803SOL     OW47470   5.294   0.057   6.259
11803SOL    HW147471   5.289   0.098   6.168
11803SOL    HW247472   5.375   0.091   6.306
11804SOL     OW47473   4.897   0.813   6.952
11804SOL    HW147474   4.996   0.822   6.942
11804SOL    HW247475   4.853   0.815   6.862
11805SOL     OW47476   5.056   1.480   6.566
11805SOL    HW147477   4.970   1.437   6.595
11805SOL    HW247478   5.045   1.520   6.475
11806SOL     OW47479   5.059   0.465   6.241
11806SOL    HW147480   5.058   0.457   6.142
11806SOL    HW247481   5.148   0.437   6.276
11807SOL     OW47482   4.786   1.481   8.074
11807SOL    HW147483   4.877   1.515   8.097
11807SOL    HW247484   4.758   1.519   7.986
11808SOL     OW47485   5.297   1.277   7.932
11808SOL    HW147486   5.308   1.361   7.986
11808SOL    HW247487   5.387   1.240   7.909
11809SOL     OW47488   5.377   0.559   8.796
11809SOL    HW147489   5.279   0.551   8.818
11809SOL    HW247490   5.430   0.548   8.880
11810SOL     OW47491   5.031   1.585   8.176
11810SOL    HW147492   5.020   1.682   8.199
11810SOL    HW247493   5.124   1.568   8.146
11811SOL     OW47494   4.909   0.096   8.734
11811SOL    HW147495   4.833   0.051   8.781
11811SOL    HW247496   4.938   0.041   8.656
11812SOL     OW47497   4.647   0.876   9.111
11812SOL    HW147498   4.612   0.851   9.021
11812SOL    HW247499   4.571   0.897   9.172
11813SOL     OW47500   4.254   1.550   7.805
11813SOL    HW147501   4.210   1.559   7.894
11813SOL    HW247502   4.325   1.480   7.809
11814SOL     OW47503   4.272   0.083   7.527
11814SOL    HW147504   4.360   0.111   7.488
11814SOL    HW247505   4.200   0.146   7.497
11815SOL     OW47506   5.242   1.068   8.910
11815SOL    HW147507   5.150   1.073   8.872
11815SOL    HW247508   5.307   1.106   8.844
11816SOL     OW47509   5.142   1.075   8.591
11816SOL    HW147510   5.067   1.064   8.656
11816SOL    HW247511   5.179   1.168   8.597
11817SOL     OW47512   4.638   1.330   8.891
11817SOL    HW147513   4.581   1.393   8.837
11817SOL    HW247514   4.671   1.256   8.832
11818SOL     OW47515   4.181   1.223   8.100
11818SOL    HW147516   4.114   1.177   8.159
11818SOL    HW247517   4.273   1.191   8.123
11819SOL     OW47518   4.408   0.629   7.931
11819SOL    HW147519   4.447   0.699   7.872
11819SOL    HW247520   4.382   0.549   7.877
11820SOL     OW47521   5.028   0.537   9.140
11820SOL    HW147522   5.124   0.541   9.166
11820SOL    HW247523   4.984   0.461   9.187
11821SOL     OW47524   4.111   1.392   7.584
11821SOL    HW147525   4.175   1.408   7.509
11821SOL    HW247526   4.135   1.450   7.662
11822SOL     OW47527   4.262   0.348   8.394
11822SOL    HW147528   4.338   0.413   8.390
11822SOL    HW247529   4.292   0.259   8.361
11823SOL     OW47530   3.959   0.774   7.812
11823SOL    HW147531   3.974   0.708   7.886
11823SOL    HW247532   3.909   0.853   7.847
11824SOL     OW47533   4.545   1.719   7.989
11824SOL    HW147534   4.610   1.652   7.953
11824SOL    HW247535   4.535   1.795   7.925
11825SOL     OW47536   5.437   1.601   7.731
11825SOL    HW147537   5.533   1.575   7.724
11825SOL    HW247538   5.413   1.661   7.655
11826SOL     OW47539   5.349   0.294   8.502
11826SOL    HW147540   5.400   0.366   8.455
11826SOL    HW247541   5.254   0.321   8.511
11827SOL     OW47542   4.749   0.323   7.771
11827SOL    HW147543   4.774   0.417   7.792
11827SOL    HW247544   4.750   0.269   7.855
11828SOL     OW47545   3.873   1.036   8.956
11828SOL    HW147546   3.969   1.051   8.974
11828SOL    HW247547   3.835   0.974   9.025
11829SOL     OW47548   4.199   0.681   7.499
11829SOL    HW147549   4.159   0.760   7.452
11829SOL    HW247550   4.288   0.660   7.459
11830SOL     OW47551   4.372   1.605   8.197
11830SOL    HW147552   4.445   1.628   8.133
11830SOL    HW247553   4.301   1.552   8.151
11831SOL     OW47554   4.714   0.637   8.951
11831SOL    HW147555   4.747   0.554   8.998
11831SOL    HW247556   4.787   0.705   8.950
11832SOL     OW47557   5.318   1.437   8.173
11832SOL    HW147558   5.314   1.472   8.266
11832SOL    HW247559   5.377   1.496   8.117
11833SOL     OW47560   4.049   1.258   7.849
11833SOL    HW147561   4.095   1.232   7.934
11833SOL    HW247562   4.069   1.190   7.778
11834SOL     OW47563   4.907   0.313   7.560
11834SOL    HW147564   5.001   0.283   7.578
11834SOL    HW247565   4.855   0.313   7.646
11835SOL     OW47566   4.059   0.518   8.655
11835SOL    HW147567   4.049   0.431   8.607
11835SOL    HW247568   3.995   0.585   8.618
11836SOL     OW47569   5.141   0.798   8.693
11836SOL    HW147570   5.145   0.892   8.658
11836SOL    HW247571   5.234   0.767   8.715
11837SOL     OW47572   4.094   0.290   7.814
11837SOL    HW147573   4.048   0.330   7.893
11837SOL    HW247574   4.042   0.309   7.732
11838SOL     OW47575   5.222   1.817   8.726
11838SOL    HW147576   5.165   1.768   8.660
11838SOL    HW247577   5.308   1.844   8.683
11839SOL     OW47578   5.517   0.535   8.581
11839SOL    HW147579   5.574   0.617   8.583
11839SOL    HW247580   5.458   0.534   8.661
11840SOL     OW47581   5.534   1.761   8.494
11840SOL    HW147582   5.580   1.771   8.582
11840SOL    HW247583   5.601   1.764   8.421
11841SOL     OW47584   4.647   0.501   8.056
11841SOL    HW147585   4.723   0.529   8.115
11841SOL    HW247586   4.603   0.581   8.017
11842SOL     OW47587   4.882   0.965   7.573
11842SOL    HW147588   4.919   0.915   7.651
11842SOL    HW247589   4.812   0.910   7.528
11843SOL     OW47590   4.724   0.387   9.194
11843SOL    HW147591   4.787   0.392   9.271
11843SOL    HW247592   4.632   0.365   9.227
11844SOL     OW47593   5.465   0.634   7.652
11844SOL    HW147594   5.486   0.553   7.598
11844SOL    HW247595   5.482   0.615   7.749
11845SOL     OW47596   4.440   0.039   9.092
11845SOL    HW147597   4.447  -0.055   9.059
11845SOL    HW247598   4.497   0.049   9.174
11846SOL     OW47599   5.363   0.640   8.360
11846SOL    HW147600   5.348   0.731   8.397
11846SOL    HW247601   5.433   0.593   8.414
11847SOL     OW47602   4.773   1.306   9.126
11847SOL    HW147603   4.795   1.216   9.088
11847SOL    HW247604   4.708   1.353   9.067
11848SOL     OW47605   4.428   1.148   9.130
11848SOL    HW147606   4.399   1.225   9.187
11848SOL    HW247607   4.438   1.067   9.188
11849SOL     OW47608   5.063   0.012   8.236
11849SOL    HW147609   5.012   0.096   8.218
11849SOL    HW247610   5.149   0.014   8.185
11850SOL     OW47611   5.418   0.218   9.165
11850SOL    HW147612   5.395   0.239   9.260
11850SOL    HW247613   5.394   0.123   9.145
11851SOL     OW47614   3.721   0.622   7.909
11851SOL    HW147615   3.723   0.573   7.996
11851SOL    HW247616   3.723   0.721   7.927
11852SOL     OW47617   4.042   0.210   8.230
11852SOL    HW147618   4.094   0.250   8.305
11852SOL    HW247619   4.095   0.137   8.187
11853SOL     OW47620   4.026   0.258   8.564
11853SOL    HW147621   3.991   0.165   8.564
11853SOL    HW247622   4.113   0.261   8.515
11854SOL     OW47623   4.693   0.880   8.304
11854SOL    HW147624   4.719   0.960   8.250
11854SOL    HW247625   4.687   0.800   8.244
11855SOL     OW47626   3.894   1.507   7.763
11855SOL    HW147627   3.921   1.413   7.783
11855SOL    HW247628   3.919   1.529   7.669
11856SOL     OW47629   5.176   1.376   8.637
11856SOL    HW147630   5.147   1.413   8.548
11856SOL    HW247631   5.098   1.376   8.699
11857SOL     OW47632   3.908   1.650   8.000
11857SOL    HW147633   3.824   1.701   8.018
11857SOL    HW247634   3.899   1.599   7.915
11858SOL     OW47635   5.429   1.447   8.675
11858SOL    HW147636   5.460   1.461   8.769
11858SOL    HW247637   5.330   1.434   8.674
11859SOL     OW47638   4.181   0.947   7.402
11859SOL    HW147639   4.150   0.981   7.314
11859SOL    HW247640   4.185   1.022   7.468
11860SOL     OW47641   4.698   1.134   8.701
11860SOL    HW147642   4.748   1.049   8.685
11860SOL    HW247643   4.652   1.161   8.616
11861SOL     OW47644   3.785   0.839   7.575
11861SOL    HW147645   3.845   0.786   7.635
11861SOL    HW247646   3.691   0.807   7.587
11862SOL     OW47647   5.305   0.837   7.775
11862SOL    HW147648   5.373   0.771   7.742
11862SOL    HW247649   5.320   0.925   7.731
11863SOL     OW47650   4.553   1.824   8.423
11863SOL    HW147651   4.599   1.757   8.365
11863SOL    HW247652   4.479   1.780   8.473
11864SOL     OW47653   4.460   0.893   7.459
11864SOL    HW147654   4.489   0.812   7.510
11864SOL    HW247655   4.360   0.892   7.450
11865SOL     OW47656   5.056   0.425   7.805
11865SOL    HW147657   4.993   0.483   7.753
11865SOL    HW247658   5.149   0.459   7.793
11866SOL     OW47659   3.953   0.626   8.905
11866SOL    HW147660   3.973   0.531   8.880
11866SOL    HW247661   3.916   0.629   8.998
11867SOL     OW47662   3.835   0.281   8.795
11867SOL    HW147663   3.907   0.291   8.726
11867SOL    HW247664   3.746   0.280   8.750
11868SOL     OW47665   4.733   0.902   8.560
11868SOL    HW147666   4.727   0.888   8.461
11868SOL    HW247667   4.652   0.863   8.604
11869SOL     OW47668   5.324   0.436   7.875
11869SOL    HW147669   5.420   0.407   7.872
11869SOL    HW247670   5.285   0.414   7.964
11870SOL     OW47671   4.608   1.511   8.312
11870SOL    HW147672   4.666   1.522   8.231
11870SOL    HW247673   4.514   1.535   8.290
11871SOL     OW47674   4.558   0.377   7.597
11871SOL    HW147675   4.467   0.390   7.635
11871SOL    HW247676   4.618   0.337   7.667
11872SOL     OW47677   5.420   1.617   8.017
11872SOL    HW147678   5.387   1.710   8.036
11872SOL    HW247679   5.418   1.601   7.918
11873SOL     OW47680   4.835   0.890   8.006
11873SOL    HW147681   4.900   0.918   8.077
11873SOL    HW247682   4.756   0.951   8.008
11874SOL     OW47683   4.583   1.616   9.030
11874SOL    HW147684   4.571   1.547   8.959
11874SOL    HW247685   4.546   1.581   9.117
11875SOL     OW47686   5.027   0.930   8.209
11875SOL    HW147687   5.048   0.872   8.287
11875SOL    HW247688   5.036   1.026   8.235
11876SOL     OW47689   3.983   1.059   8.255
11876SOL    HW147690   3.906   1.121   8.248
11876SOL    HW247691   4.020   1.060   8.348
11877SOL     OW47692   4.616   1.007   7.954
11877SOL    HW147693   4.603   0.918   7.911
11877SOL    HW247694   4.547   1.021   8.025
11878SOL     OW47695   4.920   1.395   8.793
11878SOL    HW147696   4.953   1.480   8.834
11878SOL    HW247697   4.821   1.391   8.800
11879SOL     OW47698   5.350   1.810   7.548
11879SOL    HW147699   5.440   1.854   7.550
11879SOL    HW247700   5.349   1.741   7.476
11880SOL     OW47701   4.514   0.777   8.706
11880SOL    HW147702   4.516   0.863   8.757
11880SOL    HW247703   4.571   0.709   8.753
11881SOL     OW47704   3.751   1.804   8.777
11881SOL    HW147705   3.759   1.904   8.775
11881SOL    HW247706   3.727   1.775   8.870
11882SOL     OW47707   4.532   0.823   7.771
11882SOL    HW147708   4.443   0.851   7.736
11882SOL    HW247709   4.573   0.757   7.707
11883SOL     OW47710   4.054   0.541   8.310
11883SOL    HW147711   4.110   0.534   8.227
11883SOL    HW247712   4.111   0.519   8.390
11884SOL     OW47713   4.051   1.739   7.581
11884SOL    HW147714   4.143   1.769   7.556
11884SOL    HW247715   4.026   1.778   7.670
11885SOL     OW47716   5.027   1.761   8.518
11885SOL    HW147717   5.046   1.824   8.444
11885SOL    HW247718   5.035   1.667   8.485
11886SOL     OW47719   3.732   1.156   8.330
11886SOL    HW147720   3.642   1.172   8.291
11886SOL    HW247721   3.730   1.072   8.385
11887SOL     OW47722   4.483   0.061   7.780
11887SOL    HW147723   4.444   0.050   7.689
11887SOL    HW247724   4.439   0.137   7.827
11888SOL     OW47725   3.728   1.197   7.874
11888SOL    HW147726   3.806   1.255   7.898
11888SOL    HW247727   3.747   1.148   7.789
11889SOL     OW47728   5.258   0.325   8.958
11889SOL    HW147729   5.197   0.403   8.955
11889SOL    HW247730   5.313   0.329   9.041
11890SOL     OW47731   4.974   0.271   8.249
11890SOL    HW147732   4.973   0.349   8.186
11890SOL    HW247733   5.017   0.298   8.335
11891SOL     OW47734   5.094   0.077   7.545
11891SOL    HW147735   5.174   0.017   7.542
11891SOL    HW247736   5.020   0.030   7.593
11892SOL     OW47737   5.307   0.049   8.979
11892SOL    HW147738   5.333   0.006   8.893
11892SOL    HW247739   5.257   0.133   8.961
11893SOL     OW47740   4.409   0.308   8.111
11893SOL    HW147741   4.398   0.250   8.192
11893SOL    HW247742   4.494   0.360   8.119
11894SOL     OW47743   4.989   0.659   8.503
11894SOL    HW147744   5.043   0.699   8.429
11894SOL    HW247745   5.027   0.688   8.591
11895SOL     OW47746   5.282   0.065   7.819
11895SOL    HW147747   5.289   0.019   7.731
11895SOL    HW247748   5.186   0.075   7.844
11896SOL     OW47749   4.258   1.380   9.182
11896SOL    HW147750   4.219   1.443   9.115
11896SOL    HW247751   4.341   1.420   9.222
11897SOL     OW47752   4.134   1.112   9.014
11897SOL    HW147753   4.153   1.136   8.919
11897SOL    HW247754   4.127   1.195   9.069
11898SOL     OW47755   3.795   1.402   8.488
11898SOL    HW147756   3.764   1.328   8.429
11898SOL    HW247757   3.727   1.420   8.559
11899SOL     OW47758   4.881   0.603   8.221
11899SOL    HW147759   4.963   0.580   8.169
11899SOL    HW247760   4.876   0.544   8.302
11900SOL     OW47761   5.481   0.630   9.057
11900SOL    HW147762   5.470   0.716   9.006
11900SOL    HW247763   5.575   0.621   9.087
11901SOL     OW47764   5.052   0.403   8.476
11901SOL    HW147765   5.026   0.500   8.482
11901SOL    HW247766   5.052   0.363   8.568
11902SOL     OW47767   5.282   0.535   9.227
11902SOL    HW147768   5.362   0.560   9.171
11902SOL    HW247769   5.313   0.500   9.315
11903SOL     OW47770   4.993   0.838   7.807
11903SOL    HW147771   4.939   0.836   7.891
11903SOL    HW247772   5.070   0.901   7.818
11904SOL     OW47773   5.290   0.934   8.027
11904SOL    HW147774   5.304   0.897   7.934
11904SOL    HW247775   5.201   0.904   8.061
11905SOL     OW47776   5.446   0.871   8.922
11905SOL    HW147777   5.348   0.892   8.924
11905SOL    HW247778   5.495   0.947   8.881
11906SOL     OW47779   5.300   0.291   7.601
11906SOL    HW147780   5.305   0.333   7.692
11906SOL    HW247781   5.233   0.216   7.603
11907SOL     OW47782   4.447   1.506   8.821
11907SOL    HW147783   4.384   1.584   8.828
11907SOL    HW247784   4.415   1.444   8.749
11908SOL     OW47785   3.718   1.715   9.030
11908SOL    HW147786   3.790   1.701   9.098
11908SOL    HW247787   3.629   1.718   9.075
11909SOL     OW47788   3.886   0.371   8.054
11909SOL    HW147789   3.829   0.426   8.115
11909SOL    HW247790   3.956   0.323   8.107
11910SOL     OW47791   5.058   1.603   8.917
11910SOL    HW147792   5.011   1.671   8.972
11910SOL    HW247793   5.125   1.649   8.858
11911SOL     OW47794   4.023   0.562   7.652
11911SOL    HW147795   4.095   0.591   7.589
11911SOL    HW247796   3.979   0.642   7.692
11912SOL     OW47797   5.409   0.224   8.755
11912SOL    HW147798   5.365   0.272   8.831
11912SOL    HW247799   5.387   0.270   8.669
11913SOL     OW47800   4.138   1.825   8.118
11913SOL    HW147801   4.062   1.791   8.063
11913SOL    HW247802   4.224   1.788   8.083
11914SOL     OW47803   4.063   1.334   8.563
11914SOL    HW147804   4.075   1.350   8.660
11914SOL    HW247805   3.976   1.374   8.533
11915SOL     OW47806   4.947   1.538   9.209
11915SOL    HW147807   4.906   1.453   9.175
11915SOL    HW247808   4.927   1.612   9.145
11916SOL     OW47809   4.437   1.258   7.899
11916SOL    HW147810   4.480   1.189   7.841
11916SOL    HW247811   4.401   1.215   7.982
11917SOL     OW47812   4.069   0.809   8.101
11917SOL    HW147813   4.061   0.907   8.119
11917SOL    HW247814   4.153   0.775   8.142
11918SOL     OW47815   3.915   0.289   7.616
11918SOL    HW147816   3.959   0.258   7.533
11918SOL    HW247817   3.916   0.389   7.620
11919SOL     OW47818   3.768   0.541   8.227
11919SOL    HW147819   3.732   0.634   8.219
11919SOL    HW247820   3.851   0.542   8.283
11920SOL     OW47821   4.203   1.128   7.613
11920SOL    HW147822   4.303   1.128   7.624
11920SOL    HW247823   4.172   1.221   7.592
11921SOL     OW47824   4.829   0.720   7.429
11921SOL    HW147825   4.760   0.777   7.385
11921SOL    HW247826   4.910   0.714   7.370
11922SOL     OW47827   4.564   0.639   7.572
11922SOL    HW147828   4.654   0.640   7.527
11922SOL    HW247829   4.541   0.545   7.597
11923SOL     OW47830   5.015   0.156   7.866
11923SOL    HW147831   4.925   0.140   7.907
11923SOL    HW247832   5.023   0.252   7.840
11924SOL     OW47833   5.129   0.556   8.882
11924SOL    HW147834   5.081   0.579   8.966
11924SOL    HW247835   5.063   0.526   8.813
11925SOL     OW47836   3.764   0.071   7.526
11925SOL    HW147837   3.827  -0.006   7.534
11925SOL    HW247838   3.784   0.139   7.597
11926SOL     OW47839   4.037   1.046   8.527
11926SOL    HW147840   4.048   1.001   8.616
11926SOL    HW247841   4.064   1.142   8.534
11927SOL     OW47842   5.336   1.058   7.627
11927SOL    HW147843   5.407   1.128   7.629
11927SOL    HW247844   5.323   1.028   7.532
11928SOL     OW47845   4.318   0.659   8.549
11928SOL    HW147846   4.393   0.702   8.598
11928SOL    HW247847   4.251   0.624   8.615
11929SOL     OW47848   4.461   1.028   8.866
11929SOL    HW147849   4.530   1.080   8.816
11929SOL    HW247850   4.456   1.061   8.961
11930SOL     OW47851   4.853   1.049   9.026
11930SOL    HW147852   4.775   0.995   9.059
11930SOL    HW247853   4.934   1.027   9.081
11931SOL     OW47854   4.782   0.231   8.022
11931SOL    HW147855   4.841   0.291   8.077
11931SOL    HW247856   4.709   0.195   8.079
11932SOL     OW47857   4.892   1.763   9.062
11932SOL    HW147858   4.797   1.761   9.030
11932SOL    HW247859   4.913   1.854   9.099
11933SOL     OW47860   4.310   0.108   8.293
11933SOL    HW147861   4.238   0.041   8.279
11933SOL    HW247862   4.392   0.062   8.328
11934SOL     OW47863   4.010   1.773   8.660
11934SOL    HW147864   3.990   1.755   8.564
11934SOL    HW247865   3.937   1.735   8.717
11935SOL     OW47866   4.703   1.237   8.205
11935SOL    HW147867   4.742   1.280   8.124
11935SOL    HW247868   4.776   1.220   8.272
11936SOL     OW47869   4.397   0.965   8.407
11936SOL    HW147870   4.395   0.881   8.352
11936SOL    HW247871   4.346   0.951   8.492
11937SOL     OW47872   3.736   0.975   8.533
11937SOL    HW147873   3.825   0.953   8.573
11937SOL    HW247874   3.681   0.891   8.529
11938SOL     OW47875   3.964   0.020   7.813
11938SOL    HW147876   4.002   0.108   7.840
11938SOL    HW247877   3.887  -0.004   7.873
11939SOL     OW47878   4.380   0.637   9.141
11939SOL    HW147879   4.332   0.688   9.070
11939SOL    HW247880   4.473   0.616   9.111
11940SOL     OW47881   3.786   1.107   7.633
11940SOL    HW147882   3.776   1.010   7.612
11940SOL    HW247883   3.839   1.152   7.561
11941SOL     OW47884   5.483   0.219   8.234
11941SOL    HW147885   5.438   0.201   8.321
11941SOL    HW247886   5.581   0.236   8.250
11942SOL     OW47887   4.531   1.195   8.486
11942SOL    HW147888   4.482   1.110   8.467
11942SOL    HW247889   4.601   1.210   8.417
11943SOL     OW47890   4.869   0.618   7.695
11943SOL    HW147891   4.921   0.690   7.741
11943SOL    HW247892   4.882   0.625   7.597
11944SOL     OW47893   5.230   1.433   9.022
11944SOL    HW147894   5.215   1.335   9.036
11944SOL    HW247895   5.147   1.475   8.986
11945SOL     OW47896   3.987   0.875   8.762
11945SOL    HW147897   3.951   0.785   8.788
11945SOL    HW247898   3.948   0.945   8.822
11946SOL     OW47899   4.307   1.708   8.454
11946SOL    HW147900   4.327   1.678   8.361
11946SOL    HW247901   4.232   1.653   8.491
11947SOL     OW47902   4.450   1.119   8.171
11947SOL    HW147903   4.539   1.165   8.171
11947SOL    HW247904   4.443   1.059   8.250
11948SOL     OW47905   4.628   1.466   7.840
11948SOL    HW147906   4.678   1.454   7.755
11948SOL    HW247907   4.574   1.383   7.859
11949SOL     OW47908   3.818   0.813   8.240
11949SOL    HW147909   3.913   0.804   8.208
11949SOL    HW247910   3.784   0.905   8.219
11950SOL     OW47911   3.755   0.930   9.167
11950SOL    HW147912   3.670   0.881   9.148
11950SOL    HW247913   3.782   0.917   9.262
11951SOL     OW47914   4.652   1.839   8.873
11951SOL    HW147915   4.624   1.752   8.914
11951SOL    HW247916   4.596   1.913   8.910
11952SOL     OW47917   4.881   1.186   8.403
11952SOL    HW147918   4.865   1.280   8.434
11952SOL    HW247919   4.884   1.125   8.483
11953SOL     OW47920   4.155   0.457   9.167
11953SOL    HW147921   4.191   0.404   9.090
11953SOL    HW247922   4.216   0.534   9.185
11954SOL     OW47923   4.219   0.874   7.739
11954SOL    HW147924   4.169   0.939   7.683
11954SOL    HW247925   4.161   0.795   7.758
11955SOL     OW47926   5.300   0.905   8.437
11955SOL    HW147927   5.319   0.944   8.346
11955SOL    HW247928   5.254   0.974   8.493
11956SOL     OW47929   4.992   0.348   8.733
11956SOL    HW147930   5.063   0.320   8.797
11956SOL    HW247931   4.939   0.268   8.705
11957SOL     OW47932   3.693   0.047   7.934
11957SOL    HW147933   3.606   0.034   7.887
11957SOL    HW247934   3.701   0.142   7.964
11958SOL     OW47935   4.914   0.148   9.175
11958SOL    HW147936   4.973   0.164   9.255
11958SOL    HW247937   4.861   0.231   9.156
11959SOL     OW47938   4.130   1.567   9.000
11959SOL    HW147939   4.072   1.632   9.049
11959SOL    HW247940   4.192   1.617   8.940
11960SOL     OW47941   5.486   1.454   8.941
11960SOL    HW147942   5.514   1.547   8.963
11960SOL    HW247943   5.393   1.438   8.974
11961SOL     OW47944   4.736   0.567   8.491
11961SOL    HW147945   4.822   0.618   8.490
11961SOL    HW247946   4.742   0.493   8.558
11962SOL     OW47947   4.140   1.513   8.063
11962SOL    HW147948   4.138   1.414   8.076
11962SOL    HW247949   4.049   1.546   8.040
11963SOL     OW47950   4.781   1.630   8.651
11963SOL    HW147951   4.707   1.694   8.669
11963SOL    HW247952   4.860   1.679   8.613
11964SOL     OW47953   3.990   1.760   9.150
11964SOL    HW147954   4.033   1.844   9.116
11964SOL    HW247955   4.015   1.747   9.246
11965SOL     OW47956   3.850   1.296   9.021
11965SOL    HW147957   3.829   1.201   8.994
11965SOL    HW247958   3.781   1.357   8.983
11966SOL     OW47959   3.939   1.661   8.425
11966SOL    HW147960   3.881   1.581   8.439
11966SOL    HW247961   3.963   1.668   8.328
11967SOL     OW47962   4.685   0.182   8.280
11967SOL    HW147963   4.781   0.183   8.308
11967SOL    HW247964   4.630   0.139   8.352
11968SOL     OW47965   4.747   1.188   7.796
11968SOL    HW147966   4.827   1.224   7.844
11968SOL    HW247967   4.705   1.115   7.852
11969SOL     OW47968   5.338   0.455   8.160
11969SOL    HW147969   5.357   0.541   8.207
11969SOL    HW247970   5.406   0.386   8.188
11970SOL     OW47971   4.481   1.127   7.646
11970SOL    HW147972   4.553   1.186   7.611
11970SOL    HW247973   4.521   1.043   7.682
11971SOL     OW47974   4.552   0.103   7.498
11971SOL    HW147975   4.627   0.037   7.510
11971SOL    HW247976   4.583   0.194   7.526
11972SOL     OW47977   4.231   0.532   8.110
11972SOL    HW147978   4.269   0.443   8.136
11972SOL    HW247979   4.298   0.582   8.055
11973SOL     OW47980   4.219   1.090   8.764
11973SOL    HW147981   4.315   1.070   8.784
11973SOL    HW247982   4.208   1.188   8.746
11974SOL     OW47983   5.441   1.133   8.733
11974SOL    HW147984   5.455   1.231   8.747
11974SOL    HW247985   5.498   1.102   8.657
11975SOL     OW47986   3.924   1.242   7.425
11975SOL    HW147987   3.916   1.254   7.326
11975SOL    HW247988   3.983   1.313   7.463
11976SOL     OW47989   5.001   1.104   8.809
11976SOL    HW147990   4.945   1.063   8.880
11976SOL    HW247991   4.981   1.202   8.803
11977SOL     OW47992   4.268   1.720   8.809
11977SOL    HW147993   4.317   1.800   8.773
11977SOL    HW247994   4.176   1.718   8.770
11978SOL     OW47995   3.911   0.601   9.171
11978SOL    HW147996   3.928   0.502   9.176
11978SOL    HW247997   3.975   0.649   9.232
11979SOL     OW47998   5.350   1.562   8.410
11979SOL    HW147999   5.322   1.655   8.434
11979SOL    HW248000   5.400   1.521   8.486
11980SOL     OW48001   3.746   0.935   7.971
11980SOL    HW148002   3.753   1.034   7.958
11980SOL    HW248003   3.655   0.912   8.005
11981SOL     OW48004   4.255   0.733   8.909
11981SOL    HW148005   4.161   0.703   8.890
11981SOL    HW248006   4.264   0.830   8.886
11982SOL     OW48007   5.322   1.109   8.221
11982SOL    HW148008   5.284   1.198   8.194
11982SOL    HW248009   5.322   1.047   8.143
11983SOL     OW48010   4.480   0.515   8.390
11983SOL    HW148011   4.572   0.543   8.417
11983SOL    HW248012   4.412   0.566   8.444
11984SOL     OW48013   4.333   1.366   8.617
11984SOL    HW148014   4.246   1.365   8.568
11984SOL    HW248015   4.399   1.306   8.570
11985SOL     OW48016   3.899   0.708   8.531
11985SOL    HW148017   3.937   0.767   8.602
11985SOL    HW248018   3.882   0.761   8.449
11986SOL     OW48019   4.070   1.354   8.829
11986SOL    HW148020   4.089   1.442   8.873
11986SOL    HW248021   3.975   1.328   8.847
11987SOL     OW48022   5.313   1.670   9.177
11987SOL    HW148023   5.282   1.592   9.122
11987SOL    HW248024   5.282   1.755   9.135
11988SOL     OW48025   5.021   1.208   7.898
11988SOL    HW148026   5.120   1.212   7.914
11988SOL    HW248027   5.004   1.194   7.800
11989SOL     OW48028   4.374   0.374   7.846
11989SOL    HW148029   4.276   0.368   7.826
11989SOL    HW248030   4.393   0.331   7.934
11990SOL     OW48031   5.294   0.057   8.105
11990SOL    HW148032   5.289   0.098   8.014
11990SOL    HW248033   5.375   0.091   8.152
11991SOL     OW48034   4.897   0.813   8.798
11991SOL    HW148035   4.996   0.822   8.788
11991SOL    HW248036   4.853   0.815   8.708
11992SOL     OW48037   4.391   0.773   8.200
11992SOL    HW148038   4.413   0.695   8.258
11992SOL    HW248039   4.400   0.747   8.104
11993SOL     OW48040   5.056   1.480   8.412
11993SOL    HW148041   4.970   1.437   8.441
11993SOL    HW248042   5.045   1.520   8.321
11994SOL     OW48043   5.059   0.465   8.087
11994SOL    HW148044   5.058   0.457   7.988
11994SOL    HW248045   5.148   0.437   8.122
11995SOL     OW48046   4.786   1.481   9.919
11995SOL    HW148047   4.877   1.515   9.942
11995SOL    HW248048   4.758   1.519   9.831
11996SOL     OW48049   5.297   1.277   9.777
11996SOL    HW148050   5.308   1.361   9.831
11996SOL    HW248051   5.387   1.240   9.754
11997SOL     OW48052   4.254   1.550   9.650
11997SOL    HW148053   4.210   1.559   9.739
11997SOL    HW248054   4.325   1.480   9.654
11998SOL     OW48055   4.181   1.223   9.945
11998SOL    HW148056   4.114   1.177  10.004
11998SOL    HW248057   4.273   1.191   9.968
11999SOL     OW48058   4.408   0.629   9.776
11999SOL    HW148059   4.447   0.699   9.717
11999SOL    HW248060   4.382   0.549   9.722
12000SOL     OW48061   4.111   1.392   9.429
12000SOL    HW148062   4.175   1.408   9.354
12000SOL    HW248063   4.135   1.450   9.507
12001SOL     OW48064   3.959   0.774   9.657
12001SOL    HW148065   3.974   0.708   9.731
12001SOL    HW248066   3.909   0.853   9.692
12002SOL     OW48067   4.545   1.719   9.834
12002SOL    HW148068   4.610   1.652   9.798
12002SOL    HW248069   4.535   1.795   9.770
12003SOL     OW48070   5.437   1.601   9.576
12003SOL    HW148071   5.533   1.575   9.569
12003SOL    HW248072   5.413   1.661   9.500
12004SOL     OW48073   4.749   0.323   9.616
12004SOL    HW148074   4.774   0.417   9.637
12004SOL    HW248075   4.750   0.269   9.700
12005SOL     OW48076   4.199   0.681   9.344
12005SOL    HW148077   4.159   0.760   9.297
12005SOL    HW248078   4.288   0.660   9.304
12006SOL     OW48079   4.049   1.258   9.694
12006SOL    HW148080   4.095   1.232   9.779
12006SOL    HW248081   4.069   1.190   9.623
12007SOL     OW48082   4.907   0.313   9.405
12007SOL    HW148083   5.001   0.283   9.423
12007SOL    HW248084   4.855   0.313   9.491
12008SOL     OW48085   4.094   0.290   9.659
12008SOL    HW148086   4.048   0.330   9.738
12008SOL    HW248087   4.042   0.309   9.577
12009SOL     OW48088   4.647   0.501   9.901
12009SOL    HW148089   4.723   0.529   9.960
12009SOL    HW248090   4.603   0.581   9.862
12010SOL     OW48091   4.882   0.965   9.418
12010SOL    HW148092   4.919   0.915   9.496
12010SOL    HW248093   4.812   0.910   9.373
12011SOL     OW48094   5.465   0.634   9.497
12011SOL    HW148095   5.486   0.553   9.443
12011SOL    HW248096   5.482   0.615   9.594
12012SOL     OW48097   4.759   1.772   9.405
12012SOL    HW148098   4.793   1.685   9.370
12012SOL    HW248099   4.727   1.760   9.499
12013SOL     OW48100   3.721   0.622   9.754
12013SOL    HW148101   3.723   0.573   9.841
12013SOL    HW248102   3.723   0.721   9.772
12014SOL     OW48103   3.894   1.507   9.608
12014SOL    HW148104   3.921   1.413   9.628
12014SOL    HW248105   3.919   1.529   9.514
12015SOL     OW48106   3.908   1.650   9.845
12015SOL    HW148107   3.824   1.701   9.863
12015SOL    HW248108   3.899   1.599   9.760
12016SOL     OW48109   4.181   0.947   9.247
12016SOL    HW148110   4.150   0.981   9.159
12016SOL    HW248111   4.185   1.022   9.313
12017SOL     OW48112   3.785   0.839   9.420
12017SOL    HW148113   3.845   0.786   9.480
12017SOL    HW248114   3.691   0.807   9.432
12018SOL     OW48115   5.305   0.837   9.620
12018SOL    HW148116   5.373   0.771   9.587
12018SOL    HW248117   5.320   0.925   9.576
12019SOL     OW48118   4.460   0.893   9.304
12019SOL    HW148119   4.489   0.812   9.355
12019SOL    HW248120   4.360   0.892   9.295
12020SOL     OW48121   5.056   0.425   9.650
12020SOL    HW148122   4.993   0.483   9.598
12020SOL    HW248123   5.149   0.459   9.638
12021SOL     OW48124   5.324   0.436   9.720
12021SOL    HW148125   5.420   0.407   9.717
12021SOL    HW248126   5.285   0.414   9.809
12022SOL     OW48127   4.558   0.377   9.442
12022SOL    HW148128   4.467   0.390   9.480
12022SOL    HW248129   4.618   0.337   9.512
12023SOL     OW48130   4.669   1.322   9.377
12023SOL    HW148131   4.722   1.262   9.437
12023SOL    HW248132   4.708   1.323   9.286
12024SOL     OW48133   4.835   0.890   9.851
12024SOL    HW148134   4.900   0.918   9.922
12024SOL    HW248135   4.756   0.951   9.853
12025SOL     OW48136   5.027   0.930  10.054
12025SOL    HW148137   5.048   0.872  10.132
12025SOL    HW248138   5.036   1.026  10.080
12026SOL     OW48139   4.616   1.007   9.799
12026SOL    HW148140   4.603   0.918   9.756
12026SOL    HW248141   4.547   1.021   9.870
12027SOL     OW48142   3.727   0.312   9.702
12027SOL    HW148143   3.787   0.263   9.640
12027SOL    HW248144   3.782   0.364   9.767
12028SOL     OW48145   5.350   1.810   9.393
12028SOL    HW148146   5.440   1.854   9.395
12028SOL    HW248147   5.349   1.741   9.321
12029SOL     OW48148   4.532   0.823   9.616
12029SOL    HW148149   4.443   0.851   9.581
12029SOL    HW248150   4.573   0.757   9.552
12030SOL     OW48151   4.051   1.739   9.426
12030SOL    HW148152   4.143   1.769   9.401
12030SOL    HW248153   4.026   1.778   9.515
12031SOL     OW48154   4.483   0.061   9.625
12031SOL    HW148155   4.444   0.050   9.534
12031SOL    HW248156   4.439   0.137   9.672
12032SOL     OW48157   3.728   1.197   9.719
12032SOL    HW148158   3.806   1.255   9.743
12032SOL    HW248159   3.747   1.148   9.634
12033SOL     OW48160   5.094   0.077   9.390
12033SOL    HW148161   5.174   0.017   9.387
12033SOL    HW248162   5.020   0.030   9.438
12034SOL     OW48163   4.409   0.308   9.956
12034SOL    HW148164   4.398   0.250  10.037
12034SOL    HW248165   4.494   0.360   9.964
12035SOL     OW48166   5.282   0.065   9.664
12035SOL    HW148167   5.289   0.019   9.576
12035SOL    HW248168   5.186   0.075   9.689
12036SOL     OW48169   4.993   0.838   9.652
12036SOL    HW148170   4.939   0.836   9.736
12036SOL    HW248171   5.070   0.901   9.663
12037SOL     OW48172   5.290   0.934   9.872
12037SOL    HW148173   5.304   0.897   9.779
12037SOL    HW248174   5.201   0.904   9.906
12038SOL     OW48175   5.300   0.291   9.446
12038SOL    HW148176   5.305   0.333   9.537
12038SOL    HW248177   5.233   0.216   9.448
12039SOL     OW48178   4.023   0.562   9.497
12039SOL    HW148179   4.095   0.591   9.434
12039SOL    HW248180   3.979   0.642   9.537
12040SOL     OW48181   4.138   1.825   9.963
12040SOL    HW148182   4.062   1.791   9.908
12040SOL    HW248183   4.224   1.788   9.928
12041SOL     OW48184   4.437   1.258   9.744
12041SOL    HW148185   4.480   1.189   9.686
12041SOL    HW248186   4.401   1.215   9.827
12042SOL     OW48187   3.768   0.541  10.072
12042SOL    HW148188   3.732   0.634  10.064
12042SOL    HW248189   3.851   0.542  10.128
12043SOL     OW48190   4.203   1.128   9.458
12043SOL    HW148191   4.303   1.128   9.469
12043SOL    HW248192   4.172   1.221   9.437
12044SOL     OW48193   4.829   0.720   9.274
12044SOL    HW148194   4.760   0.777   9.230
12044SOL    HW248195   4.910   0.714   9.215
12045SOL     OW48196   4.564   0.639   9.417
12045SOL    HW148197   4.654   0.640   9.372
12045SOL    HW248198   4.541   0.545   9.442
12046SOL     OW48199   5.015   0.156   9.711
12046SOL    HW148200   4.925   0.140   9.752
12046SOL    HW248201   5.023   0.252   9.685
12047SOL     OW48202   3.764   0.071   9.371
12047SOL    HW148203   3.827  -0.006   9.379
12047SOL    HW248204   3.784   0.139   9.442
12048SOL     OW48205   5.336   1.058   9.472
12048SOL    HW148206   5.407   1.128   9.474
12048SOL    HW248207   5.323   1.028   9.377
12049SOL     OW48208   4.782   0.231   9.867
12049SOL    HW148209   4.841   0.291   9.922
12049SOL    HW248210   4.709   0.195   9.924
12050SOL     OW48211   3.964   0.020   9.658
12050SOL    HW148212   4.002   0.108   9.685
12050SOL    HW248213   3.887  -0.004   9.718
12051SOL     OW48214   3.786   1.107   9.478
12051SOL    HW148215   3.776   1.010   9.457
12051SOL    HW248216   3.839   1.152   9.406
12052SOL     OW48217   5.483   0.219  10.079
12052SOL    HW148218   5.438   0.201  10.166
12052SOL    HW248219   5.581   0.236  10.095
12053SOL     OW48220   4.869   0.618   9.540
12053SOL    HW148221   4.921   0.690   9.586
12053SOL    HW248222   4.882   0.625   9.442
12054SOL     OW48223   4.489   1.501   9.265
12054SOL    HW148224   4.464   1.578   9.324
12054SOL    HW248225   4.553   1.441   9.313
12055SOL     OW48226   4.450   1.119  10.016
12055SOL    HW148227   4.539   1.165  10.016
12055SOL    HW248228   4.443   1.059  10.095
12056SOL     OW48229   4.628   1.466   9.685
12056SOL    HW148230   4.678   1.454   9.600
12056SOL    HW248231   4.574   1.383   9.704
12057SOL     OW48232   4.219   0.874   9.584
12057SOL    HW148233   4.169   0.939   9.528
12057SOL    HW248234   4.161   0.795   9.603
12058SOL     OW48235   3.693   0.047   9.779
12058SOL    HW148236   3.606   0.034   9.732
12058SOL    HW248237   3.701   0.142   9.809
12059SOL     OW48238   4.140   1.513   9.908
12059SOL    HW148239   4.138   1.414   9.921
12059SOL    HW248240   4.049   1.546   9.885
12060SOL     OW48241   4.747   1.188   9.641
12060SOL    HW148242   4.827   1.224   9.689
12060SOL    HW248243   4.705   1.115   9.697
12061SOL     OW48244   5.338   0.455  10.005
12061SOL    HW148245   5.357   0.541  10.052
12061SOL    HW248246   5.406   0.386  10.033
12062SOL     OW48247   4.481   1.127   9.491
12062SOL    HW148248   4.553   1.186   9.456
12062SOL    HW248249   4.521   1.043   9.527
12063SOL     OW48250   4.552   0.103   9.343
12063SOL    HW148251   4.627   0.037   9.355
12063SOL    HW248252   4.583   0.194   9.371
12064SOL     OW48253   4.231   0.532   9.955
12064SOL    HW148254   4.269   0.443   9.981
12064SOL    HW248255   4.298   0.582   9.900
12065SOL     OW48256   3.924   1.242   9.270
12065SOL    HW148257   3.916   1.254   9.171
12065SOL    HW248258   3.983   1.313   9.308
12066SOL     OW48259   4.351   1.681   9.430
12066SOL    HW148260   4.326   1.776   9.414
12066SOL    HW248261   4.318   1.653   9.520
12067SOL     OW48262   3.746   0.935   9.816
12067SOL    HW148263   3.753   1.034   9.803
12067SOL    HW248264   3.655   0.912   9.850
12068SOL     OW48265   5.021   1.208   9.743
12068SOL    HW148266   5.120   1.212   9.759
12068SOL    HW248267   5.004   1.194   9.645
12069SOL     OW48268   4.374   0.374   9.691
12069SOL    HW148269   4.276   0.368   9.671
12069SOL    HW248270   4.393   0.331   9.779
12070SOL     OW48271   5.294   0.057   9.950
12070SOL    HW148272   5.289   0.098   9.859
12070SOL    HW248273   5.375   0.091   9.997
12071SOL     OW48274   5.059   0.465   9.932
12071SOL    HW148275   5.058   0.457   9.833
12071SOL    HW248276   5.148   0.437   9.967
12072SOL     OW48277   4.786   3.326   0.692
12072SOL    HW148278   4.877   3.360   0.715
12072SOL    HW248279   4.758   3.364   0.604
12073SOL     OW48280   5.297   3.122   0.550
12073SOL    HW148281   5.308   3.206   0.604
12073SOL    HW248282   5.387   3.085   0.527
12074SOL     OW48283   5.377   2.404   1.414
12074SOL    HW148284   5.279   2.396   1.436
12074SOL    HW248285   5.430   2.393   1.498
12075SOL     OW48286   4.044   2.041   0.019
12075SOL    HW148287   3.957   2.038  -0.030
12075SOL    HW248288   4.095   2.123  -0.009
12076SOL     OW48289   5.031   3.430   0.794
12076SOL    HW148290   5.020   3.527   0.817
12076SOL    HW248291   5.124   3.413   0.764
12077SOL     OW48292   4.909   1.941   1.352
12077SOL    HW148293   4.833   1.896   1.399
12077SOL    HW248294   4.938   1.886   1.274
12078SOL     OW48295   4.647   2.721   1.729
12078SOL    HW148296   4.612   2.696   1.639
12078SOL    HW248297   4.571   2.742   1.790
12079SOL     OW48298   4.254   3.395   0.423
12079SOL    HW148299   4.210   3.404   0.512
12079SOL    HW248300   4.325   3.325   0.427
12080SOL     OW48301   4.272   1.928   0.145
12080SOL    HW148302   4.360   1.956   0.106
12080SOL    HW248303   4.200   1.991   0.115
12081SOL     OW48304   5.242   2.913   1.528
12081SOL    HW148305   5.150   2.918   1.490
12081SOL    HW248306   5.307   2.951   1.462
12082SOL     OW48307   5.142   2.920   1.209
12082SOL    HW148308   5.067   2.909   1.274
12082SOL    HW248309   5.179   3.013   1.215
12083SOL     OW48310   4.638   3.175   1.509
12083SOL    HW148311   4.581   3.238   1.455
12083SOL    HW248312   4.671   3.101   1.450
12084SOL     OW48313   4.181   3.068   0.718
12084SOL    HW148314   4.114   3.022   0.777
12084SOL    HW248315   4.273   3.036   0.741
12085SOL     OW48316   4.408   2.474   0.549
12085SOL    HW148317   4.447   2.544   0.490
12085SOL    HW248318   4.382   2.394   0.495
12086SOL     OW48319   5.028   2.382   1.758
12086SOL    HW148320   5.124   2.386   1.784
12086SOL    HW248321   4.984   2.306   1.805
12087SOL     OW48322   4.111   3.237   0.202
12087SOL    HW148323   4.175   3.253   0.127
12087SOL    HW248324   4.135   3.295   0.280
12088SOL     OW48325   4.262   2.193   1.012
12088SOL    HW148326   4.338   2.258   1.008
12088SOL    HW248327   4.292   2.104   0.979
12089SOL     OW48328   3.959   2.619   0.430
12089SOL    HW148329   3.974   2.553   0.504
12089SOL    HW248330   3.909   2.698   0.465
12090SOL     OW48331   4.545   3.564   0.607
12090SOL    HW148332   4.610   3.497   0.571
12090SOL    HW248333   4.535   3.640   0.543
12091SOL     OW48334   5.437   3.446   0.349
12091SOL    HW148335   5.533   3.420   0.342
12091SOL    HW248336   5.413   3.506   0.273
12092SOL     OW48337   5.349   2.139   1.120
12092SOL    HW148338   5.400   2.211   1.073
12092SOL    HW248339   5.254   2.166   1.129
12093SOL     OW48340   4.749   2.168   0.389
12093SOL    HW148341   4.774   2.262   0.410
12093SOL    HW248342   4.750   2.114   0.473
12094SOL     OW48343   4.199   2.526   0.117
12094SOL    HW148344   4.159   2.605   0.070
12094SOL    HW248345   4.288   2.505   0.077
12095SOL     OW48346   4.372   3.450   0.815
12095SOL    HW148347   4.445   3.473   0.751
12095SOL    HW248348   4.301   3.397   0.769
12096SOL     OW48349   4.714   2.482   1.569
12096SOL    HW148350   4.747   2.399   1.616
12096SOL    HW248351   4.787   2.550   1.568
12097SOL     OW48352   5.318   3.282   0.791
12097SOL    HW148353   5.314   3.317   0.884
12097SOL    HW248354   5.377   3.341   0.735
12098SOL     OW48355   4.049   3.103   0.467
12098SOL    HW148356   4.095   3.077   0.552
12098SOL    HW248357   4.069   3.035   0.396
12099SOL     OW48358   4.907   2.158   0.178
12099SOL    HW148359   5.001   2.128   0.196
12099SOL    HW248360   4.855   2.158   0.264
12100SOL     OW48361   4.059   2.363   1.273
12100SOL    HW148362   4.049   2.276   1.225
12100SOL    HW248363   3.995   2.430   1.236
12101SOL     OW48364   5.141   2.643   1.311
12101SOL    HW148365   5.145   2.737   1.276
12101SOL    HW248366   5.234   2.612   1.333
12102SOL     OW48367   4.094   2.135   0.432
12102SOL    HW148368   4.048   2.175   0.511
12102SOL    HW248369   4.042   2.154   0.350
12103SOL     OW48370   5.222   3.662   1.344
12103SOL    HW148371   5.165   3.613   1.278
12103SOL    HW248372   5.308   3.689   1.301
12104SOL     OW48373   5.517   2.380   1.199
12104SOL    HW148374   5.574   2.462   1.201
12104SOL    HW248375   5.458   2.379   1.279
12105SOL     OW48376   5.534   3.606   1.112
12105SOL    HW148377   5.580   3.616   1.200
12105SOL    HW248378   5.601   3.609   1.039
12106SOL     OW48379   4.647   2.346   0.674
12106SOL    HW148380   4.723   2.374   0.733
12106SOL    HW248381   4.603   2.426   0.635
12107SOL     OW48382   4.882   2.810   0.191
12107SOL    HW148383   4.919   2.760   0.269
12107SOL    HW248384   4.812   2.755   0.146
12108SOL     OW48385   4.724   2.232   1.812
12108SOL    HW148386   4.787   2.237   1.889
12108SOL    HW248387   4.632   2.210   1.845
12109SOL     OW48388   5.465   2.479   0.270
12109SOL    HW148389   5.486   2.398   0.216
12109SOL    HW248390   5.482   2.460   0.367
12110SOL     OW48391   4.759   3.617   0.178
12110SOL    HW148392   4.793   3.530   0.143
12110SOL    HW248393   4.727   3.605   0.272
12111SOL     OW48394   4.440   1.884   1.710
12111SOL    HW148395   4.447   1.790   1.677
12111SOL    HW248396   4.497   1.894   1.792
12112SOL     OW48397   5.363   2.485   0.978
12112SOL    HW148398   5.348   2.576   1.015
12112SOL    HW248399   5.433   2.438   1.032
12113SOL     OW48400   4.773   3.151   1.744
12113SOL    HW148401   4.795   3.061   1.706
12113SOL    HW248402   4.708   3.198   1.685
12114SOL     OW48403   4.428   2.993   1.748
12114SOL    HW148404   4.399   3.070   1.805
12114SOL    HW248405   4.438   2.912   1.806
12115SOL     OW48406   5.063   1.857   0.854
12115SOL    HW148407   5.012   1.941   0.836
12115SOL    HW248408   5.149   1.859   0.803
12116SOL     OW48409   5.418   2.063   1.783
12116SOL    HW148410   5.395   2.084   1.878
12116SOL    HW248411   5.394   1.968   1.763
12117SOL     OW48412   3.721   2.467   0.527
12117SOL    HW148413   3.723   2.418   0.614
12117SOL    HW248414   3.723   2.566   0.545
12118SOL     OW48415   4.042   2.055   0.848
12118SOL    HW148416   4.094   2.095   0.923
12118SOL    HW248417   4.095   1.982   0.805
12119SOL     OW48418   4.026   2.103   1.182
12119SOL    HW148419   3.991   2.010   1.182
12119SOL    HW248420   4.113   2.106   1.133
12120SOL     OW48421   4.693   2.725   0.922
12120SOL    HW148422   4.719   2.805   0.868
12120SOL    HW248423   4.687   2.645   0.862
12121SOL     OW48424   3.894   3.352   0.381
12121SOL    HW148425   3.921   3.258   0.401
12121SOL    HW248426   3.919   3.374   0.287
12122SOL     OW48427   5.176   3.221   1.255
12122SOL    HW148428   5.147   3.258   1.166
12122SOL    HW248429   5.098   3.221   1.317
12123SOL     OW48430   3.908   3.495   0.618
12123SOL    HW148431   3.824   3.546   0.636
12123SOL    HW248432   3.899   3.444   0.533
12124SOL     OW48433   5.429   3.292   1.293
12124SOL    HW148434   5.460   3.306   1.387
12124SOL    HW248435   5.330   3.279   1.292
12125SOL     OW48436   4.181   2.792   0.020
12125SOL    HW148437   4.150   2.826  -0.068
12125SOL    HW248438   4.185   2.867   0.086
12126SOL     OW48439   4.698   2.979   1.319
12126SOL    HW148440   4.748   2.894   1.303
12126SOL    HW248441   4.652   3.006   1.234
12127SOL     OW48442   3.785   2.684   0.193
12127SOL    HW148443   3.845   2.631   0.253
12127SOL    HW248444   3.691   2.652   0.205
12128SOL     OW48445   5.305   2.682   0.393
12128SOL    HW148446   5.373   2.616   0.360
12128SOL    HW248447   5.320   2.770   0.349
12129SOL     OW48448   4.553   3.669   1.041
12129SOL    HW148449   4.599   3.602   0.983
12129SOL    HW248450   4.479   3.625   1.091
12130SOL     OW48451   4.460   2.738   0.077
12130SOL    HW148452   4.489   2.657   0.128
12130SOL    HW248453   4.360   2.737   0.068
12131SOL     OW48454   5.056   2.270   0.423
12131SOL    HW148455   4.993   2.328   0.371
12131SOL    HW248456   5.149   2.304   0.411
12132SOL     OW48457   3.953   2.471   1.523
12132SOL    HW148458   3.973   2.376   1.498
12132SOL    HW248459   3.916   2.474   1.616
12133SOL     OW48460   4.733   2.747   1.178
12133SOL    HW148461   4.727   2.733   1.079
12133SOL    HW248462   4.652   2.708   1.222
12134SOL     OW48463   5.324   2.281   0.493
12134SOL    HW148464   5.420   2.252   0.490
12134SOL    HW248465   5.285   2.259   0.582
12135SOL     OW48466   4.608   3.356   0.930
12135SOL    HW148467   4.666   3.367   0.849
12135SOL    HW248468   4.514   3.380   0.908
12136SOL     OW48469   4.558   2.222   0.215
12136SOL    HW148470   4.467   2.235   0.253
12136SOL    HW248471   4.618   2.182   0.285
12137SOL     OW48472   4.669   3.167   0.150
12137SOL    HW148473   4.722   3.107   0.210
12137SOL    HW248474   4.708   3.168   0.059
12138SOL     OW48475   5.420   3.462   0.635
12138SOL    HW148476   5.387   3.555   0.654
12138SOL    HW248477   5.418   3.446   0.536
12139SOL     OW48478   4.835   2.735   0.624
12139SOL    HW148479   4.900   2.763   0.695
12139SOL    HW248480   4.756   2.796   0.626
12140SOL     OW48481   4.583   3.461   1.648
12140SOL    HW148482   4.571   3.392   1.577
12140SOL    HW248483   4.546   3.426   1.735
12141SOL     OW48484   5.027   2.775   0.827
12141SOL    HW148485   5.048   2.717   0.905
12141SOL    HW248486   5.036   2.871   0.853
12142SOL     OW48487   3.983   2.904   0.873
12142SOL    HW148488   3.906   2.966   0.866
12142SOL    HW248489   4.020   2.905   0.966
12143SOL     OW48490   4.616   2.852   0.572
12143SOL    HW148491   4.603   2.763   0.529
12143SOL    HW248492   4.547   2.866   0.643
12144SOL     OW48493   4.920   3.240   1.411
12144SOL    HW148494   4.953   3.325   1.452
12144SOL    HW248495   4.821   3.236   1.418
12145SOL     OW48496   3.727   2.157   0.475
12145SOL    HW148497   3.787   2.108   0.413
12145SOL    HW248498   3.782   2.209   0.540
12146SOL     OW48499   5.350   3.655   0.166
12146SOL    HW148500   5.440   3.699   0.168
12146SOL    HW248501   5.349   3.586   0.094
12147SOL     OW48502   4.514   2.622   1.324
12147SOL    HW148503   4.516   2.708   1.375
12147SOL    HW248504   4.571   2.554   1.371
12148SOL     OW48505   3.751   3.649   1.395
12148SOL    HW148506   3.759   3.749   1.393
12148SOL    HW248507   3.727   3.620   1.488
12149SOL     OW48508   4.532   2.668   0.389
12149SOL    HW148509   4.443   2.696   0.354
12149SOL    HW248510   4.573   2.602   0.325
12150SOL     OW48511   4.054   2.386   0.928
12150SOL    HW148512   4.110   2.379   0.845
12150SOL    HW248513   4.111   2.364   1.008
12151SOL     OW48514   4.051   3.584   0.199
12151SOL    HW148515   4.143   3.614   0.174
12151SOL    HW248516   4.026   3.623   0.288
12152SOL     OW48517   5.027   3.606   1.136
12152SOL    HW148518   5.046   3.669   1.062
12152SOL    HW248519   5.035   3.512   1.103
12153SOL     OW48520   3.732   3.001   0.948
12153SOL    HW148521   3.642   3.017   0.909
12153SOL    HW248522   3.730   2.917   1.003
12154SOL     OW48523   4.483   1.906   0.398
12154SOL    HW148524   4.444   1.895   0.307
12154SOL    HW248525   4.439   1.982   0.445
12155SOL     OW48526   3.728   3.042   0.492
12155SOL    HW148527   3.806   3.100   0.516
12155SOL    HW248528   3.747   2.993   0.407
12156SOL     OW48529   5.258   2.170   1.576
12156SOL    HW148530   5.197   2.248   1.573
12156SOL    HW248531   5.313   2.174   1.659
12157SOL     OW48532   4.974   2.116   0.867
12157SOL    HW148533   4.973   2.194   0.804
12157SOL    HW248534   5.017   2.143   0.953
12158SOL     OW48535   5.094   1.922   0.163
12158SOL    HW148536   5.174   1.862   0.160
12158SOL    HW248537   5.020   1.875   0.211
12159SOL     OW48538   5.307   1.894   1.597
12159SOL    HW148539   5.333   1.851   1.511
12159SOL    HW248540   5.257   1.978   1.579
12160SOL     OW48541   4.409   2.153   0.729
12160SOL    HW148542   4.398   2.095   0.810
12160SOL    HW248543   4.494   2.205   0.737
12161SOL     OW48544   4.989   2.504   1.121
12161SOL    HW148545   5.043   2.544   1.047
12161SOL    HW248546   5.027   2.533   1.209
12162SOL     OW48547   5.282   1.910   0.437
12162SOL    HW148548   5.289   1.864   0.349
12162SOL    HW248549   5.186   1.920   0.462
12163SOL     OW48550   4.258   3.225   1.800
12163SOL    HW148551   4.219   3.288   1.733
12163SOL    HW248552   4.341   3.265   1.840
12164SOL     OW48553   3.795   3.247   1.106
12164SOL    HW148554   3.764   3.173   1.047
12164SOL    HW248555   3.727   3.265   1.177
12165SOL     OW48556   4.881   2.448   0.839
12165SOL    HW148557   4.963   2.425   0.787
12165SOL    HW248558   4.876   2.389   0.920
12166SOL     OW48559   5.481   2.475   1.675
12166SOL    HW148560   5.470   2.561   1.624
12166SOL    HW248561   5.575   2.466   1.705
12167SOL     OW48562   5.052   2.248   1.094
12167SOL    HW148563   5.026   2.345   1.100
12167SOL    HW248564   5.052   2.208   1.186
12168SOL     OW48565   5.282   2.380   1.845
12168SOL    HW148566   5.362   2.405   1.789
12168SOL    HW248567   5.313   2.345   1.933
12169SOL     OW48568   4.993   2.683   0.425
12169SOL    HW148569   4.939   2.681   0.509
12169SOL    HW248570   5.070   2.746   0.436
12170SOL     OW48571   5.290   2.779   0.645
12170SOL    HW148572   5.304   2.742   0.552
12170SOL    HW248573   5.201   2.749   0.679
12171SOL     OW48574   5.446   2.716   1.540
12171SOL    HW148575   5.348   2.737   1.542
12171SOL    HW248576   5.495   2.792   1.499
12172SOL     OW48577   5.300   2.136   0.219
12172SOL    HW148578   5.305   2.178   0.310
12172SOL    HW248579   5.233   2.061   0.221
12173SOL     OW48580   4.447   3.351   1.439
12173SOL    HW148581   4.384   3.429   1.446
12173SOL    HW248582   4.415   3.289   1.367
12174SOL     OW48583   3.718   3.560   1.648
12174SOL    HW148584   3.790   3.546   1.716
12174SOL    HW248585   3.629   3.563   1.693
12175SOL     OW48586   3.886   2.216   0.672
12175SOL    HW148587   3.829   2.271   0.733
12175SOL    HW248588   3.956   2.168   0.725
12176SOL     OW48589   5.058   3.448   1.535
12176SOL    HW148590   5.011   3.516   1.590
12176SOL    HW248591   5.125   3.494   1.476
12177SOL     OW48592   4.023   2.407   0.270
12177SOL    HW148593   4.095   2.436   0.207
12177SOL    HW248594   3.979   2.487   0.310
12178SOL     OW48595   5.409   2.069   1.373
12178SOL    HW148596   5.365   2.117   1.449
12178SOL    HW248597   5.387   2.115   1.287
12179SOL     OW48598   4.138   3.670   0.736
12179SOL    HW148599   4.062   3.636   0.681
12179SOL    HW248600   4.224   3.633   0.701
12180SOL     OW48601   4.063   3.179   1.181
12180SOL    HW148602   4.075   3.195   1.278
12180SOL    HW248603   3.976   3.219   1.151
12181SOL     OW48604   4.947   3.383   1.827
12181SOL    HW148605   4.906   3.298   1.793
12181SOL    HW248606   4.927   3.457   1.763
12182SOL     OW48607   4.437   3.103   0.517
12182SOL    HW148608   4.480   3.034   0.459
12182SOL    HW248609   4.401   3.060   0.600
12183SOL     OW48610   4.069   2.654   0.719
12183SOL    HW148611   4.061   2.752   0.737
12183SOL    HW248612   4.153   2.620   0.760
12184SOL     OW48613   3.915   2.134   0.234
12184SOL    HW148614   3.959   2.103   0.151
12184SOL    HW248615   3.916   2.234   0.238
12185SOL     OW48616   3.768   2.386   0.845
12185SOL    HW148617   3.732   2.479   0.837
12185SOL    HW248618   3.851   2.387   0.901
12186SOL     OW48619   4.203   2.973   0.231
12186SOL    HW148620   4.303   2.973   0.242
12186SOL    HW248621   4.172   3.066   0.210
12187SOL     OW48622   4.829   2.565   0.047
12187SOL    HW148623   4.760   2.622   0.003
12187SOL    HW248624   4.910   2.559  -0.012
12188SOL     OW48625   4.564   2.484   0.190
12188SOL    HW148626   4.654   2.485   0.145
12188SOL    HW248627   4.541   2.390   0.215
12189SOL     OW48628   5.015   2.001   0.484
12189SOL    HW148629   4.925   1.985   0.525
12189SOL    HW248630   5.023   2.097   0.458
12190SOL     OW48631   5.129   2.401   1.500
12190SOL    HW148632   5.081   2.424   1.584
12190SOL    HW248633   5.063   2.371   1.431
12191SOL     OW48634   3.764   1.916   0.144
12191SOL    HW148635   3.827   1.839   0.152
12191SOL    HW248636   3.784   1.984   0.215
12192SOL     OW48637   4.037   2.891   1.145
12192SOL    HW148638   4.048   2.846   1.234
12192SOL    HW248639   4.064   2.987   1.152
12193SOL     OW48640   5.336   2.903   0.245
12193SOL    HW148641   5.407   2.973   0.247
12193SOL    HW248642   5.323   2.873   0.150
12194SOL     OW48643   4.318   2.504   1.167
12194SOL    HW148644   4.393   2.547   1.216
12194SOL    HW248645   4.251   2.469   1.233
12195SOL     OW48646   4.461   2.873   1.484
12195SOL    HW148647   4.530   2.925   1.434
12195SOL    HW248648   4.456   2.906   1.579
12196SOL     OW48649   4.853   2.894   1.644
12196SOL    HW148650   4.775   2.840   1.677
12196SOL    HW248651   4.934   2.872   1.699
12197SOL     OW48652   4.782   2.076   0.640
12197SOL    HW148653   4.841   2.136   0.695
12197SOL    HW248654   4.709   2.040   0.697
12198SOL     OW48655   4.892   3.608   1.680
12198SOL    HW148656   4.797   3.606   1.648
12198SOL    HW248657   4.913   3.699   1.717
12199SOL     OW48658   4.310   1.953   0.911
12199SOL    HW148659   4.238   1.886   0.897
12199SOL    HW248660   4.392   1.907   0.946
12200SOL     OW48661   4.010   3.618   1.278
12200SOL    HW148662   3.990   3.600   1.182
12200SOL    HW248663   3.937   3.580   1.335
12201SOL     OW48664   4.703   3.082   0.823
12201SOL    HW148665   4.742   3.125   0.742
12201SOL    HW248666   4.776   3.065   0.890
12202SOL     OW48667   4.397   2.810   1.025
12202SOL    HW148668   4.395   2.726   0.970
12202SOL    HW248669   4.346   2.796   1.110
12203SOL     OW48670   3.964   1.865   0.431
12203SOL    HW148671   4.002   1.953   0.458
12203SOL    HW248672   3.887   1.841   0.491
12204SOL     OW48673   4.380   2.482   1.759
12204SOL    HW148674   4.332   2.533   1.688
12204SOL    HW248675   4.473   2.461   1.729
12205SOL     OW48676   3.786   2.952   0.251
12205SOL    HW148677   3.776   2.855   0.230
12205SOL    HW248678   3.839   2.997   0.179
12206SOL     OW48679   5.483   2.064   0.852
12206SOL    HW148680   5.438   2.046   0.939
12206SOL    HW248681   5.581   2.081   0.868
12207SOL     OW48682   4.531   3.040   1.104
12207SOL    HW148683   4.482   2.955   1.085
12207SOL    HW248684   4.601   3.055   1.035
12208SOL     OW48685   4.869   2.463   0.313
12208SOL    HW148686   4.921   2.535   0.359
12208SOL    HW248687   4.882   2.470   0.215
12209SOL     OW48688   5.230   3.278   1.640
12209SOL    HW148689   5.215   3.180   1.654
12209SOL    HW248690   5.147   3.320   1.604
12210SOL     OW48691   4.489   3.346   0.038
12210SOL    HW148692   4.464   3.423   0.097
12210SOL    HW248693   4.553   3.286   0.086
12211SOL     OW48694   4.307   3.553   1.072
12211SOL    HW148695   4.327   3.523   0.979
12211SOL    HW248696   4.232   3.498   1.109
12212SOL     OW48697   4.450   2.964   0.789
12212SOL    HW148698   4.539   3.010   0.789
12212SOL    HW248699   4.443   2.904   0.868
12213SOL     OW48700   4.628   3.311   0.458
12213SOL    HW148701   4.678   3.299   0.373
12213SOL    HW248702   4.574   3.228   0.477
12214SOL     OW48703   3.818   2.658   0.858
12214SOL    HW148704   3.913   2.649   0.826
12214SOL    HW248705   3.784   2.750   0.837
12215SOL     OW48706   4.652   3.684   1.491
12215SOL    HW148707   4.624   3.597   1.532
12215SOL    HW248708   4.596   3.758   1.528
12216SOL     OW48709   4.881   3.031   1.021
12216SOL    HW148710   4.865   3.125   1.052
12216SOL    HW248711   4.884   2.970   1.101
12217SOL     OW48712   4.155   2.302   1.785
12217SOL    HW148713   4.191   2.249   1.708
12217SOL    HW248714   4.216   2.379   1.803
12218SOL     OW48715   4.219   2.719   0.357
12218SOL    HW148716   4.169   2.784   0.301
12218SOL    HW248717   4.161   2.640   0.376
12219SOL     OW48718   5.300   2.750   1.055
12219SOL    HW148719   5.319   2.789   0.964
12219SOL    HW248720   5.254   2.819   1.111
12220SOL     OW48721   4.992   2.193   1.351
12220SOL    HW148722   5.063   2.165   1.415
12220SOL    HW248723   4.939   2.113   1.323
12221SOL     OW48724   4.914   1.993   1.793
12221SOL    HW148725   4.973   2.009   1.873
12221SOL    HW248726   4.861   2.076   1.774
12222SOL     OW48727   4.130   3.412   1.618
12222SOL    HW148728   4.072   3.477   1.667
12222SOL    HW248729   4.192   3.462   1.558
12223SOL     OW48730   5.486   3.299   1.559
12223SOL    HW148731   5.514   3.392   1.581
12223SOL    HW248732   5.393   3.283   1.592
12224SOL     OW48733   4.736   2.412   1.109
12224SOL    HW148734   4.822   2.463   1.108
12224SOL    HW248735   4.742   2.338   1.176
12225SOL     OW48736   4.140   3.358   0.681
12225SOL    HW148737   4.138   3.259   0.694
12225SOL    HW248738   4.049   3.391   0.658
12226SOL     OW48739   4.781   3.475   1.269
12226SOL    HW148740   4.707   3.539   1.287
12226SOL    HW248741   4.860   3.524   1.231
12227SOL     OW48742   3.990   3.605   1.768
12227SOL    HW148743   4.033   3.689   1.734
12227SOL    HW248744   4.015   3.592   1.864
12228SOL     OW48745   3.939   3.506   1.043
12228SOL    HW148746   3.881   3.426   1.057
12228SOL    HW248747   3.963   3.513   0.946
12229SOL     OW48748   4.685   2.027   0.898
12229SOL    HW148749   4.781   2.028   0.926
12229SOL    HW248750   4.630   1.984   0.970
12230SOL     OW48751   4.747   3.033   0.414
12230SOL    HW148752   4.827   3.069   0.462
12230SOL    HW248753   4.705   2.960   0.470
12231SOL     OW48754   5.338   2.300   0.778
12231SOL    HW148755   5.357   2.386   0.825
12231SOL    HW248756   5.406   2.231   0.806
12232SOL     OW48757   4.481   2.972   0.264
12232SOL    HW148758   4.553   3.031   0.229
12232SOL    HW248759   4.521   2.888   0.300
12233SOL     OW48760   4.552   1.948   0.116
12233SOL    HW148761   4.627   1.882   0.128
12233SOL    HW248762   4.583   2.039   0.144
12234SOL     OW48763   4.231   2.377   0.728
12234SOL    HW148764   4.269   2.288   0.754
12234SOL    HW248765   4.298   2.427   0.673
12235SOL     OW48766   4.219   2.935   1.382
12235SOL    HW148767   4.315   2.915   1.402
12235SOL    HW248768   4.208   3.033   1.364
12236SOL     OW48769   5.441   2.978   1.351
12236SOL    HW148770   5.455   3.076   1.365
12236SOL    HW248771   5.498   2.947   1.275
12237SOL     OW48772   3.924   3.087   0.043
12237SOL    HW148773   3.916   3.099  -0.056
12237SOL    HW248774   3.983   3.158   0.081
12238SOL     OW48775   4.351   3.526   0.203
12238SOL    HW148776   4.326   3.621   0.187
12238SOL    HW248777   4.318   3.498   0.293
12239SOL     OW48778   5.001   2.949   1.427
12239SOL    HW148779   4.945   2.908   1.498
12239SOL    HW248780   4.981   3.047   1.421
12240SOL     OW48781   4.268   3.565   1.427
12240SOL    HW148782   4.317   3.645   1.391
12240SOL    HW248783   4.176   3.563   1.388
12241SOL     OW48784   3.911   2.446   1.789
12241SOL    HW148785   3.928   2.347   1.794
12241SOL    HW248786   3.975   2.494   1.850
12242SOL     OW48787   5.350   3.407   1.028
12242SOL    HW148788   5.322   3.500   1.052
12242SOL    HW248789   5.400   3.366   1.104
12243SOL     OW48790   3.746   2.780   0.589
12243SOL    HW148791   3.753   2.879   0.576
12243SOL    HW248792   3.655   2.757   0.623
12244SOL     OW48793   5.322   2.954   0.839
12244SOL    HW148794   5.284   3.043   0.812
12244SOL    HW248795   5.322   2.892   0.761
12245SOL     OW48796   4.480   2.360   1.008
12245SOL    HW148797   4.572   2.388   1.035
12245SOL    HW248798   4.412   2.411   1.062
12246SOL     OW48799   4.333   3.211   1.235
12246SOL    HW148800   4.246   3.210   1.186
12246SOL    HW248801   4.399   3.151   1.188
12247SOL     OW48802   3.899   2.553   1.149
12247SOL    HW148803   3.937   2.612   1.220
12247SOL    HW248804   3.882   2.606   1.067
12248SOL     OW48805   4.070   3.199   1.447
12248SOL    HW148806   4.089   3.287   1.491
12248SOL    HW248807   3.975   3.173   1.465
12249SOL     OW48808   5.313   3.515   1.795
12249SOL    HW148809   5.282   3.437   1.740
12249SOL    HW248810   5.282   3.600   1.753
12250SOL     OW48811   5.021   3.053   0.516
12250SOL    HW148812   5.120   3.057   0.532
12250SOL    HW248813   5.004   3.039   0.418
12251SOL     OW48814   4.374   2.219   0.464
12251SOL    HW148815   4.276   2.213   0.444
12251SOL    HW248816   4.393   2.176   0.552
12252SOL     OW48817   5.294   1.902   0.723
12252SOL    HW148818   5.289   1.943   0.632
12252SOL    HW248819   5.375   1.936   0.770
12253SOL     OW48820   4.897   2.658   1.416
12253SOL    HW148821   4.996   2.667   1.406
12253SOL    HW248822   4.853   2.660   1.326
12254SOL     OW48823   4.391   2.618   0.818
12254SOL    HW148824   4.413   2.540   0.876
12254SOL    HW248825   4.400   2.592   0.722
12255SOL     OW48826   5.056   3.325   1.030
12255SOL    HW148827   4.970   3.282   1.059
12255SOL    HW248828   5.045   3.365   0.939
12256SOL     OW48829   5.059   2.310   0.705
12256SOL    HW148830   5.058   2.302   0.606
12256SOL    HW248831   5.148   2.282   0.740
12257SOL     OW48832   5.297   3.122   2.395
12257SOL    HW148833   5.308   3.206   2.449
12257SOL    HW248834   5.387   3.085   2.372
12258SOL     OW48835   5.377   2.404   3.259
12258SOL    HW148836   5.279   2.396   3.281
12258SOL    HW248837   5.430   2.393   3.343
12259SOL     OW48838   4.044   2.041   1.864
12259SOL    HW148839   3.957   2.038   1.815
12259SOL    HW248840   4.095   2.123   1.836
12260SOL     OW48841   4.909   1.941   3.197
12260SOL    HW148842   4.833   1.896   3.244
12260SOL    HW248843   4.938   1.886   3.119
12261SOL     OW48844   4.647   2.721   3.574
12261SOL    HW148845   4.612   2.696   3.484
12261SOL    HW248846   4.571   2.742   3.635
12262SOL     OW48847   4.254   3.395   2.268
12262SOL    HW148848   4.210   3.404   2.357
12262SOL    HW248849   4.325   3.325   2.272
12263SOL     OW48850   4.272   1.928   1.990
12263SOL    HW148851   4.360   1.956   1.951
12263SOL    HW248852   4.200   1.991   1.960
12264SOL     OW48853   5.242   2.913   3.373
12264SOL    HW148854   5.150   2.918   3.335
12264SOL    HW248855   5.307   2.951   3.307
12265SOL     OW48856   5.142   2.920   3.054
12265SOL    HW148857   5.067   2.909   3.119
12265SOL    HW248858   5.179   3.013   3.060
12266SOL     OW48859   4.638   3.175   3.354
12266SOL    HW148860   4.581   3.238   3.300
12266SOL    HW248861   4.671   3.101   3.295
12267SOL     OW48862   4.408   2.474   2.394
12267SOL    HW148863   4.447   2.544   2.335
12267SOL    HW248864   4.382   2.394   2.340
12268SOL     OW48865   5.028   2.382   3.603
12268SOL    HW148866   5.124   2.386   3.629
12268SOL    HW248867   4.984   2.306   3.650
12269SOL     OW48868   4.111   3.237   2.047
12269SOL    HW148869   4.175   3.253   1.972
12269SOL    HW248870   4.135   3.295   2.125
12270SOL     OW48871   4.262   2.193   2.857
12270SOL    HW148872   4.338   2.258   2.853
12270SOL    HW248873   4.292   2.104   2.824
12271SOL     OW48874   5.437   3.446   2.194
12271SOL    HW148875   5.533   3.420   2.187
12271SOL    HW248876   5.413   3.506   2.118
12272SOL     OW48877   5.349   2.139   2.965
12272SOL    HW148878   5.400   2.211   2.918
12272SOL    HW248879   5.254   2.166   2.974
12273SOL     OW48880   4.749   2.168   2.234
12273SOL    HW148881   4.774   2.262   2.255
12273SOL    HW248882   4.750   2.114   2.318
12274SOL     OW48883   3.873   2.881   3.419
12274SOL    HW148884   3.969   2.896   3.437
12274SOL    HW248885   3.835   2.819   3.488
12275SOL     OW48886   4.372   3.450   2.660
12275SOL    HW148887   4.445   3.473   2.596
12275SOL    HW248888   4.301   3.397   2.614
12276SOL     OW48889   4.714   2.482   3.414
12276SOL    HW148890   4.747   2.399   3.461
12276SOL    HW248891   4.787   2.550   3.413
12277SOL     OW48892   4.907   2.158   2.023
12277SOL    HW148893   5.001   2.128   2.041
12277SOL    HW248894   4.855   2.158   2.109
12278SOL     OW48895   4.059   2.363   3.118
12278SOL    HW148896   4.049   2.276   3.070
12278SOL    HW248897   3.995   2.430   3.081
12279SOL     OW48898   5.141   2.643   3.156
12279SOL    HW148899   5.145   2.737   3.121
12279SOL    HW248900   5.234   2.612   3.178
12280SOL     OW48901   4.094   2.135   2.277
12280SOL    HW148902   4.048   2.175   2.356
12280SOL    HW248903   4.042   2.154   2.195
12281SOL     OW48904   5.517   2.380   3.044
12281SOL    HW148905   5.574   2.462   3.046
12281SOL    HW248906   5.458   2.379   3.124
12282SOL     OW48907   4.647   2.346   2.519
12282SOL    HW148908   4.723   2.374   2.578
12282SOL    HW248909   4.603   2.426   2.480
12283SOL     OW48910   4.882   2.810   2.036
12283SOL    HW148911   4.919   2.760   2.114
12283SOL    HW248912   4.812   2.755   1.991
12284SOL     OW48913   4.724   2.232   3.657
12284SOL    HW148914   4.787   2.237   3.734
12284SOL    HW248915   4.632   2.210   3.690
12285SOL     OW48916   5.465   2.479   2.115
12285SOL    HW148917   5.486   2.398   2.061
12285SOL    HW248918   5.482   2.460   2.212
12286SOL     OW48919   4.759   3.617   2.023
12286SOL    HW148920   4.793   3.530   1.988
12286SOL    HW248921   4.727   3.605   2.117
12287SOL     OW48922   4.440   1.884   3.555
12287SOL    HW148923   4.447   1.790   3.522
12287SOL    HW248924   4.497   1.894   3.637
12288SOL     OW48925   5.363   2.485   2.823
12288SOL    HW148926   5.348   2.576   2.860
12288SOL    HW248927   5.433   2.438   2.877
12289SOL     OW48928   4.773   3.151   3.589
12289SOL    HW148929   4.795   3.061   3.551
12289SOL    HW248930   4.708   3.198   3.530
12290SOL     OW48931   4.428   2.993   3.593
12290SOL    HW148932   4.399   3.070   3.650
12290SOL    HW248933   4.438   2.912   3.651
12291SOL     OW48934   5.063   1.857   2.699
12291SOL    HW148935   5.012   1.941   2.681
12291SOL    HW248936   5.149   1.859   2.648
12292SOL     OW48937   5.418   2.063   3.628
12292SOL    HW148938   5.395   2.084   3.723
12292SOL    HW248939   5.394   1.968   3.608
12293SOL     OW48940   3.721   2.467   2.372
12293SOL    HW148941   3.723   2.418   2.459
12293SOL    HW248942   3.723   2.566   2.390
12294SOL     OW48943   4.042   2.055   2.693
12294SOL    HW148944   4.094   2.095   2.768
12294SOL    HW248945   4.095   1.982   2.650
12295SOL     OW48946   4.026   2.103   3.027
12295SOL    HW148947   3.991   2.010   3.027
12295SOL    HW248948   4.113   2.106   2.978
12296SOL     OW48949   4.693   2.725   2.767
12296SOL    HW148950   4.719   2.805   2.713
12296SOL    HW248951   4.687   2.645   2.707
12297SOL     OW48952   3.894   3.352   2.226
12297SOL    HW148953   3.921   3.258   2.246
12297SOL    HW248954   3.919   3.374   2.132
12298SOL     OW48955   3.908   3.495   2.463
12298SOL    HW148956   3.824   3.546   2.481
12298SOL    HW248957   3.899   3.444   2.378
12299SOL     OW48958   4.698   2.979   3.164
12299SOL    HW148959   4.748   2.894   3.148
12299SOL    HW248960   4.652   3.006   3.079
12300SOL     OW48961   5.305   2.682   2.238
12300SOL    HW148962   5.373   2.616   2.205
12300SOL    HW248963   5.320   2.770   2.194
12301SOL     OW48964   4.553   3.669   2.886
12301SOL    HW148965   4.599   3.602   2.828
12301SOL    HW248966   4.479   3.625   2.936
12302SOL     OW48967   5.056   2.270   2.268
12302SOL    HW148968   4.993   2.328   2.216
12302SOL    HW248969   5.149   2.304   2.256
12303SOL     OW48970   3.953   2.471   3.368
12303SOL    HW148971   3.973   2.376   3.343
12303SOL    HW248972   3.916   2.474   3.461
12304SOL     OW48973   3.835   2.126   3.258
12304SOL    HW148974   3.907   2.136   3.189
12304SOL    HW248975   3.746   2.125   3.213
12305SOL     OW48976   4.733   2.747   3.023
12305SOL    HW148977   4.727   2.733   2.924
12305SOL    HW248978   4.652   2.708   3.067
12306SOL     OW48979   5.324   2.281   2.338
12306SOL    HW148980   5.420   2.252   2.335
12306SOL    HW248981   5.285   2.259   2.427
12307SOL     OW48982   4.608   3.356   2.775
12307SOL    HW148983   4.666   3.367   2.694
12307SOL    HW248984   4.514   3.380   2.753
12308SOL     OW48985   4.558   2.222   2.060
12308SOL    HW148986   4.467   2.235   2.098
12308SOL    HW248987   4.618   2.182   2.130
12309SOL     OW48988   5.420   3.462   2.480
12309SOL    HW148989   5.387   3.555   2.499
12309SOL    HW248990   5.418   3.446   2.381
12310SOL     OW48991   4.835   2.735   2.469
12310SOL    HW148992   4.900   2.763   2.540
12310SOL    HW248993   4.756   2.796   2.471
12311SOL     OW48994   5.027   2.775   2.672
12311SOL    HW148995   5.048   2.717   2.750
12311SOL    HW248996   5.036   2.871   2.698
12312SOL     OW48997   3.983   2.904   2.718
12312SOL    HW148998   3.906   2.966   2.711
12312SOL    HW248999   4.020   2.905   2.811
12313SOL     OW49000   3.727   2.157   2.320
12313SOL    HW149001   3.787   2.108   2.258
12313SOL    HW249002   3.782   2.209   2.385
12314SOL     OW49003   5.350   3.655   2.011
12314SOL    HW149004   5.440   3.699   2.013
12314SOL    HW249005   5.349   3.586   1.939
12315SOL     OW49006   4.514   2.622   3.169
12315SOL    HW149007   4.516   2.708   3.220
12315SOL    HW249008   4.571   2.554   3.216
12316SOL     OW49009   3.751   3.649   3.240
12316SOL    HW149010   3.759   3.749   3.238
12316SOL    HW249011   3.727   3.620   3.333
12317SOL     OW49012   4.054   2.386   2.773
12317SOL    HW149013   4.110   2.379   2.690
12317SOL    HW249014   4.111   2.364   2.853
12318SOL     OW49015   4.051   3.584   2.044
12318SOL    HW149016   4.143   3.614   2.019
12318SOL    HW249017   4.026   3.623   2.133
12319SOL     OW49018   3.732   3.001   2.793
12319SOL    HW149019   3.642   3.017   2.754
12319SOL    HW249020   3.730   2.917   2.848
12320SOL     OW49021   4.483   1.906   2.243
12320SOL    HW149022   4.444   1.895   2.152
12320SOL    HW249023   4.439   1.982   2.290
12321SOL     OW49024   3.728   3.042   2.337
12321SOL    HW149025   3.806   3.100   2.361
12321SOL    HW249026   3.747   2.993   2.252
12322SOL     OW49027   5.258   2.170   3.421
12322SOL    HW149028   5.197   2.248   3.418
12322SOL    HW249029   5.313   2.174   3.504
12323SOL     OW49030   4.974   2.116   2.712
12323SOL    HW149031   4.973   2.194   2.649
12323SOL    HW249032   5.017   2.143   2.798
12324SOL     OW49033   5.094   1.922   2.008
12324SOL    HW149034   5.174   1.862   2.005
12324SOL    HW249035   5.020   1.875   2.056
12325SOL     OW49036   5.307   1.894   3.442
12325SOL    HW149037   5.333   1.851   3.356
12325SOL    HW249038   5.257   1.978   3.424
12326SOL     OW49039   4.409   2.153   2.574
12326SOL    HW149040   4.398   2.095   2.655
12326SOL    HW249041   4.494   2.205   2.582
12327SOL     OW49042   4.989   2.504   2.966
12327SOL    HW149043   5.043   2.544   2.892
12327SOL    HW249044   5.027   2.533   3.054
12328SOL     OW49045   5.282   1.910   2.282
12328SOL    HW149046   5.289   1.864   2.194
12328SOL    HW249047   5.186   1.920   2.307
12329SOL     OW49048   4.258   3.225   3.645
12329SOL    HW149049   4.219   3.288   3.578
12329SOL    HW249050   4.341   3.265   3.685
12330SOL     OW49051   4.134   2.957   3.477
12330SOL    HW149052   4.153   2.981   3.382
12330SOL    HW249053   4.127   3.040   3.532
12331SOL     OW49054   3.795   3.247   2.951
12331SOL    HW149055   3.764   3.173   2.892
12331SOL    HW249056   3.727   3.265   3.022
12332SOL     OW49057   4.881   2.448   2.684
12332SOL    HW149058   4.963   2.425   2.632
12332SOL    HW249059   4.876   2.389   2.765
12333SOL     OW49060   5.052   2.248   2.939
12333SOL    HW149061   5.026   2.345   2.945
12333SOL    HW249062   5.052   2.208   3.031
12334SOL     OW49063   5.282   2.380   3.690
12334SOL    HW149064   5.362   2.405   3.634
12334SOL    HW249065   5.313   2.345   3.778
12335SOL     OW49066   4.993   2.683   2.270
12335SOL    HW149067   4.939   2.681   2.354
12335SOL    HW249068   5.070   2.746   2.281
12336SOL     OW49069   5.290   2.779   2.490
12336SOL    HW149070   5.304   2.742   2.397
12336SOL    HW249071   5.201   2.749   2.524
12337SOL     OW49072   5.300   2.136   2.064
12337SOL    HW149073   5.305   2.178   2.155
12337SOL    HW249074   5.233   2.061   2.066
12338SOL     OW49075   4.447   3.351   3.284
12338SOL    HW149076   4.384   3.429   3.291
12338SOL    HW249077   4.415   3.289   3.212
12339SOL     OW49078   3.838   2.146   3.549
12339SOL    HW149079   3.856   2.135   3.451
12339SOL    HW249080   3.740   2.142   3.566
12340SOL     OW49081   3.718   3.560   3.493
12340SOL    HW149082   3.790   3.546   3.561
12340SOL    HW249083   3.629   3.563   3.538
12341SOL     OW49084   3.886   2.216   2.517
12341SOL    HW149085   3.829   2.271   2.578
12341SOL    HW249086   3.956   2.168   2.570
12342SOL     OW49087   5.409   2.069   3.218
12342SOL    HW149088   5.365   2.117   3.294
12342SOL    HW249089   5.387   2.115   3.132
12343SOL     OW49090   4.138   3.670   2.581
12343SOL    HW149091   4.062   3.636   2.526
12343SOL    HW249092   4.224   3.633   2.546
12344SOL     OW49093   4.063   3.179   3.026
12344SOL    HW149094   4.075   3.195   3.123
12344SOL    HW249095   3.976   3.219   2.996
12345SOL     OW49096   4.069   2.654   2.564
12345SOL    HW149097   4.061   2.752   2.582
12345SOL    HW249098   4.153   2.620   2.605
12346SOL     OW49099   3.915   2.134   2.079
12346SOL    HW149100   3.959   2.103   1.996
12346SOL    HW249101   3.916   2.234   2.083
12347SOL     OW49102   3.768   2.386   2.690
12347SOL    HW149103   3.732   2.479   2.682
12347SOL    HW249104   3.851   2.387   2.746
12348SOL     OW49105   4.829   2.565   1.892
12348SOL    HW149106   4.760   2.622   1.848
12348SOL    HW249107   4.910   2.559   1.833
12349SOL     OW49108   5.015   2.001   2.329
12349SOL    HW149109   4.925   1.985   2.370
12349SOL    HW249110   5.023   2.097   2.303
12350SOL     OW49111   5.129   2.401   3.345
12350SOL    HW149112   5.081   2.424   3.429
12350SOL    HW249113   5.063   2.371   3.276
12351SOL     OW49114   3.764   1.916   1.989
12351SOL    HW149115   3.827   1.839   1.997
12351SOL    HW249116   3.784   1.984   2.060
12352SOL     OW49117   4.037   2.891   2.990
12352SOL    HW149118   4.048   2.846   3.079
12352SOL    HW249119   4.064   2.987   2.997
12353SOL     OW49120   5.336   2.903   2.090
12353SOL    HW149121   5.407   2.973   2.092
12353SOL    HW249122   5.323   2.873   1.995
12354SOL     OW49123   4.318   2.504   3.012
12354SOL    HW149124   4.393   2.547   3.061
12354SOL    HW249125   4.251   2.469   3.078
12355SOL     OW49126   4.461   2.873   3.329
12355SOL    HW149127   4.530   2.925   3.279
12355SOL    HW249128   4.456   2.906   3.424
12356SOL     OW49129   4.853   2.894   3.489
12356SOL    HW149130   4.775   2.840   3.522
12356SOL    HW249131   4.934   2.872   3.544
12357SOL     OW49132   4.782   2.076   2.485
12357SOL    HW149133   4.841   2.136   2.540
12357SOL    HW249134   4.709   2.040   2.542
12358SOL     OW49135   4.310   1.953   2.756
12358SOL    HW149136   4.238   1.886   2.742
12358SOL    HW249137   4.392   1.907   2.791
12359SOL     OW49138   4.010   3.618   3.123
12359SOL    HW149139   3.990   3.600   3.027
12359SOL    HW249140   3.937   3.580   3.180
12360SOL     OW49141   4.397   2.810   2.870
12360SOL    HW149142   4.395   2.726   2.815
12360SOL    HW249143   4.346   2.796   2.955
12361SOL     OW49144   3.736   2.820   2.996
12361SOL    HW149145   3.825   2.798   3.036
12361SOL    HW249146   3.681   2.736   2.992
12362SOL     OW49147   3.964   1.865   2.276
12362SOL    HW149148   4.002   1.953   2.303
12362SOL    HW249149   3.887   1.841   2.336
12363SOL     OW49150   4.380   2.482   3.604
12363SOL    HW149151   4.332   2.533   3.533
12363SOL    HW249152   4.473   2.461   3.574
12364SOL     OW49153   3.786   2.952   2.096
12364SOL    HW149154   3.776   2.855   2.075
12364SOL    HW249155   3.839   2.997   2.024
12365SOL     OW49156   5.483   2.064   2.697
12365SOL    HW149157   5.438   2.046   2.784
12365SOL    HW249158   5.581   2.081   2.713
12366SOL     OW49159   4.531   3.040   2.949
12366SOL    HW149160   4.482   2.955   2.930
12366SOL    HW249161   4.601   3.055   2.880
12367SOL     OW49162   4.869   2.463   2.158
12367SOL    HW149163   4.921   2.535   2.204
12367SOL    HW249164   4.882   2.470   2.060
12368SOL     OW49165   3.987   2.720   3.225
12368SOL    HW149166   3.951   2.630   3.251
12368SOL    HW249167   3.948   2.790   3.285
12369SOL     OW49168   4.489   3.346   1.883
12369SOL    HW149169   4.464   3.423   1.942
12369SOL    HW249170   4.553   3.286   1.931
12370SOL     OW49171   4.307   3.553   2.917
12370SOL    HW149172   4.327   3.523   2.824
12370SOL    HW249173   4.232   3.498   2.954
12371SOL     OW49174   3.818   2.658   2.703
12371SOL    HW149175   3.913   2.649   2.671
12371SOL    HW249176   3.784   2.750   2.682
12372SOL     OW49177   3.755   2.775   3.630
12372SOL    HW149178   3.670   2.726   3.611
12372SOL    HW249179   3.782   2.762   3.725
12373SOL     OW49180   4.155   2.302   3.630
12373SOL    HW149181   4.191   2.249   3.553
12373SOL    HW249182   4.216   2.379   3.648
12374SOL     OW49183   5.300   2.750   2.900
12374SOL    HW149184   5.319   2.789   2.809
12374SOL    HW249185   5.254   2.819   2.956
12375SOL     OW49186   4.992   2.193   3.196
12375SOL    HW149187   5.063   2.165   3.260
12375SOL    HW249188   4.939   2.113   3.168
12376SOL     OW49189   3.693   1.892   2.397
12376SOL    HW149190   3.606   1.879   2.350
12376SOL    HW249191   3.701   1.987   2.427
12377SOL     OW49192   4.914   1.993   3.638
12377SOL    HW149193   4.973   2.009   3.718
12377SOL    HW249194   4.861   2.076   3.619
12378SOL     OW49195   4.736   2.412   2.954
12378SOL    HW149196   4.822   2.463   2.953
12378SOL    HW249197   4.742   2.338   3.021
12379SOL     OW49198   4.140   3.358   2.526
12379SOL    HW149199   4.138   3.259   2.539
12379SOL    HW249200   4.049   3.391   2.503
12380SOL     OW49201   4.781   3.475   3.114
12380SOL    HW149202   4.707   3.539   3.132
12380SOL    HW249203   4.860   3.524   3.076
12381SOL     OW49204   3.990   3.605   3.613
12381SOL    HW149205   4.033   3.689   3.579
12381SOL    HW249206   4.015   3.592   3.709
12382SOL     OW49207   3.850   3.141   3.484
12382SOL    HW149208   3.829   3.046   3.457
12382SOL    HW249209   3.781   3.202   3.446
12383SOL     OW49210   3.939   3.506   2.888
12383SOL    HW149211   3.881   3.426   2.902
12383SOL    HW249212   3.963   3.513   2.791
12384SOL     OW49213   4.685   2.027   2.743
12384SOL    HW149214   4.781   2.028   2.771
12384SOL    HW249215   4.630   1.984   2.815
12385SOL     OW49216   5.338   2.300   2.623
12385SOL    HW149217   5.357   2.386   2.670
12385SOL    HW249218   5.406   2.231   2.651
12386SOL     OW49219   4.552   1.948   1.961
12386SOL    HW149220   4.627   1.882   1.973
12386SOL    HW249221   4.583   2.039   1.989
12387SOL     OW49222   4.231   2.377   2.573
12387SOL    HW149223   4.269   2.288   2.599
12387SOL    HW249224   4.298   2.427   2.518
12388SOL     OW49225   4.219   2.935   3.227
12388SOL    HW149226   4.315   2.915   3.247
12388SOL    HW249227   4.208   3.033   3.209
12389SOL     OW49228   5.441   2.978   3.196
12389SOL    HW149229   5.455   3.076   3.210
12389SOL    HW249230   5.498   2.947   3.120
12390SOL     OW49231   3.924   3.087   1.888
12390SOL    HW149232   3.916   3.099   1.789
12390SOL    HW249233   3.983   3.158   1.926
12391SOL     OW49234   4.351   3.526   2.048
12391SOL    HW149235   4.326   3.621   2.032
12391SOL    HW249236   4.318   3.498   2.138
12392SOL     OW49237   5.001   2.949   3.272
12392SOL    HW149238   4.945   2.908   3.343
12392SOL    HW249239   4.981   3.047   3.266
12393SOL     OW49240   4.268   3.565   3.272
12393SOL    HW149241   4.317   3.645   3.236
12393SOL    HW249242   4.176   3.563   3.233
12394SOL     OW49243   3.911   2.446   3.634
12394SOL    HW149244   3.928   2.347   3.639
12394SOL    HW249245   3.975   2.494   3.695
12395SOL     OW49246   3.746   2.780   2.434
12395SOL    HW149247   3.753   2.879   2.421
12395SOL    HW249248   3.655   2.757   2.468
12396SOL     OW49249   4.255   2.578   3.372
12396SOL    HW149250   4.161   2.548   3.353
12396SOL    HW249251   4.264   2.675   3.349
12397SOL     OW49252   5.322   2.954   2.684
12397SOL    HW149253   5.284   3.043   2.657
12397SOL    HW249254   5.322   2.892   2.606
12398SOL     OW49255   4.480   2.360   2.853
12398SOL    HW149256   4.572   2.388   2.880
12398SOL    HW249257   4.412   2.411   2.907
12399SOL     OW49258   4.333   3.211   3.080
12399SOL    HW149259   4.246   3.210   3.031
12399SOL    HW249260   4.399   3.151   3.033
12400SOL     OW49261   3.899   2.553   2.994
12400SOL    HW149262   3.937   2.612   3.065
12400SOL    HW249263   3.882   2.606   2.912
12401SOL     OW49264   4.070   3.199   3.292
12401SOL    HW149265   4.089   3.287   3.336
12401SOL    HW249266   3.975   3.173   3.310
12402SOL     OW49267   4.374   2.219   2.309
12402SOL    HW149268   4.276   2.213   2.289
12402SOL    HW249269   4.393   2.176   2.397
12403SOL     OW49270   5.294   1.902   2.568
12403SOL    HW149271   5.289   1.943   2.477
12403SOL    HW249272   5.375   1.936   2.615
12404SOL     OW49273   4.897   2.658   3.261
12404SOL    HW149274   4.996   2.667   3.251
12404SOL    HW249275   4.853   2.660   3.171
12405SOL     OW49276   4.391   2.618   2.663
12405SOL    HW149277   4.413   2.540   2.721
12405SOL    HW249278   4.400   2.592   2.567
12406SOL     OW49279   5.059   2.310   2.550
12406SOL    HW149280   5.058   2.302   2.451
12406SOL    HW249281   5.148   2.282   2.585
12407SOL     OW49282   4.786   3.326   4.383
12407SOL    HW149283   4.877   3.360   4.406
12407SOL    HW249284   4.758   3.364   4.295
12408SOL     OW49285   5.297   3.122   4.241
12408SOL    HW149286   5.308   3.206   4.295
12408SOL    HW249287   5.387   3.085   4.218
12409SOL     OW49288   5.377   2.404   5.105
12409SOL    HW149289   5.279   2.396   5.127
12409SOL    HW249290   5.430   2.393   5.189
12410SOL     OW49291   4.044   2.041   3.710
12410SOL    HW149292   3.957   2.038   3.661
12410SOL    HW249293   4.095   2.123   3.682
12411SOL     OW49294   5.031   3.430   4.485
12411SOL    HW149295   5.020   3.527   4.508
12411SOL    HW249296   5.124   3.413   4.455
12412SOL     OW49297   4.909   1.941   5.043
12412SOL    HW149298   4.833   1.896   5.090
12412SOL    HW249299   4.938   1.886   4.965
12413SOL     OW49300   4.647   2.721   5.420
12413SOL    HW149301   4.612   2.696   5.330
12413SOL    HW249302   4.571   2.742   5.481
12414SOL     OW49303   4.254   3.395   4.114
12414SOL    HW149304   4.210   3.404   4.203
12414SOL    HW249305   4.325   3.325   4.118
12415SOL     OW49306   4.272   1.928   3.836
12415SOL    HW149307   4.360   1.956   3.797
12415SOL    HW249308   4.200   1.991   3.806
12416SOL     OW49309   5.242   2.913   5.219
12416SOL    HW149310   5.150   2.918   5.181
12416SOL    HW249311   5.307   2.951   5.153
12417SOL     OW49312   5.142   2.920   4.900
12417SOL    HW149313   5.067   2.909   4.965
12417SOL    HW249314   5.179   3.013   4.906
12418SOL     OW49315   4.638   3.175   5.200
12418SOL    HW149316   4.581   3.238   5.146
12418SOL    HW249317   4.671   3.101   5.141
12419SOL     OW49318   4.181   3.068   4.409
12419SOL    HW149319   4.114   3.022   4.468
12419SOL    HW249320   4.273   3.036   4.432
12420SOL     OW49321   5.028   2.382   5.449
12420SOL    HW149322   5.124   2.386   5.475
12420SOL    HW249323   4.984   2.306   5.496
12421SOL     OW49324   4.111   3.237   3.893
12421SOL    HW149325   4.175   3.253   3.818
12421SOL    HW249326   4.135   3.295   3.971
12422SOL     OW49327   4.262   2.193   4.703
12422SOL    HW149328   4.338   2.258   4.699
12422SOL    HW249329   4.292   2.104   4.670
12423SOL     OW49330   3.959   2.619   4.121
12423SOL    HW149331   3.974   2.553   4.195
12423SOL    HW249332   3.909   2.698   4.156
12424SOL     OW49333   5.437   3.446   4.040
12424SOL    HW149334   5.533   3.420   4.033
12424SOL    HW249335   5.413   3.506   3.964
12425SOL     OW49336   5.349   2.139   4.811
12425SOL    HW149337   5.400   2.211   4.764
12425SOL    HW249338   5.254   2.166   4.820
12426SOL     OW49339   3.873   2.881   5.265
12426SOL    HW149340   3.969   2.896   5.283
12426SOL    HW249341   3.835   2.819   5.334
12427SOL     OW49342   4.199   2.526   3.808
12427SOL    HW149343   4.159   2.605   3.761
12427SOL    HW249344   4.288   2.505   3.768
12428SOL     OW49345   4.714   2.482   5.260
12428SOL    HW149346   4.747   2.399   5.307
12428SOL    HW249347   4.787   2.550   5.259
12429SOL     OW49348   5.318   3.282   4.482
12429SOL    HW149349   5.314   3.317   4.575
12429SOL    HW249350   5.377   3.341   4.426
12430SOL     OW49351   4.049   3.103   4.158
12430SOL    HW149352   4.095   3.077   4.243
12430SOL    HW249353   4.069   3.035   4.087
12431SOL     OW49354   4.907   2.158   3.869
12431SOL    HW149355   5.001   2.128   3.887
12431SOL    HW249356   4.855   2.158   3.955
12432SOL     OW49357   4.059   2.363   4.964
12432SOL    HW149358   4.049   2.276   4.916
12432SOL    HW249359   3.995   2.430   4.927
12433SOL     OW49360   5.141   2.643   5.002
12433SOL    HW149361   5.145   2.737   4.967
12433SOL    HW249362   5.234   2.612   5.024
12434SOL     OW49363   4.094   2.135   4.123
12434SOL    HW149364   4.048   2.175   4.202
12434SOL    HW249365   4.042   2.154   4.041
12435SOL     OW49366   5.517   2.380   4.890
12435SOL    HW149367   5.574   2.462   4.892
12435SOL    HW249368   5.458   2.379   4.970
12436SOL     OW49369   4.882   2.810   3.882
12436SOL    HW149370   4.919   2.760   3.960
12436SOL    HW249371   4.812   2.755   3.837
12437SOL     OW49372   4.724   2.232   5.503
12437SOL    HW149373   4.787   2.237   5.580
12437SOL    HW249374   4.632   2.210   5.536
12438SOL     OW49375   5.465   2.479   3.961
12438SOL    HW149376   5.486   2.398   3.907
12438SOL    HW249377   5.482   2.460   4.058
12439SOL     OW49378   4.440   1.884   5.401
12439SOL    HW149379   4.447   1.790   5.368
12439SOL    HW249380   4.497   1.894   5.483
12440SOL     OW49381   5.363   2.485   4.669
12440SOL    HW149382   5.348   2.576   4.706
12440SOL    HW249383   5.433   2.438   4.723
12441SOL     OW49384   4.773   3.151   5.435
12441SOL    HW149385   4.795   3.061   5.397
12441SOL    HW249386   4.708   3.198   5.376
12442SOL     OW49387   4.428   2.993   5.439
12442SOL    HW149388   4.399   3.070   5.496
12442SOL    HW249389   4.438   2.912   5.497
12443SOL     OW49390   5.063   1.857   4.545
12443SOL    HW149391   5.012   1.941   4.527
12443SOL    HW249392   5.149   1.859   4.494
12444SOL     OW49393   5.418   2.063   5.474
12444SOL    HW149394   5.395   2.084   5.569
12444SOL    HW249395   5.394   1.968   5.454
12445SOL     OW49396   3.721   2.467   4.218
12445SOL    HW149397   3.723   2.418   4.305
12445SOL    HW249398   3.723   2.566   4.236
12446SOL     OW49399   4.026   2.103   4.873
12446SOL    HW149400   3.991   2.010   4.873
12446SOL    HW249401   4.113   2.106   4.824
12447SOL     OW49402   4.693   2.725   4.613
12447SOL    HW149403   4.719   2.805   4.559
12447SOL    HW249404   4.687   2.645   4.553
12448SOL     OW49405   3.894   3.352   4.072
12448SOL    HW149406   3.921   3.258   4.092
12448SOL    HW249407   3.919   3.374   3.978
12449SOL     OW49408   5.176   3.221   4.946
12449SOL    HW149409   5.147   3.258   4.857
12449SOL    HW249410   5.098   3.221   5.008
12450SOL     OW49411   3.908   3.495   4.309
12450SOL    HW149412   3.824   3.546   4.327
12450SOL    HW249413   3.899   3.444   4.224
12451SOL     OW49414   4.181   2.792   3.711
12451SOL    HW149415   4.150   2.826   3.623
12451SOL    HW249416   4.185   2.867   3.777
12452SOL     OW49417   4.698   2.979   5.010
12452SOL    HW149418   4.748   2.894   4.994
12452SOL    HW249419   4.652   3.006   4.925
12453SOL     OW49420   3.785   2.684   3.884
12453SOL    HW149421   3.845   2.631   3.944
12453SOL    HW249422   3.691   2.652   3.896
12454SOL     OW49423   5.305   2.682   4.084
12454SOL    HW149424   5.373   2.616   4.051
12454SOL    HW249425   5.320   2.770   4.040
12455SOL     OW49426   4.460   2.738   3.768
12455SOL    HW149427   4.489   2.657   3.819
12455SOL    HW249428   4.360   2.737   3.759
12456SOL     OW49429   3.953   2.471   5.214
12456SOL    HW149430   3.973   2.376   5.189
12456SOL    HW249431   3.916   2.474   5.307
12457SOL     OW49432   3.835   2.126   5.104
12457SOL    HW149433   3.907   2.136   5.035
12457SOL    HW249434   3.746   2.125   5.059
12458SOL     OW49435   4.733   2.747   4.869
12458SOL    HW149436   4.727   2.733   4.770
12458SOL    HW249437   4.652   2.708   4.913
12459SOL     OW49438   5.324   2.281   4.184
12459SOL    HW149439   5.420   2.252   4.181
12459SOL    HW249440   5.285   2.259   4.273
12460SOL     OW49441   4.558   2.222   3.906
12460SOL    HW149442   4.467   2.235   3.944
12460SOL    HW249443   4.618   2.182   3.976
12461SOL     OW49444   4.669   3.167   3.841
12461SOL    HW149445   4.722   3.107   3.901
12461SOL    HW249446   4.708   3.168   3.750
12462SOL     OW49447   5.420   3.462   4.326
12462SOL    HW149448   5.387   3.555   4.345
12462SOL    HW249449   5.418   3.446   4.227
12463SOL     OW49450   4.583   3.461   5.339
12463SOL    HW149451   4.571   3.392   5.268
12463SOL    HW249452   4.546   3.426   5.426
12464SOL     OW49453   5.027   2.775   4.518
12464SOL    HW149454   5.048   2.717   4.596
12464SOL    HW249455   5.036   2.871   4.544
12465SOL     OW49456   3.983   2.904   4.564
12465SOL    HW149457   3.906   2.966   4.557
12465SOL    HW249458   4.020   2.905   4.657
12466SOL     OW49459   4.920   3.240   5.102
12466SOL    HW149460   4.953   3.325   5.143
12466SOL    HW249461   4.821   3.236   5.109
12467SOL     OW49462   3.727   2.157   4.166
12467SOL    HW149463   3.787   2.108   4.104
12467SOL    HW249464   3.782   2.209   4.231
12468SOL     OW49465   5.350   3.655   3.857
12468SOL    HW149466   5.440   3.699   3.859
12468SOL    HW249467   5.349   3.586   3.785
12469SOL     OW49468   4.514   2.622   5.015
12469SOL    HW149469   4.516   2.708   5.066
12469SOL    HW249470   4.571   2.554   5.062
12470SOL     OW49471   3.751   3.649   5.086
12470SOL    HW149472   3.759   3.749   5.084
12470SOL    HW249473   3.727   3.620   5.179
12471SOL     OW49474   4.054   2.386   4.619
12471SOL    HW149475   4.110   2.379   4.536
12471SOL    HW249476   4.111   2.364   4.699
12472SOL     OW49477   5.027   3.606   4.827
12472SOL    HW149478   5.046   3.669   4.753
12472SOL    HW249479   5.035   3.512   4.794
12473SOL     OW49480   3.732   3.001   4.639
12473SOL    HW149481   3.642   3.017   4.600
12473SOL    HW249482   3.730   2.917   4.694
12474SOL     OW49483   3.728   3.042   4.183
12474SOL    HW149484   3.806   3.100   4.207
12474SOL    HW249485   3.747   2.993   4.098
12475SOL     OW49486   5.258   2.170   5.267
12475SOL    HW149487   5.197   2.248   5.264
12475SOL    HW249488   5.313   2.174   5.350
12476SOL     OW49489   4.974   2.116   4.558
12476SOL    HW149490   4.973   2.194   4.495
12476SOL    HW249491   5.017   2.143   4.644
12477SOL     OW49492   5.094   1.922   3.854
12477SOL    HW149493   5.174   1.862   3.851
12477SOL    HW249494   5.020   1.875   3.902
12478SOL     OW49495   5.307   1.894   5.288
12478SOL    HW149496   5.333   1.851   5.202
12478SOL    HW249497   5.257   1.978   5.270
12479SOL     OW49498   4.989   2.504   4.812
12479SOL    HW149499   5.043   2.544   4.738
12479SOL    HW249500   5.027   2.533   4.900
12480SOL     OW49501   5.282   1.910   4.128
12480SOL    HW149502   5.289   1.864   4.040
12480SOL    HW249503   5.186   1.920   4.153
12481SOL     OW49504   4.258   3.225   5.491
12481SOL    HW149505   4.219   3.288   5.424
12481SOL    HW249506   4.341   3.265   5.531
12482SOL     OW49507   4.134   2.957   5.323
12482SOL    HW149508   4.153   2.981   5.228
12482SOL    HW249509   4.127   3.040   5.378
12483SOL     OW49510   3.795   3.247   4.797
12483SOL    HW149511   3.764   3.173   4.738
12483SOL    HW249512   3.727   3.265   4.868
12484SOL     OW49513   4.881   2.448   4.530
12484SOL    HW149514   4.963   2.425   4.478
12484SOL    HW249515   4.876   2.389   4.611
12485SOL     OW49516   5.481   2.475   5.366
12485SOL    HW149517   5.470   2.561   5.315
12485SOL    HW249518   5.575   2.466   5.396
12486SOL     OW49519   5.052   2.248   4.785
12486SOL    HW149520   5.026   2.345   4.791
12486SOL    HW249521   5.052   2.208   4.877
12487SOL     OW49522   5.282   2.380   5.536
12487SOL    HW149523   5.362   2.405   5.480
12487SOL    HW249524   5.313   2.345   5.624
12488SOL     OW49525   5.290   2.779   4.336
12488SOL    HW149526   5.304   2.742   4.243
12488SOL    HW249527   5.201   2.749   4.370
12489SOL     OW49528   5.446   2.716   5.231
12489SOL    HW149529   5.348   2.737   5.233
12489SOL    HW249530   5.495   2.792   5.190
12490SOL     OW49531   5.300   2.136   3.910
12490SOL    HW149532   5.305   2.178   4.001
12490SOL    HW249533   5.233   2.061   3.912
12491SOL     OW49534   4.447   3.351   5.130
12491SOL    HW149535   4.384   3.429   5.137
12491SOL    HW249536   4.415   3.289   5.058
12492SOL     OW49537   3.838   2.146   5.395
12492SOL    HW149538   3.856   2.135   5.297
12492SOL    HW249539   3.740   2.142   5.412
12493SOL     OW49540   3.718   3.560   5.339
12493SOL    HW149541   3.790   3.546   5.407
12493SOL    HW249542   3.629   3.563   5.384
12494SOL     OW49543   3.886   2.216   4.363
12494SOL    HW149544   3.829   2.271   4.424
12494SOL    HW249545   3.956   2.168   4.416
12495SOL     OW49546   5.058   3.448   5.226
12495SOL    HW149547   5.011   3.516   5.281
12495SOL    HW249548   5.125   3.494   5.167
12496SOL     OW49549   4.023   2.407   3.961
12496SOL    HW149550   4.095   2.436   3.898
12496SOL    HW249551   3.979   2.487   4.001
12497SOL     OW49552   5.409   2.069   5.064
12497SOL    HW149553   5.365   2.117   5.140
12497SOL    HW249554   5.387   2.115   4.978
12498SOL     OW49555   4.138   3.670   4.427
12498SOL    HW149556   4.062   3.636   4.372
12498SOL    HW249557   4.224   3.633   4.392
12499SOL     OW49558   4.063   3.179   4.872
12499SOL    HW149559   4.075   3.195   4.969
12499SOL    HW249560   3.976   3.219   4.842
12500SOL     OW49561   4.947   3.383   5.518
12500SOL    HW149562   4.906   3.298   5.484
12500SOL    HW249563   4.927   3.457   5.454
12501SOL     OW49564   4.437   3.103   4.208
12501SOL    HW149565   4.480   3.034   4.150
12501SOL    HW249566   4.401   3.060   4.291
12502SOL     OW49567   4.069   2.654   4.410
12502SOL    HW149568   4.061   2.752   4.428
12502SOL    HW249569   4.153   2.620   4.451
12503SOL     OW49570   3.915   2.134   3.925
12503SOL    HW149571   3.959   2.103   3.842
12503SOL    HW249572   3.916   2.234   3.929
12504SOL     OW49573   3.768   2.386   4.536
12504SOL    HW149574   3.732   2.479   4.528
12504SOL    HW249575   3.851   2.387   4.592
12505SOL     OW49576   4.203   2.973   3.922
12505SOL    HW149577   4.303   2.973   3.933
12505SOL    HW249578   4.172   3.066   3.901
12506SOL     OW49579   4.829   2.565   3.738
12506SOL    HW149580   4.760   2.622   3.694
12506SOL    HW249581   4.910   2.559   3.679
12507SOL     OW49582   4.564   2.484   3.881
12507SOL    HW149583   4.654   2.485   3.836
12507SOL    HW249584   4.541   2.390   3.906
12508SOL     OW49585   5.129   2.401   5.191
12508SOL    HW149586   5.081   2.424   5.275
12508SOL    HW249587   5.063   2.371   5.122
12509SOL     OW49588   3.764   1.916   3.835
12509SOL    HW149589   3.827   1.839   3.843
12509SOL    HW249590   3.784   1.984   3.906
12510SOL     OW49591   4.037   2.891   4.836
12510SOL    HW149592   4.048   2.846   4.925
12510SOL    HW249593   4.064   2.987   4.843
12511SOL     OW49594   4.318   2.504   4.858
12511SOL    HW149595   4.393   2.547   4.907
12511SOL    HW249596   4.251   2.469   4.924
12512SOL     OW49597   4.461   2.873   5.175
12512SOL    HW149598   4.530   2.925   5.125
12512SOL    HW249599   4.456   2.906   5.270
12513SOL     OW49600   4.853   2.894   5.335
12513SOL    HW149601   4.775   2.840   5.368
12513SOL    HW249602   4.934   2.872   5.390
12514SOL     OW49603   4.892   3.608   5.371
12514SOL    HW149604   4.797   3.606   5.339
12514SOL    HW249605   4.913   3.699   5.408
12515SOL     OW49606   4.310   1.953   4.602
12515SOL    HW149607   4.238   1.886   4.588
12515SOL    HW249608   4.392   1.907   4.637
12516SOL     OW49609   4.010   3.618   4.969
12516SOL    HW149610   3.990   3.600   4.873
12516SOL    HW249611   3.937   3.580   5.026
12517SOL     OW49612   4.703   3.082   4.514
12517SOL    HW149613   4.742   3.125   4.433
12517SOL    HW249614   4.776   3.065   4.581
12518SOL     OW49615   4.397   2.810   4.716
12518SOL    HW149616   4.395   2.726   4.661
12518SOL    HW249617   4.346   2.796   4.801
12519SOL     OW49618   3.736   2.820   4.842
12519SOL    HW149619   3.825   2.798   4.882
12519SOL    HW249620   3.681   2.736   4.838
12520SOL     OW49621   4.380   2.482   5.450
12520SOL    HW149622   4.332   2.533   5.379
12520SOL    HW249623   4.473   2.461   5.420
12521SOL     OW49624   3.786   2.952   3.942
12521SOL    HW149625   3.776   2.855   3.921
12521SOL    HW249626   3.839   2.997   3.870
12522SOL     OW49627   5.483   2.064   4.543
12522SOL    HW149628   5.438   2.046   4.630
12522SOL    HW249629   5.581   2.081   4.559
12523SOL     OW49630   4.531   3.040   4.795
12523SOL    HW149631   4.482   2.955   4.776
12523SOL    HW249632   4.601   3.055   4.726
12524SOL     OW49633   5.230   3.278   5.331
12524SOL    HW149634   5.215   3.180   5.345
12524SOL    HW249635   5.147   3.320   5.295
12525SOL     OW49636   3.987   2.720   5.071
12525SOL    HW149637   3.951   2.630   5.097
12525SOL    HW249638   3.948   2.790   5.131
12526SOL     OW49639   4.450   2.964   4.480
12526SOL    HW149640   4.539   3.010   4.480
12526SOL    HW249641   4.443   2.904   4.559
12527SOL     OW49642   4.628   3.311   4.149
12527SOL    HW149643   4.678   3.299   4.064
12527SOL    HW249644   4.574   3.228   4.168
12528SOL     OW49645   3.818   2.658   4.549
12528SOL    HW149646   3.913   2.649   4.517
12528SOL    HW249647   3.784   2.750   4.528
12529SOL     OW49648   3.755   2.775   5.476
12529SOL    HW149649   3.670   2.726   5.457
12529SOL    HW249650   3.782   2.762   5.571
12530SOL     OW49651   4.652   3.684   5.182
12530SOL    HW149652   4.624   3.597   5.223
12530SOL    HW249653   4.596   3.758   5.219
12531SOL     OW49654   4.881   3.031   4.712
12531SOL    HW149655   4.865   3.125   4.743
12531SOL    HW249656   4.884   2.970   4.792
12532SOL     OW49657   4.155   2.302   5.476
12532SOL    HW149658   4.191   2.249   5.399
12532SOL    HW249659   4.216   2.379   5.494
12533SOL     OW49660   4.219   2.719   4.048
12533SOL    HW149661   4.169   2.784   3.992
12533SOL    HW249662   4.161   2.640   4.067
12534SOL     OW49663   5.300   2.750   4.746
12534SOL    HW149664   5.319   2.789   4.655
12534SOL    HW249665   5.254   2.819   4.802
12535SOL     OW49666   4.992   2.193   5.042
12535SOL    HW149667   5.063   2.165   5.106
12535SOL    HW249668   4.939   2.113   5.014
12536SOL     OW49669   3.693   1.892   4.243
12536SOL    HW149670   3.606   1.879   4.196
12536SOL    HW249671   3.701   1.987   4.273
12537SOL     OW49672   4.914   1.993   5.484
12537SOL    HW149673   4.973   2.009   5.564
12537SOL    HW249674   4.861   2.076   5.465
12538SOL     OW49675   4.130   3.412   5.309
12538SOL    HW149676   4.072   3.477   5.358
12538SOL    HW249677   4.192   3.462   5.249
12539SOL     OW49678   5.486   3.299   5.250
12539SOL    HW149679   5.514   3.392   5.272
12539SOL    HW249680   5.393   3.283   5.283
12540SOL     OW49681   4.736   2.412   4.800
12540SOL    HW149682   4.822   2.463   4.799
12540SOL    HW249683   4.742   2.338   4.867
12541SOL     OW49684   4.140   3.358   4.372
12541SOL    HW149685   4.138   3.259   4.385
12541SOL    HW249686   4.049   3.391   4.349
12542SOL     OW49687   4.781   3.475   4.960
12542SOL    HW149688   4.707   3.539   4.978
12542SOL    HW249689   4.860   3.524   4.922
12543SOL     OW49690   3.990   3.605   5.459
12543SOL    HW149691   4.033   3.689   5.425
12543SOL    HW249692   4.015   3.592   5.555
12544SOL     OW49693   3.850   3.141   5.330
12544SOL    HW149694   3.829   3.046   5.303
12544SOL    HW249695   3.781   3.202   5.292
12545SOL     OW49696   3.939   3.506   4.734
12545SOL    HW149697   3.881   3.426   4.748
12545SOL    HW249698   3.963   3.513   4.637
12546SOL     OW49699   4.685   2.027   4.589
12546SOL    HW149700   4.781   2.028   4.617
12546SOL    HW249701   4.630   1.984   4.661
12547SOL     OW49702   4.747   3.033   4.105
12547SOL    HW149703   4.827   3.069   4.153
12547SOL    HW249704   4.705   2.960   4.161
12548SOL     OW49705   5.338   2.300   4.469
12548SOL    HW149706   5.357   2.386   4.516
12548SOL    HW249707   5.406   2.231   4.497
12549SOL     OW49708   4.481   2.972   3.955
12549SOL    HW149709   4.553   3.031   3.920
12549SOL    HW249710   4.521   2.888   3.991
12550SOL     OW49711   4.219   2.935   5.073
12550SOL    HW149712   4.315   2.915   5.093
12550SOL    HW249713   4.208   3.033   5.055
12551SOL     OW49714   5.441   2.978   5.042
12551SOL    HW149715   5.455   3.076   5.056
12551SOL    HW249716   5.498   2.947   4.966
12552SOL     OW49717   3.924   3.087   3.734
12552SOL    HW149718   3.916   3.099   3.635
12552SOL    HW249719   3.983   3.158   3.772
12553SOL     OW49720   5.001   2.949   5.118
12553SOL    HW149721   4.945   2.908   5.189
12553SOL    HW249722   4.981   3.047   5.112
12554SOL     OW49723   4.268   3.565   5.118
12554SOL    HW149724   4.317   3.645   5.082
12554SOL    HW249725   4.176   3.563   5.079
12555SOL     OW49726   3.911   2.446   5.480
12555SOL    HW149727   3.928   2.347   5.485
12555SOL    HW249728   3.975   2.494   5.541
12556SOL     OW49729   5.350   3.407   4.719
12556SOL    HW149730   5.322   3.500   4.743
12556SOL    HW249731   5.400   3.366   4.795
12557SOL     OW49732   3.746   2.780   4.280
12557SOL    HW149733   3.753   2.879   4.267
12557SOL    HW249734   3.655   2.757   4.314
12558SOL     OW49735   4.255   2.578   5.218
12558SOL    HW149736   4.161   2.548   5.199
12558SOL    HW249737   4.264   2.675   5.195
12559SOL     OW49738   5.322   2.954   4.530
12559SOL    HW149739   5.284   3.043   4.503
12559SOL    HW249740   5.322   2.892   4.452
12560SOL     OW49741   4.480   2.360   4.699
12560SOL    HW149742   4.572   2.388   4.726
12560SOL    HW249743   4.412   2.411   4.753
12561SOL     OW49744   4.333   3.211   4.926
12561SOL    HW149745   4.246   3.210   4.877
12561SOL    HW249746   4.399   3.151   4.879
12562SOL     OW49747   3.899   2.553   4.840
12562SOL    HW149748   3.937   2.612   4.911
12562SOL    HW249749   3.882   2.606   4.758
12563SOL     OW49750   4.070   3.199   5.138
12563SOL    HW149751   4.089   3.287   5.182
12563SOL    HW249752   3.975   3.173   5.156
12564SOL     OW49753   5.313   3.515   5.486
12564SOL    HW149754   5.282   3.437   5.431
12564SOL    HW249755   5.282   3.600   5.444
12565SOL     OW49756   5.021   3.053   4.207
12565SOL    HW149757   5.120   3.057   4.223
12565SOL    HW249758   5.004   3.039   4.109
12566SOL     OW49759   5.294   1.902   4.414
12566SOL    HW149760   5.289   1.943   4.323
12566SOL    HW249761   5.375   1.936   4.461
12567SOL     OW49762   4.897   2.658   5.107
12567SOL    HW149763   4.996   2.667   5.097
12567SOL    HW249764   4.853   2.660   5.017
12568SOL     OW49765   4.391   2.618   4.509
12568SOL    HW149766   4.413   2.540   4.567
12568SOL    HW249767   4.400   2.592   4.413
12569SOL     OW49768   5.056   3.325   4.721
12569SOL    HW149769   4.970   3.282   4.750
12569SOL    HW249770   5.045   3.365   4.630
12570SOL     OW49771   5.059   2.310   4.396
12570SOL    HW149772   5.058   2.302   4.297
12570SOL    HW249773   5.148   2.282   4.431
12571SOL     OW49774   4.786   3.326   6.228
12571SOL    HW149775   4.877   3.360   6.251
12571SOL    HW249776   4.758   3.364   6.140
12572SOL     OW49777   5.297   3.122   6.086
12572SOL    HW149778   5.308   3.206   6.140
12572SOL    HW249779   5.387   3.085   6.063
12573SOL     OW49780   5.377   2.404   6.950
12573SOL    HW149781   5.279   2.396   6.972
12573SOL    HW249782   5.430   2.393   7.034
12574SOL     OW49783   4.044   2.041   5.555
12574SOL    HW149784   3.957   2.038   5.506
12574SOL    HW249785   4.095   2.123   5.527
12575SOL     OW49786   5.031   3.430   6.330
12575SOL    HW149787   5.020   3.527   6.353
12575SOL    HW249788   5.124   3.413   6.300
12576SOL     OW49789   4.647   2.721   7.265
12576SOL    HW149790   4.612   2.696   7.175
12576SOL    HW249791   4.571   2.742   7.326
12577SOL     OW49792   4.254   3.395   5.959
12577SOL    HW149793   4.210   3.404   6.048
12577SOL    HW249794   4.325   3.325   5.963
12578SOL     OW49795   4.272   1.928   5.681
12578SOL    HW149796   4.360   1.956   5.642
12578SOL    HW249797   4.200   1.991   5.651
12579SOL     OW49798   5.242   2.913   7.064
12579SOL    HW149799   5.150   2.918   7.026
12579SOL    HW249800   5.307   2.951   6.998
12580SOL     OW49801   5.142   2.920   6.745
12580SOL    HW149802   5.067   2.909   6.810
12580SOL    HW249803   5.179   3.013   6.751
12581SOL     OW49804   4.638   3.175   7.045
12581SOL    HW149805   4.581   3.238   6.991
12581SOL    HW249806   4.671   3.101   6.986
12582SOL     OW49807   4.181   3.068   6.254
12582SOL    HW149808   4.114   3.022   6.313
12582SOL    HW249809   4.273   3.036   6.277
12583SOL     OW49810   4.408   2.474   6.085
12583SOL    HW149811   4.447   2.544   6.026
12583SOL    HW249812   4.382   2.394   6.031
12584SOL     OW49813   5.028   2.382   7.294
12584SOL    HW149814   5.124   2.386   7.320
12584SOL    HW249815   4.984   2.306   7.341
12585SOL     OW49816   4.111   3.237   5.738
12585SOL    HW149817   4.175   3.253   5.663
12585SOL    HW249818   4.135   3.295   5.816
12586SOL     OW49819   4.262   2.193   6.548
12586SOL    HW149820   4.338   2.258   6.544
12586SOL    HW249821   4.292   2.104   6.515
12587SOL     OW49822   3.959   2.619   5.966
12587SOL    HW149823   3.974   2.553   6.040
12587SOL    HW249824   3.909   2.698   6.001
12588SOL     OW49825   4.545   3.564   6.143
12588SOL    HW149826   4.610   3.497   6.107
12588SOL    HW249827   4.535   3.640   6.079
12589SOL     OW49828   5.437   3.446   5.885
12589SOL    HW149829   5.533   3.420   5.878
12589SOL    HW249830   5.413   3.506   5.809
12590SOL     OW49831   4.749   2.168   5.925
12590SOL    HW149832   4.774   2.262   5.946
12590SOL    HW249833   4.750   2.114   6.009
12591SOL     OW49834   3.873   2.881   7.110
12591SOL    HW149835   3.969   2.896   7.128
12591SOL    HW249836   3.835   2.819   7.179
12592SOL     OW49837   4.199   2.526   5.653
12592SOL    HW149838   4.159   2.605   5.606
12592SOL    HW249839   4.288   2.505   5.613
12593SOL     OW49840   4.372   3.450   6.351
12593SOL    HW149841   4.445   3.473   6.287
12593SOL    HW249842   4.301   3.397   6.305
12594SOL     OW49843   4.714   2.482   7.105
12594SOL    HW149844   4.747   2.399   7.152
12594SOL    HW249845   4.787   2.550   7.104
12595SOL     OW49846   5.318   3.282   6.327
12595SOL    HW149847   5.314   3.317   6.420
12595SOL    HW249848   5.377   3.341   6.271
12596SOL     OW49849   4.049   3.103   6.003
12596SOL    HW149850   4.095   3.077   6.088
12596SOL    HW249851   4.069   3.035   5.932
12597SOL     OW49852   4.907   2.158   5.714
12597SOL    HW149853   5.001   2.128   5.732
12597SOL    HW249854   4.855   2.158   5.800
12598SOL     OW49855   4.059   2.363   6.809
12598SOL    HW149856   4.049   2.276   6.761
12598SOL    HW249857   3.995   2.430   6.772
12599SOL     OW49858   5.141   2.643   6.847
12599SOL    HW149859   5.145   2.737   6.812
12599SOL    HW249860   5.234   2.612   6.869
12600SOL     OW49861   4.094   2.135   5.968
12600SOL    HW149862   4.048   2.175   6.047
12600SOL    HW249863   4.042   2.154   5.886
12601SOL     OW49864   5.222   3.662   6.880
12601SOL    HW149865   5.165   3.613   6.814
12601SOL    HW249866   5.308   3.689   6.837
12602SOL     OW49867   5.517   2.380   6.735
12602SOL    HW149868   5.574   2.462   6.737
12602SOL    HW249869   5.458   2.379   6.815
12603SOL     OW49870   4.647   2.346   6.210
12603SOL    HW149871   4.723   2.374   6.269
12603SOL    HW249872   4.603   2.426   6.171
12604SOL     OW49873   4.882   2.810   5.727
12604SOL    HW149874   4.919   2.760   5.805
12604SOL    HW249875   4.812   2.755   5.682
12605SOL     OW49876   5.465   2.479   5.806
12605SOL    HW149877   5.486   2.398   5.752
12605SOL    HW249878   5.482   2.460   5.903
12606SOL     OW49879   4.759   3.617   5.714
12606SOL    HW149880   4.793   3.530   5.679
12606SOL    HW249881   4.727   3.605   5.808
12607SOL     OW49882   5.363   2.485   6.514
12607SOL    HW149883   5.348   2.576   6.551
12607SOL    HW249884   5.433   2.438   6.568
12608SOL     OW49885   4.773   3.151   7.280
12608SOL    HW149886   4.795   3.061   7.242
12608SOL    HW249887   4.708   3.198   7.221
12609SOL     OW49888   4.428   2.993   7.284
12609SOL    HW149889   4.399   3.070   7.341
12609SOL    HW249890   4.438   2.912   7.342
12610SOL     OW49891   5.063   1.857   6.390
12610SOL    HW149892   5.012   1.941   6.372
12610SOL    HW249893   5.149   1.859   6.339
12611SOL     OW49894   3.721   2.467   6.063
12611SOL    HW149895   3.723   2.418   6.150
12611SOL    HW249896   3.723   2.566   6.081
12612SOL     OW49897   4.042   2.055   6.384
12612SOL    HW149898   4.094   2.095   6.459
12612SOL    HW249899   4.095   1.982   6.341
12613SOL     OW49900   4.026   2.103   6.718
12613SOL    HW149901   3.991   2.010   6.718
12613SOL    HW249902   4.113   2.106   6.669
12614SOL     OW49903   4.693   2.725   6.458
12614SOL    HW149904   4.719   2.805   6.404
12614SOL    HW249905   4.687   2.645   6.398
12615SOL     OW49906   3.894   3.352   5.917
12615SOL    HW149907   3.921   3.258   5.937
12615SOL    HW249908   3.919   3.374   5.823
12616SOL     OW49909   5.176   3.221   6.791
12616SOL    HW149910   5.147   3.258   6.702
12616SOL    HW249911   5.098   3.221   6.853
12617SOL     OW49912   3.908   3.495   6.154
12617SOL    HW149913   3.824   3.546   6.172
12617SOL    HW249914   3.899   3.444   6.069
12618SOL     OW49915   5.429   3.292   6.829
12618SOL    HW149916   5.460   3.306   6.923
12618SOL    HW249917   5.330   3.279   6.828
12619SOL     OW49918   4.181   2.792   5.556
12619SOL    HW149919   4.150   2.826   5.468
12619SOL    HW249920   4.185   2.867   5.622
12620SOL     OW49921   4.698   2.979   6.855
12620SOL    HW149922   4.748   2.894   6.839
12620SOL    HW249923   4.652   3.006   6.770
12621SOL     OW49924   3.785   2.684   5.729
12621SOL    HW149925   3.845   2.631   5.789
12621SOL    HW249926   3.691   2.652   5.741
12622SOL     OW49927   5.305   2.682   5.929
12622SOL    HW149928   5.373   2.616   5.896
12622SOL    HW249929   5.320   2.770   5.885
12623SOL     OW49930   4.553   3.669   6.577
12623SOL    HW149931   4.599   3.602   6.519
12623SOL    HW249932   4.479   3.625   6.627
12624SOL     OW49933   4.460   2.738   5.613
12624SOL    HW149934   4.489   2.657   5.664
12624SOL    HW249935   4.360   2.737   5.604
12625SOL     OW49936   5.056   2.270   5.959
12625SOL    HW149937   4.993   2.328   5.907
12625SOL    HW249938   5.149   2.304   5.947
12626SOL     OW49939   3.953   2.471   7.059
12626SOL    HW149940   3.973   2.376   7.034
12626SOL    HW249941   3.916   2.474   7.152
12627SOL     OW49942   3.835   2.126   6.949
12627SOL    HW149943   3.907   2.136   6.880
12627SOL    HW249944   3.746   2.125   6.904
12628SOL     OW49945   4.733   2.747   6.714
12628SOL    HW149946   4.727   2.733   6.615
12628SOL    HW249947   4.652   2.708   6.758
12629SOL     OW49948   5.324   2.281   6.029
12629SOL    HW149949   5.420   2.252   6.026
12629SOL    HW249950   5.285   2.259   6.118
12630SOL     OW49951   4.608   3.356   6.466
12630SOL    HW149952   4.666   3.367   6.385
12630SOL    HW249953   4.514   3.380   6.444
12631SOL     OW49954   4.558   2.222   5.751
12631SOL    HW149955   4.467   2.235   5.789
12631SOL    HW249956   4.618   2.182   5.821
12632SOL     OW49957   4.669   3.167   5.686
12632SOL    HW149958   4.722   3.107   5.746
12632SOL    HW249959   4.708   3.168   5.595
12633SOL     OW49960   4.835   2.735   6.160
12633SOL    HW149961   4.900   2.763   6.231
12633SOL    HW249962   4.756   2.796   6.162
12634SOL     OW49963   4.583   3.461   7.184
12634SOL    HW149964   4.571   3.392   7.113
12634SOL    HW249965   4.546   3.426   7.271
12635SOL     OW49966   5.027   2.775   6.363
12635SOL    HW149967   5.048   2.717   6.441
12635SOL    HW249968   5.036   2.871   6.389
12636SOL     OW49969   3.983   2.904   6.409
12636SOL    HW149970   3.906   2.966   6.402
12636SOL    HW249971   4.020   2.905   6.502
12637SOL     OW49972   4.616   2.852   6.108
12637SOL    HW149973   4.603   2.763   6.065
12637SOL    HW249974   4.547   2.866   6.179
12638SOL     OW49975   4.920   3.240   6.947
12638SOL    HW149976   4.953   3.325   6.988
12638SOL    HW249977   4.821   3.236   6.954
12639SOL     OW49978   3.727   2.157   6.011
12639SOL    HW149979   3.787   2.108   5.949
12639SOL    HW249980   3.782   2.209   6.076
12640SOL     OW49981   5.350   3.655   5.702
12640SOL    HW149982   5.440   3.699   5.704
12640SOL    HW249983   5.349   3.586   5.630
12641SOL     OW49984   4.514   2.622   6.860
12641SOL    HW149985   4.516   2.708   6.911
12641SOL    HW249986   4.571   2.554   6.907
12642SOL     OW49987   3.751   3.649   6.931
12642SOL    HW149988   3.759   3.749   6.929
12642SOL    HW249989   3.727   3.620   7.024
12643SOL     OW49990   4.532   2.668   5.925
12643SOL    HW149991   4.443   2.696   5.890
12643SOL    HW249992   4.573   2.602   5.861
12644SOL     OW49993   4.054   2.386   6.464
12644SOL    HW149994   4.110   2.379   6.381
12644SOL    HW249995   4.111   2.364   6.544
12645SOL     OW49996   4.051   3.584   5.735
12645SOL    HW149997   4.143   3.614   5.710
12645SOL    HW249998   4.026   3.623   5.824
12646SOL     OW49999   5.027   3.606   6.672
12646SOL    HW150000   5.046   3.669   6.598
12646SOL    HW250001   5.035   3.512   6.639
12647SOL     OW50002   3.732   3.001   6.484
12647SOL    HW150003   3.642   3.017   6.445
12647SOL    HW250004   3.730   2.917   6.539
12648SOL     OW50005   4.483   1.906   5.934
12648SOL    HW150006   4.444   1.895   5.843
12648SOL    HW250007   4.439   1.982   5.981
12649SOL     OW50008   3.728   3.042   6.028
12649SOL    HW150009   3.806   3.100   6.052
12649SOL    HW250010   3.747   2.993   5.943
12650SOL     OW50011   4.974   2.116   6.403
12650SOL    HW150012   4.973   2.194   6.340
12650SOL    HW250013   5.017   2.143   6.489
12651SOL     OW50014   5.094   1.922   5.699
12651SOL    HW150015   5.174   1.862   5.696
12651SOL    HW250016   5.020   1.875   5.747
12652SOL     OW50017   4.409   2.153   6.265
12652SOL    HW150018   4.398   2.095   6.346
12652SOL    HW250019   4.494   2.205   6.273
12653SOL     OW50020   4.989   2.504   6.657
12653SOL    HW150021   5.043   2.544   6.583
12653SOL    HW250022   5.027   2.533   6.745
12654SOL     OW50023   5.282   1.910   5.973
12654SOL    HW150024   5.289   1.864   5.885
12654SOL    HW250025   5.186   1.920   5.998
12655SOL     OW50026   4.258   3.225   7.336
12655SOL    HW150027   4.219   3.288   7.269
12655SOL    HW250028   4.341   3.265   7.376
12656SOL     OW50029   4.134   2.957   7.168
12656SOL    HW150030   4.153   2.981   7.073
12656SOL    HW250031   4.127   3.040   7.223
12657SOL     OW50032   3.795   3.247   6.642
12657SOL    HW150033   3.764   3.173   6.583
12657SOL    HW250034   3.727   3.265   6.713
12658SOL     OW50035   4.881   2.448   6.375
12658SOL    HW150036   4.963   2.425   6.323
12658SOL    HW250037   4.876   2.389   6.456
12659SOL     OW50038   5.481   2.475   7.211
12659SOL    HW150039   5.470   2.561   7.160
12659SOL    HW250040   5.575   2.466   7.241
12660SOL     OW50041   5.282   2.380   7.381
12660SOL    HW150042   5.362   2.405   7.325
12660SOL    HW250043   5.313   2.345   7.469
12661SOL     OW50044   4.993   2.683   5.961
12661SOL    HW150045   4.939   2.681   6.045
12661SOL    HW250046   5.070   2.746   5.972
12662SOL     OW50047   5.290   2.779   6.181
12662SOL    HW150048   5.304   2.742   6.088
12662SOL    HW250049   5.201   2.749   6.215
12663SOL     OW50050   5.446   2.716   7.076
12663SOL    HW150051   5.348   2.737   7.078
12663SOL    HW250052   5.495   2.792   7.035
12664SOL     OW50053   5.300   2.136   5.755
12664SOL    HW150054   5.305   2.178   5.846
12664SOL    HW250055   5.233   2.061   5.757
12665SOL     OW50056   4.447   3.351   6.975
12665SOL    HW150057   4.384   3.429   6.982
12665SOL    HW250058   4.415   3.289   6.903
12666SOL     OW50059   3.838   2.146   7.240
12666SOL    HW150060   3.856   2.135   7.142
12666SOL    HW250061   3.740   2.142   7.257
12667SOL     OW50062   3.718   3.560   7.184
12667SOL    HW150063   3.790   3.546   7.252
12667SOL    HW250064   3.629   3.563   7.229
12668SOL     OW50065   3.886   2.216   6.208
12668SOL    HW150066   3.829   2.271   6.269
12668SOL    HW250067   3.956   2.168   6.261
12669SOL     OW50068   5.058   3.448   7.071
12669SOL    HW150069   5.011   3.516   7.126
12669SOL    HW250070   5.125   3.494   7.012
12670SOL     OW50071   4.023   2.407   5.806
12670SOL    HW150072   4.095   2.436   5.743
12670SOL    HW250073   3.979   2.487   5.846
12671SOL     OW50074   4.138   3.670   6.272
12671SOL    HW150075   4.062   3.636   6.217
12671SOL    HW250076   4.224   3.633   6.237
12672SOL     OW50077   4.063   3.179   6.717
12672SOL    HW150078   4.075   3.195   6.814
12672SOL    HW250079   3.976   3.219   6.687
12673SOL     OW50080   4.947   3.383   7.363
12673SOL    HW150081   4.906   3.298   7.329
12673SOL    HW250082   4.927   3.457   7.299
12674SOL     OW50083   4.437   3.103   6.053
12674SOL    HW150084   4.480   3.034   5.995
12674SOL    HW250085   4.401   3.060   6.136
12675SOL     OW50086   4.069   2.654   6.255
12675SOL    HW150087   4.061   2.752   6.273
12675SOL    HW250088   4.153   2.620   6.296
12676SOL     OW50089   3.915   2.134   5.770
12676SOL    HW150090   3.959   2.103   5.687
12676SOL    HW250091   3.916   2.234   5.774
12677SOL     OW50092   3.768   2.386   6.381
12677SOL    HW150093   3.732   2.479   6.373
12677SOL    HW250094   3.851   2.387   6.437
12678SOL     OW50095   4.203   2.973   5.767
12678SOL    HW150096   4.303   2.973   5.778
12678SOL    HW250097   4.172   3.066   5.746
12679SOL     OW50098   4.829   2.565   5.583
12679SOL    HW150099   4.760   2.622   5.539
12679SOL    HW250100   4.910   2.559   5.524
12680SOL     OW50101   4.564   2.484   5.726
12680SOL    HW150102   4.654   2.485   5.681
12680SOL    HW250103   4.541   2.390   5.751
12681SOL     OW50104   5.015   2.001   6.020
12681SOL    HW150105   4.925   1.985   6.061
12681SOL    HW250106   5.023   2.097   5.994
12682SOL     OW50107   5.129   2.401   7.036
12682SOL    HW150108   5.081   2.424   7.120
12682SOL    HW250109   5.063   2.371   6.967
12683SOL     OW50110   3.764   1.916   5.680
12683SOL    HW150111   3.827   1.839   5.688
12683SOL    HW250112   3.784   1.984   5.751
12684SOL     OW50113   4.037   2.891   6.681
12684SOL    HW150114   4.048   2.846   6.770
12684SOL    HW250115   4.064   2.987   6.688
12685SOL     OW50116   5.336   2.903   5.781
12685SOL    HW150117   5.407   2.973   5.783
12685SOL    HW250118   5.323   2.873   5.686
12686SOL     OW50119   4.318   2.504   6.703
12686SOL    HW150120   4.393   2.547   6.752
12686SOL    HW250121   4.251   2.469   6.769
12687SOL     OW50122   4.461   2.873   7.020
12687SOL    HW150123   4.530   2.925   6.970
12687SOL    HW250124   4.456   2.906   7.115
12688SOL     OW50125   4.853   2.894   7.180
12688SOL    HW150126   4.775   2.840   7.213
12688SOL    HW250127   4.934   2.872   7.235
12689SOL     OW50128   4.782   2.076   6.176
12689SOL    HW150129   4.841   2.136   6.231
12689SOL    HW250130   4.709   2.040   6.233
12690SOL     OW50131   4.892   3.608   7.216
12690SOL    HW150132   4.797   3.606   7.184
12690SOL    HW250133   4.913   3.699   7.253
12691SOL     OW50134   4.310   1.953   6.447
12691SOL    HW150135   4.238   1.886   6.433
12691SOL    HW250136   4.392   1.907   6.482
12692SOL     OW50137   4.010   3.618   6.814
12692SOL    HW150138   3.990   3.600   6.718
12692SOL    HW250139   3.937   3.580   6.871
12693SOL     OW50140   4.703   3.082   6.359
12693SOL    HW150141   4.742   3.125   6.278
12693SOL    HW250142   4.776   3.065   6.426
12694SOL     OW50143   4.397   2.810   6.561
12694SOL    HW150144   4.395   2.726   6.506
12694SOL    HW250145   4.346   2.796   6.646
12695SOL     OW50146   3.736   2.820   6.687
12695SOL    HW150147   3.825   2.798   6.727
12695SOL    HW250148   3.681   2.736   6.683
12696SOL     OW50149   3.964   1.865   5.967
12696SOL    HW150150   4.002   1.953   5.994
12696SOL    HW250151   3.887   1.841   6.027
12697SOL     OW50152   4.380   2.482   7.295
12697SOL    HW150153   4.332   2.533   7.224
12697SOL    HW250154   4.473   2.461   7.265
12698SOL     OW50155   3.786   2.952   5.787
12698SOL    HW150156   3.776   2.855   5.766
12698SOL    HW250157   3.839   2.997   5.715
12699SOL     OW50158   4.531   3.040   6.640
12699SOL    HW150159   4.482   2.955   6.621
12699SOL    HW250160   4.601   3.055   6.571
12700SOL     OW50161   4.869   2.463   5.849
12700SOL    HW150162   4.921   2.535   5.895
12700SOL    HW250163   4.882   2.470   5.751
12701SOL     OW50164   5.230   3.278   7.176
12701SOL    HW150165   5.215   3.180   7.190
12701SOL    HW250166   5.147   3.320   7.140
12702SOL     OW50167   3.987   2.720   6.916
12702SOL    HW150168   3.951   2.630   6.942
12702SOL    HW250169   3.948   2.790   6.976
12703SOL     OW50170   4.489   3.346   5.574
12703SOL    HW150171   4.464   3.423   5.633
12703SOL    HW250172   4.553   3.286   5.622
12704SOL     OW50173   4.307   3.553   6.608
12704SOL    HW150174   4.327   3.523   6.515
12704SOL    HW250175   4.232   3.498   6.645
12705SOL     OW50176   4.450   2.964   6.325
12705SOL    HW150177   4.539   3.010   6.325
12705SOL    HW250178   4.443   2.904   6.404
12706SOL     OW50179   4.628   3.311   5.994
12706SOL    HW150180   4.678   3.299   5.909
12706SOL    HW250181   4.574   3.228   6.013
12707SOL     OW50182   3.818   2.658   6.394
12707SOL    HW150183   3.913   2.649   6.362
12707SOL    HW250184   3.784   2.750   6.373
12708SOL     OW50185   3.755   2.775   7.321
12708SOL    HW150186   3.670   2.726   7.302
12708SOL    HW250187   3.782   2.762   7.416
12709SOL     OW50188   4.652   3.684   7.027
12709SOL    HW150189   4.624   3.597   7.068
12709SOL    HW250190   4.596   3.758   7.064
12710SOL     OW50191   4.881   3.031   6.557
12710SOL    HW150192   4.865   3.125   6.588
12710SOL    HW250193   4.884   2.970   6.637
12711SOL     OW50194   4.155   2.302   7.321
12711SOL    HW150195   4.191   2.249   7.244
12711SOL    HW250196   4.216   2.379   7.339
12712SOL     OW50197   4.219   2.719   5.893
12712SOL    HW150198   4.169   2.784   5.837
12712SOL    HW250199   4.161   2.640   5.912
12713SOL     OW50200   5.300   2.750   6.591
12713SOL    HW150201   5.319   2.789   6.500
12713SOL    HW250202   5.254   2.819   6.647
12714SOL     OW50203   3.693   1.892   6.088
12714SOL    HW150204   3.606   1.879   6.041
12714SOL    HW250205   3.701   1.987   6.118
12715SOL     OW50206   4.130   3.412   7.154
12715SOL    HW150207   4.072   3.477   7.203
12715SOL    HW250208   4.192   3.462   7.094
12716SOL     OW50209   5.486   3.299   7.095
12716SOL    HW150210   5.514   3.392   7.117
12716SOL    HW250211   5.393   3.283   7.128
12717SOL     OW50212   4.736   2.412   6.645
12717SOL    HW150213   4.822   2.463   6.644
12717SOL    HW250214   4.742   2.338   6.712
12718SOL     OW50215   4.140   3.358   6.217
12718SOL    HW150216   4.138   3.259   6.230
12718SOL    HW250217   4.049   3.391   6.194
12719SOL     OW50218   4.781   3.475   6.805
12719SOL    HW150219   4.707   3.539   6.823
12719SOL    HW250220   4.860   3.524   6.767
12720SOL     OW50221   3.990   3.605   7.304
12720SOL    HW150222   4.033   3.689   7.270
12720SOL    HW250223   4.015   3.592   7.400
12721SOL     OW50224   3.850   3.141   7.175
12721SOL    HW150225   3.829   3.046   7.148
12721SOL    HW250226   3.781   3.202   7.137
12722SOL     OW50227   3.939   3.506   6.579
12722SOL    HW150228   3.881   3.426   6.593
12722SOL    HW250229   3.963   3.513   6.482
12723SOL     OW50230   4.685   2.027   6.434
12723SOL    HW150231   4.781   2.028   6.462
12723SOL    HW250232   4.630   1.984   6.506
12724SOL     OW50233   4.747   3.033   5.950
12724SOL    HW150234   4.827   3.069   5.998
12724SOL    HW250235   4.705   2.960   6.006
12725SOL     OW50236   5.338   2.300   6.314
12725SOL    HW150237   5.357   2.386   6.361
12725SOL    HW250238   5.406   2.231   6.342
12726SOL     OW50239   4.481   2.972   5.800
12726SOL    HW150240   4.553   3.031   5.765
12726SOL    HW250241   4.521   2.888   5.836
12727SOL     OW50242   4.552   1.948   5.652
12727SOL    HW150243   4.627   1.882   5.664
12727SOL    HW250244   4.583   2.039   5.680
12728SOL     OW50245   4.231   2.377   6.264
12728SOL    HW150246   4.269   2.288   6.290
12728SOL    HW250247   4.298   2.427   6.209
12729SOL     OW50248   4.219   2.935   6.918
12729SOL    HW150249   4.315   2.915   6.938
12729SOL    HW250250   4.208   3.033   6.900
12730SOL     OW50251   5.441   2.978   6.887
12730SOL    HW150252   5.455   3.076   6.901
12730SOL    HW250253   5.498   2.947   6.811
12731SOL     OW50254   3.924   3.087   5.579
12731SOL    HW150255   3.916   3.099   5.480
12731SOL    HW250256   3.983   3.158   5.617
12732SOL     OW50257   4.351   3.526   5.739
12732SOL    HW150258   4.326   3.621   5.723
12732SOL    HW250259   4.318   3.498   5.829
12733SOL     OW50260   5.001   2.949   6.963
12733SOL    HW150261   4.945   2.908   7.034
12733SOL    HW250262   4.981   3.047   6.957
12734SOL     OW50263   4.268   3.565   6.963
12734SOL    HW150264   4.317   3.645   6.927
12734SOL    HW250265   4.176   3.563   6.924
12735SOL     OW50266   3.911   2.446   7.325
12735SOL    HW150267   3.928   2.347   7.330
12735SOL    HW250268   3.975   2.494   7.386
12736SOL     OW50269   5.350   3.407   6.564
12736SOL    HW150270   5.322   3.500   6.588
12736SOL    HW250271   5.400   3.366   6.640
12737SOL     OW50272   3.746   2.780   6.125
12737SOL    HW150273   3.753   2.879   6.112
12737SOL    HW250274   3.655   2.757   6.159
12738SOL     OW50275   4.255   2.578   7.063
12738SOL    HW150276   4.161   2.548   7.044
12738SOL    HW250277   4.264   2.675   7.040
12739SOL     OW50278   4.480   2.360   6.544
12739SOL    HW150279   4.572   2.388   6.571
12739SOL    HW250280   4.412   2.411   6.598
12740SOL     OW50281   4.333   3.211   6.771
12740SOL    HW150282   4.246   3.210   6.722
12740SOL    HW250283   4.399   3.151   6.724
12741SOL     OW50284   3.899   2.553   6.685
12741SOL    HW150285   3.937   2.612   6.756
12741SOL    HW250286   3.882   2.606   6.603
12742SOL     OW50287   4.070   3.199   6.983
12742SOL    HW150288   4.089   3.287   7.027
12742SOL    HW250289   3.975   3.173   7.001
12743SOL     OW50290   5.313   3.515   7.331
12743SOL    HW150291   5.282   3.437   7.276
12743SOL    HW250292   5.282   3.600   7.289
12744SOL     OW50293   5.021   3.053   6.052
12744SOL    HW150294   5.120   3.057   6.068
12744SOL    HW250295   5.004   3.039   5.954
12745SOL     OW50296   4.374   2.219   6.000
12745SOL    HW150297   4.276   2.213   5.980
12745SOL    HW250298   4.393   2.176   6.088
12746SOL     OW50299   5.294   1.902   6.259
12746SOL    HW150300   5.289   1.943   6.168
12746SOL    HW250301   5.375   1.936   6.306
12747SOL     OW50302   4.897   2.658   6.952
12747SOL    HW150303   4.996   2.667   6.942
12747SOL    HW250304   4.853   2.660   6.862
12748SOL     OW50305   4.391   2.618   6.354
12748SOL    HW150306   4.413   2.540   6.412
12748SOL    HW250307   4.400   2.592   6.258
12749SOL     OW50308   5.056   3.325   6.566
12749SOL    HW150309   4.970   3.282   6.595
12749SOL    HW250310   5.045   3.365   6.475
12750SOL     OW50311   5.059   2.310   6.241
12750SOL    HW150312   5.058   2.302   6.142
12750SOL    HW250313   5.148   2.282   6.276
12751SOL     OW50314   4.786   3.326   8.074
12751SOL    HW150315   4.877   3.360   8.097
12751SOL    HW250316   4.758   3.364   7.986
12752SOL     OW50317   5.297   3.122   7.932
12752SOL    HW150318   5.308   3.206   7.986
12752SOL    HW250319   5.387   3.085   7.909
12753SOL     OW50320   5.377   2.404   8.796
12753SOL    HW150321   5.279   2.396   8.818
12753SOL    HW250322   5.430   2.393   8.880
12754SOL     OW50323   4.044   2.041   7.401
12754SOL    HW150324   3.957   2.038   7.352
12754SOL    HW250325   4.095   2.123   7.373
12755SOL     OW50326   5.031   3.430   8.176
12755SOL    HW150327   5.020   3.527   8.199
12755SOL    HW250328   5.124   3.413   8.146
12756SOL     OW50329   4.909   1.941   8.734
12756SOL    HW150330   4.833   1.896   8.781
12756SOL    HW250331   4.938   1.886   8.656
12757SOL     OW50332   4.647   2.721   9.111
12757SOL    HW150333   4.612   2.696   9.021
12757SOL    HW250334   4.571   2.742   9.172
12758SOL     OW50335   4.254   3.395   7.805
12758SOL    HW150336   4.210   3.404   7.894
12758SOL    HW250337   4.325   3.325   7.809
12759SOL     OW50338   4.272   1.928   7.527
12759SOL    HW150339   4.360   1.956   7.488
12759SOL    HW250340   4.200   1.991   7.497
12760SOL     OW50341   5.242   2.913   8.910
12760SOL    HW150342   5.150   2.918   8.872
12760SOL    HW250343   5.307   2.951   8.844
12761SOL     OW50344   5.142   2.920   8.591
12761SOL    HW150345   5.067   2.909   8.656
12761SOL    HW250346   5.179   3.013   8.597
12762SOL     OW50347   4.638   3.175   8.891
12762SOL    HW150348   4.581   3.238   8.837
12762SOL    HW250349   4.671   3.101   8.832
12763SOL     OW50350   4.181   3.068   8.100
12763SOL    HW150351   4.114   3.022   8.159
12763SOL    HW250352   4.273   3.036   8.123
12764SOL     OW50353   4.408   2.474   7.931
12764SOL    HW150354   4.447   2.544   7.872
12764SOL    HW250355   4.382   2.394   7.877
12765SOL     OW50356   5.028   2.382   9.140
12765SOL    HW150357   5.124   2.386   9.166
12765SOL    HW250358   4.984   2.306   9.187
12766SOL     OW50359   4.111   3.237   7.584
12766SOL    HW150360   4.175   3.253   7.509
12766SOL    HW250361   4.135   3.295   7.662
12767SOL     OW50362   4.262   2.193   8.394
12767SOL    HW150363   4.338   2.258   8.390
12767SOL    HW250364   4.292   2.104   8.361
12768SOL     OW50365   4.545   3.564   7.989
12768SOL    HW150366   4.610   3.497   7.953
12768SOL    HW250367   4.535   3.640   7.925
12769SOL     OW50368   5.437   3.446   7.731
12769SOL    HW150369   5.533   3.420   7.724
12769SOL    HW250370   5.413   3.506   7.655
12770SOL     OW50371   5.349   2.139   8.502
12770SOL    HW150372   5.400   2.211   8.455
12770SOL    HW250373   5.254   2.166   8.511
12771SOL     OW50374   4.749   2.168   7.771
12771SOL    HW150375   4.774   2.262   7.792
12771SOL    HW250376   4.750   2.114   7.855
12772SOL     OW50377   3.873   2.881   8.956
12772SOL    HW150378   3.969   2.896   8.974
12772SOL    HW250379   3.835   2.819   9.025
12773SOL     OW50380   4.199   2.526   7.499
12773SOL    HW150381   4.159   2.605   7.452
12773SOL    HW250382   4.288   2.505   7.459
12774SOL     OW50383   4.714   2.482   8.951
12774SOL    HW150384   4.747   2.399   8.998
12774SOL    HW250385   4.787   2.550   8.950
12775SOL     OW50386   5.318   3.282   8.173
12775SOL    HW150387   5.314   3.317   8.266
12775SOL    HW250388   5.377   3.341   8.117
12776SOL     OW50389   4.907   2.158   7.560
12776SOL    HW150390   5.001   2.128   7.578
12776SOL    HW250391   4.855   2.158   7.646
12777SOL     OW50392   4.059   2.363   8.655
12777SOL    HW150393   4.049   2.276   8.607
12777SOL    HW250394   3.995   2.430   8.618
12778SOL     OW50395   5.141   2.643   8.693
12778SOL    HW150396   5.145   2.737   8.658
12778SOL    HW250397   5.234   2.612   8.715
12779SOL     OW50398   4.094   2.135   7.814
12779SOL    HW150399   4.048   2.175   7.893
12779SOL    HW250400   4.042   2.154   7.732
12780SOL     OW50401   5.222   3.662   8.726
12780SOL    HW150402   5.165   3.613   8.660
12780SOL    HW250403   5.308   3.689   8.683
12781SOL     OW50404   5.517   2.380   8.581
12781SOL    HW150405   5.574   2.462   8.583
12781SOL    HW250406   5.458   2.379   8.661
12782SOL     OW50407   5.534   3.606   8.494
12782SOL    HW150408   5.580   3.616   8.582
12782SOL    HW250409   5.601   3.609   8.421
12783SOL     OW50410   4.647   2.346   8.056
12783SOL    HW150411   4.723   2.374   8.115
12783SOL    HW250412   4.603   2.426   8.017
12784SOL     OW50413   4.882   2.810   7.573
12784SOL    HW150414   4.919   2.760   7.651
12784SOL    HW250415   4.812   2.755   7.528
12785SOL     OW50416   4.724   2.232   9.194
12785SOL    HW150417   4.787   2.237   9.271
12785SOL    HW250418   4.632   2.210   9.227
12786SOL     OW50419   5.465   2.479   7.652
12786SOL    HW150420   5.486   2.398   7.598
12786SOL    HW250421   5.482   2.460   7.749
12787SOL     OW50422   4.759   3.617   7.560
12787SOL    HW150423   4.793   3.530   7.525
12787SOL    HW250424   4.727   3.605   7.654
12788SOL     OW50425   4.440   1.884   9.092
12788SOL    HW150426   4.447   1.790   9.059
12788SOL    HW250427   4.497   1.894   9.174
12789SOL     OW50428   5.363   2.485   8.360
12789SOL    HW150429   5.348   2.576   8.397
12789SOL    HW250430   5.433   2.438   8.414
12790SOL     OW50431   4.773   3.151   9.126
12790SOL    HW150432   4.795   3.061   9.088
12790SOL    HW250433   4.708   3.198   9.067
12791SOL     OW50434   5.063   1.857   8.236
12791SOL    HW150435   5.012   1.941   8.218
12791SOL    HW250436   5.149   1.859   8.185
12792SOL     OW50437   5.418   2.063   9.165
12792SOL    HW150438   5.395   2.084   9.260
12792SOL    HW250439   5.394   1.968   9.145
12793SOL     OW50440   3.721   2.467   7.909
12793SOL    HW150441   3.723   2.418   7.996
12793SOL    HW250442   3.723   2.566   7.927
12794SOL     OW50443   4.042   2.055   8.230
12794SOL    HW150444   4.094   2.095   8.305
12794SOL    HW250445   4.095   1.982   8.187
12795SOL     OW50446   4.026   2.103   8.564
12795SOL    HW150447   3.991   2.010   8.564
12795SOL    HW250448   4.113   2.106   8.515
12796SOL     OW50449   4.693   2.725   8.304
12796SOL    HW150450   4.719   2.805   8.250
12796SOL    HW250451   4.687   2.645   8.244
12797SOL     OW50452   3.894   3.352   7.763
12797SOL    HW150453   3.921   3.258   7.783
12797SOL    HW250454   3.919   3.374   7.669
12798SOL     OW50455   5.176   3.221   8.637
12798SOL    HW150456   5.147   3.258   8.548
12798SOL    HW250457   5.098   3.221   8.699
12799SOL     OW50458   5.429   3.292   8.675
12799SOL    HW150459   5.460   3.306   8.769
12799SOL    HW250460   5.330   3.279   8.674
12800SOL     OW50461   4.698   2.979   8.701
12800SOL    HW150462   4.748   2.894   8.685
12800SOL    HW250463   4.652   3.006   8.616
12801SOL     OW50464   3.785   2.684   7.575
12801SOL    HW150465   3.845   2.631   7.635
12801SOL    HW250466   3.691   2.652   7.587
12802SOL     OW50467   5.305   2.682   7.775
12802SOL    HW150468   5.373   2.616   7.742
12802SOL    HW250469   5.320   2.770   7.731
12803SOL     OW50470   4.553   3.669   8.423
12803SOL    HW150471   4.599   3.602   8.365
12803SOL    HW250472   4.479   3.625   8.473
12804SOL     OW50473   4.460   2.738   7.459
12804SOL    HW150474   4.489   2.657   7.510
12804SOL    HW250475   4.360   2.737   7.450
12805SOL     OW50476   5.056   2.270   7.805
12805SOL    HW150477   4.993   2.328   7.753
12805SOL    HW250478   5.149   2.304   7.793
12806SOL     OW50479   3.953   2.471   8.905
12806SOL    HW150480   3.973   2.376   8.880
12806SOL    HW250481   3.916   2.474   8.998
12807SOL     OW50482   3.835   2.126   8.795
12807SOL    HW150483   3.907   2.136   8.726
12807SOL    HW250484   3.746   2.125   8.750
12808SOL     OW50485   4.733   2.747   8.560
12808SOL    HW150486   4.727   2.733   8.461
12808SOL    HW250487   4.652   2.708   8.604
12809SOL     OW50488   5.324   2.281   7.875
12809SOL    HW150489   5.420   2.252   7.872
12809SOL    HW250490   5.285   2.259   7.964
12810SOL     OW50491   4.608   3.356   8.312
12810SOL    HW150492   4.666   3.367   8.231
12810SOL    HW250493   4.514   3.380   8.290
12811SOL     OW50494   4.558   2.222   7.597
12811SOL    HW150495   4.467   2.235   7.635
12811SOL    HW250496   4.618   2.182   7.667
12812SOL     OW50497   4.669   3.167   7.532
12812SOL    HW150498   4.722   3.107   7.592
12812SOL    HW250499   4.708   3.168   7.441
12813SOL     OW50500   5.420   3.462   8.017
12813SOL    HW150501   5.387   3.555   8.036
12813SOL    HW250502   5.418   3.446   7.918
12814SOL     OW50503   4.835   2.735   8.006
12814SOL    HW150504   4.900   2.763   8.077
12814SOL    HW250505   4.756   2.796   8.008
12815SOL     OW50506   5.027   2.775   8.209
12815SOL    HW150507   5.048   2.717   8.287
12815SOL    HW250508   5.036   2.871   8.235
12816SOL     OW50509   3.983   2.904   8.255
12816SOL    HW150510   3.906   2.966   8.248
12816SOL    HW250511   4.020   2.905   8.348
12817SOL     OW50512   4.616   2.852   7.954
12817SOL    HW150513   4.603   2.763   7.911
12817SOL    HW250514   4.547   2.866   8.025
12818SOL     OW50515   4.920   3.240   8.793
12818SOL    HW150516   4.953   3.325   8.834
12818SOL    HW250517   4.821   3.236   8.800
12819SOL     OW50518   3.727   2.157   7.857
12819SOL    HW150519   3.787   2.108   7.795
12819SOL    HW250520   3.782   2.209   7.922
12820SOL     OW50521   5.350   3.655   7.548
12820SOL    HW150522   5.440   3.699   7.550
12820SOL    HW250523   5.349   3.586   7.476
12821SOL     OW50524   4.514   2.622   8.706
12821SOL    HW150525   4.516   2.708   8.757
12821SOL    HW250526   4.571   2.554   8.753
12822SOL     OW50527   3.751   3.649   8.777
12822SOL    HW150528   3.759   3.749   8.775
12822SOL    HW250529   3.727   3.620   8.870
12823SOL     OW50530   4.532   2.668   7.771
12823SOL    HW150531   4.443   2.696   7.736
12823SOL    HW250532   4.573   2.602   7.707
12824SOL     OW50533   4.054   2.386   8.310
12824SOL    HW150534   4.110   2.379   8.227
12824SOL    HW250535   4.111   2.364   8.390
12825SOL     OW50536   4.051   3.584   7.581
12825SOL    HW150537   4.143   3.614   7.556
12825SOL    HW250538   4.026   3.623   7.670
12826SOL     OW50539   5.027   3.606   8.518
12826SOL    HW150540   5.046   3.669   8.444
12826SOL    HW250541   5.035   3.512   8.485
12827SOL     OW50542   3.732   3.001   8.330
12827SOL    HW150543   3.642   3.017   8.291
12827SOL    HW250544   3.730   2.917   8.385
12828SOL     OW50545   4.483   1.906   7.780
12828SOL    HW150546   4.444   1.895   7.689
12828SOL    HW250547   4.439   1.982   7.827
12829SOL     OW50548   3.728   3.042   7.874
12829SOL    HW150549   3.806   3.100   7.898
12829SOL    HW250550   3.747   2.993   7.789
12830SOL     OW50551   5.258   2.170   8.958
12830SOL    HW150552   5.197   2.248   8.955
12830SOL    HW250553   5.313   2.174   9.041
12831SOL     OW50554   4.974   2.116   8.249
12831SOL    HW150555   4.973   2.194   8.186
12831SOL    HW250556   5.017   2.143   8.335
12832SOL     OW50557   5.094   1.922   7.545
12832SOL    HW150558   5.174   1.862   7.542
12832SOL    HW250559   5.020   1.875   7.593
12833SOL     OW50560   5.307   1.894   8.979
12833SOL    HW150561   5.333   1.851   8.893
12833SOL    HW250562   5.257   1.978   8.961
12834SOL     OW50563   4.409   2.153   8.111
12834SOL    HW150564   4.398   2.095   8.192
12834SOL    HW250565   4.494   2.205   8.119
12835SOL     OW50566   4.989   2.504   8.503
12835SOL    HW150567   5.043   2.544   8.429
12835SOL    HW250568   5.027   2.533   8.591
12836SOL     OW50569   5.282   1.910   7.819
12836SOL    HW150570   5.289   1.864   7.731
12836SOL    HW250571   5.186   1.920   7.844
12837SOL     OW50572   4.881   2.448   8.221
12837SOL    HW150573   4.963   2.425   8.169
12837SOL    HW250574   4.876   2.389   8.302
12838SOL     OW50575   5.481   2.475   9.057
12838SOL    HW150576   5.470   2.561   9.006
12838SOL    HW250577   5.575   2.466   9.087
12839SOL     OW50578   5.052   2.248   8.476
12839SOL    HW150579   5.026   2.345   8.482
12839SOL    HW250580   5.052   2.208   8.568
12840SOL     OW50581   5.282   2.380   9.227
12840SOL    HW150582   5.362   2.405   9.171
12840SOL    HW250583   5.313   2.345   9.315
12841SOL     OW50584   4.993   2.683   7.807
12841SOL    HW150585   4.939   2.681   7.891
12841SOL    HW250586   5.070   2.746   7.818
12842SOL     OW50587   5.290   2.779   8.027
12842SOL    HW150588   5.304   2.742   7.934
12842SOL    HW250589   5.201   2.749   8.061
12843SOL     OW50590   5.446   2.716   8.922
12843SOL    HW150591   5.348   2.737   8.924
12843SOL    HW250592   5.495   2.792   8.881
12844SOL     OW50593   5.300   2.136   7.601
12844SOL    HW150594   5.305   2.178   7.692
12844SOL    HW250595   5.233   2.061   7.603
12845SOL     OW50596   4.447   3.351   8.821
12845SOL    HW150597   4.384   3.429   8.828
12845SOL    HW250598   4.415   3.289   8.749
12846SOL     OW50599   3.838   2.146   9.086
12846SOL    HW150600   3.856   2.135   8.988
12846SOL    HW250601   3.740   2.142   9.103
12847SOL     OW50602   3.718   3.560   9.030
12847SOL    HW150603   3.790   3.546   9.098
12847SOL    HW250604   3.629   3.563   9.075
12848SOL     OW50605   3.886   2.216   8.054
12848SOL    HW150606   3.829   2.271   8.115
12848SOL    HW250607   3.956   2.168   8.107
12849SOL     OW50608   5.058   3.448   8.917
12849SOL    HW150609   5.011   3.516   8.972
12849SOL    HW250610   5.125   3.494   8.858
12850SOL     OW50611   4.023   2.407   7.652
12850SOL    HW150612   4.095   2.436   7.589
12850SOL    HW250613   3.979   2.487   7.692
12851SOL     OW50614   5.409   2.069   8.755
12851SOL    HW150615   5.365   2.117   8.831
12851SOL    HW250616   5.387   2.115   8.669
12852SOL     OW50617   4.947   3.383   9.209
12852SOL    HW150618   4.906   3.298   9.175
12852SOL    HW250619   4.927   3.457   9.145
12853SOL     OW50620   4.437   3.103   7.899
12853SOL    HW150621   4.480   3.034   7.841
12853SOL    HW250622   4.401   3.060   7.982
12854SOL     OW50623   4.069   2.654   8.101
12854SOL    HW150624   4.061   2.752   8.119
12854SOL    HW250625   4.153   2.620   8.142
12855SOL     OW50626   3.915   2.134   7.616
12855SOL    HW150627   3.959   2.103   7.533
12855SOL    HW250628   3.916   2.234   7.620
12856SOL     OW50629   3.768   2.386   8.227
12856SOL    HW150630   3.732   2.479   8.219
12856SOL    HW250631   3.851   2.387   8.283
12857SOL     OW50632   4.203   2.973   7.613
12857SOL    HW150633   4.303   2.973   7.624
12857SOL    HW250634   4.172   3.066   7.592
12858SOL     OW50635   4.829   2.565   7.429
12858SOL    HW150636   4.760   2.622   7.385
12858SOL    HW250637   4.910   2.559   7.370
12859SOL     OW50638   4.564   2.484   7.572
12859SOL    HW150639   4.654   2.485   7.527
12859SOL    HW250640   4.541   2.390   7.597
12860SOL     OW50641   5.015   2.001   7.866
12860SOL    HW150642   4.925   1.985   7.907
12860SOL    HW250643   5.023   2.097   7.840
12861SOL     OW50644   5.129   2.401   8.882
12861SOL    HW150645   5.081   2.424   8.966
12861SOL    HW250646   5.063   2.371   8.813
12862SOL     OW50647   3.764   1.916   7.526
12862SOL    HW150648   3.827   1.839   7.534
12862SOL    HW250649   3.784   1.984   7.597
12863SOL     OW50650   4.037   2.891   8.527
12863SOL    HW150651   4.048   2.846   8.616
12863SOL    HW250652   4.064   2.987   8.534
12864SOL     OW50653   5.336   2.903   7.627
12864SOL    HW150654   5.407   2.973   7.629
12864SOL    HW250655   5.323   2.873   7.532
12865SOL     OW50656   4.318   2.504   8.549
12865SOL    HW150657   4.393   2.547   8.598
12865SOL    HW250658   4.251   2.469   8.615
12866SOL     OW50659   4.853   2.894   9.026
12866SOL    HW150660   4.775   2.840   9.059
12866SOL    HW250661   4.934   2.872   9.081
12867SOL     OW50662   4.782   2.076   8.022
12867SOL    HW150663   4.841   2.136   8.077
12867SOL    HW250664   4.709   2.040   8.079
12868SOL     OW50665   4.892   3.608   9.062
12868SOL    HW150666   4.797   3.606   9.030
12868SOL    HW250667   4.913   3.699   9.099
12869SOL     OW50668   4.310   1.953   8.293
12869SOL    HW150669   4.238   1.886   8.279
12869SOL    HW250670   4.392   1.907   8.328
12870SOL     OW50671   4.010   3.618   8.660
12870SOL    HW150672   3.990   3.600   8.564
12870SOL    HW250673   3.937   3.580   8.717
12871SOL     OW50674   4.703   3.082   8.205
12871SOL    HW150675   4.742   3.125   8.124
12871SOL    HW250676   4.776   3.065   8.272
12872SOL     OW50677   4.397   2.810   8.407
12872SOL    HW150678   4.395   2.726   8.352
12872SOL    HW250679   4.346   2.796   8.492
12873SOL     OW50680   3.736   2.820   8.533
12873SOL    HW150681   3.825   2.798   8.573
12873SOL    HW250682   3.681   2.736   8.529
12874SOL     OW50683   3.964   1.865   7.813
12874SOL    HW150684   4.002   1.953   7.840
12874SOL    HW250685   3.887   1.841   7.873
12875SOL     OW50686   4.380   2.482   9.141
12875SOL    HW150687   4.332   2.533   9.070
12875SOL    HW250688   4.473   2.461   9.111
12876SOL     OW50689   3.786   2.952   7.633
12876SOL    HW150690   3.776   2.855   7.612
12876SOL    HW250691   3.839   2.997   7.561
12877SOL     OW50692   5.483   2.064   8.234
12877SOL    HW150693   5.438   2.046   8.321
12877SOL    HW250694   5.581   2.081   8.250
12878SOL     OW50695   4.531   3.040   8.486
12878SOL    HW150696   4.482   2.955   8.467
12878SOL    HW250697   4.601   3.055   8.417
12879SOL     OW50698   4.869   2.463   7.695
12879SOL    HW150699   4.921   2.535   7.741
12879SOL    HW250700   4.882   2.470   7.597
12880SOL     OW50701   5.230   3.278   9.022
12880SOL    HW150702   5.215   3.180   9.036
12880SOL    HW250703   5.147   3.320   8.986
12881SOL     OW50704   3.987   2.720   8.762
12881SOL    HW150705   3.951   2.630   8.788
12881SOL    HW250706   3.948   2.790   8.822
12882SOL     OW50707   4.489   3.346   7.420
12882SOL    HW150708   4.464   3.423   7.479
12882SOL    HW250709   4.553   3.286   7.468
12883SOL     OW50710   4.307   3.553   8.454
12883SOL    HW150711   4.327   3.523   8.361
12883SOL    HW250712   4.232   3.498   8.491
12884SOL     OW50713   4.450   2.964   8.171
12884SOL    HW150714   4.539   3.010   8.171
12884SOL    HW250715   4.443   2.904   8.250
12885SOL     OW50716   4.628   3.311   7.840
12885SOL    HW150717   4.678   3.299   7.755
12885SOL    HW250718   4.574   3.228   7.859
12886SOL     OW50719   3.818   2.658   8.240
12886SOL    HW150720   3.913   2.649   8.208
12886SOL    HW250721   3.784   2.750   8.219
12887SOL     OW50722   3.755   2.775   9.167
12887SOL    HW150723   3.670   2.726   9.148
12887SOL    HW250724   3.782   2.762   9.262
12888SOL     OW50725   4.652   3.684   8.873
12888SOL    HW150726   4.624   3.597   8.914
12888SOL    HW250727   4.596   3.758   8.910
12889SOL     OW50728   4.881   3.031   8.403
12889SOL    HW150729   4.865   3.125   8.434
12889SOL    HW250730   4.884   2.970   8.483
12890SOL     OW50731   4.155   2.302   9.167
12890SOL    HW150732   4.191   2.249   9.090
12890SOL    HW250733   4.216   2.379   9.185
12891SOL     OW50734   5.300   2.750   8.437
12891SOL    HW150735   5.319   2.789   8.346
12891SOL    HW250736   5.254   2.819   8.493
12892SOL     OW50737   4.992   2.193   8.733
12892SOL    HW150738   5.063   2.165   8.797
12892SOL    HW250739   4.939   2.113   8.705
12893SOL     OW50740   3.693   1.892   7.934
12893SOL    HW150741   3.606   1.879   7.887
12893SOL    HW250742   3.701   1.987   7.964
12894SOL     OW50743   4.914   1.993   9.175
12894SOL    HW150744   4.973   2.009   9.255
12894SOL    HW250745   4.861   2.076   9.156
12895SOL     OW50746   5.486   3.299   8.941
12895SOL    HW150747   5.514   3.392   8.963
12895SOL    HW250748   5.393   3.283   8.974
12896SOL     OW50749   4.736   2.412   8.491
12896SOL    HW150750   4.822   2.463   8.490
12896SOL    HW250751   4.742   2.338   8.558
12897SOL     OW50752   4.781   3.475   8.651
12897SOL    HW150753   4.707   3.539   8.669
12897SOL    HW250754   4.860   3.524   8.613
12898SOL     OW50755   3.990   3.605   9.150
12898SOL    HW150756   4.033   3.689   9.116
12898SOL    HW250757   4.015   3.592   9.246
12899SOL     OW50758   3.850   3.141   9.021
12899SOL    HW150759   3.829   3.046   8.994
12899SOL    HW250760   3.781   3.202   8.983
12900SOL     OW50761   4.685   2.027   8.280
12900SOL    HW150762   4.781   2.028   8.308
12900SOL    HW250763   4.630   1.984   8.352
12901SOL     OW50764   4.747   3.033   7.796
12901SOL    HW150765   4.827   3.069   7.844
12901SOL    HW250766   4.705   2.960   7.852
12902SOL     OW50767   5.338   2.300   8.160
12902SOL    HW150768   5.357   2.386   8.207
12902SOL    HW250769   5.406   2.231   8.188
12903SOL     OW50770   4.481   2.972   7.646
12903SOL    HW150771   4.553   3.031   7.611
12903SOL    HW250772   4.521   2.888   7.682
12904SOL     OW50773   4.231   2.377   8.110
12904SOL    HW150774   4.269   2.288   8.136
12904SOL    HW250775   4.298   2.427   8.055
12905SOL     OW50776   5.441   2.978   8.733
12905SOL    HW150777   5.455   3.076   8.747
12905SOL    HW250778   5.498   2.947   8.657
12906SOL     OW50779   3.924   3.087   7.425
12906SOL    HW150780   3.916   3.099   7.326
12906SOL    HW250781   3.983   3.158   7.463
12907SOL     OW50782   4.351   3.526   7.585
12907SOL    HW150783   4.326   3.621   7.569
12907SOL    HW250784   4.318   3.498   7.675
12908SOL     OW50785   5.001   2.949   8.809
12908SOL    HW150786   4.945   2.908   8.880
12908SOL    HW250787   4.981   3.047   8.803
12909SOL     OW50788   3.911   2.446   9.171
12909SOL    HW150789   3.928   2.347   9.176
12909SOL    HW250790   3.975   2.494   9.232
12910SOL     OW50791   5.350   3.407   8.410
12910SOL    HW150792   5.322   3.500   8.434
12910SOL    HW250793   5.400   3.366   8.486
12911SOL     OW50794   3.746   2.780   7.971
12911SOL    HW150795   3.753   2.879   7.958
12911SOL    HW250796   3.655   2.757   8.005
12912SOL     OW50797   4.255   2.578   8.909
12912SOL    HW150798   4.161   2.548   8.890
12912SOL    HW250799   4.264   2.675   8.886
12913SOL     OW50800   5.322   2.954   8.221
12913SOL    HW150801   5.284   3.043   8.194
12913SOL    HW250802   5.322   2.892   8.143
12914SOL     OW50803   4.480   2.360   8.390
12914SOL    HW150804   4.572   2.388   8.417
12914SOL    HW250805   4.412   2.411   8.444
12915SOL     OW50806   3.899   2.553   8.531
12915SOL    HW150807   3.937   2.612   8.602
12915SOL    HW250808   3.882   2.606   8.449
12916SOL     OW50809   5.313   3.515   9.177
12916SOL    HW150810   5.282   3.437   9.122
12916SOL    HW250811   5.282   3.600   9.135
12917SOL     OW50812   5.021   3.053   7.898
12917SOL    HW150813   5.120   3.057   7.914
12917SOL    HW250814   5.004   3.039   7.800
12918SOL     OW50815   4.374   2.219   7.846
12918SOL    HW150816   4.276   2.213   7.826
12918SOL    HW250817   4.393   2.176   7.934
12919SOL     OW50818   5.294   1.902   8.105
12919SOL    HW150819   5.289   1.943   8.014
12919SOL    HW250820   5.375   1.936   8.152
12920SOL     OW50821   4.897   2.658   8.798
12920SOL    HW150822   4.996   2.667   8.788
12920SOL    HW250823   4.853   2.660   8.708
12921SOL     OW50824   4.391   2.618   8.200
12921SOL    HW150825   4.413   2.540   8.258
12921SOL    HW250826   4.400   2.592   8.104
12922SOL     OW50827   5.056   3.325   8.412
12922SOL    HW150828   4.970   3.282   8.441
12922SOL    HW250829   5.045   3.365   8.321
12923SOL     OW50830   5.059   2.310   8.087
12923SOL    HW150831   5.058   2.302   7.988
12923SOL    HW250832   5.148   2.282   8.122
12924SOL     OW50833   4.786   3.326   9.919
12924SOL    HW150834   4.877   3.360   9.942
12924SOL    HW250835   4.758   3.364   9.831
12925SOL     OW50836   5.297   3.122   9.777
12925SOL    HW150837   5.308   3.206   9.831
12925SOL    HW250838   5.387   3.085   9.754
12926SOL     OW50839   4.044   2.041   9.246
12926SOL    HW150840   3.957   2.038   9.197
12926SOL    HW250841   4.095   2.123   9.218
12927SOL     OW50842   4.272   1.928   9.372
12927SOL    HW150843   4.360   1.956   9.333
12927SOL    HW250844   4.200   1.991   9.342
12928SOL     OW50845   4.181   3.068   9.945
12928SOL    HW150846   4.114   3.022  10.004
12928SOL    HW250847   4.273   3.036   9.968
12929SOL     OW50848   4.408   2.474   9.776
12929SOL    HW150849   4.447   2.544   9.717
12929SOL    HW250850   4.382   2.394   9.722
12930SOL     OW50851   3.959   2.619   9.657
12930SOL    HW150852   3.974   2.553   9.731
12930SOL    HW250853   3.909   2.698   9.692
12931SOL     OW50854   4.545   3.564   9.834
12931SOL    HW150855   4.610   3.497   9.798
12931SOL    HW250856   4.535   3.640   9.770
12932SOL     OW50857   5.437   3.446   9.576
12932SOL    HW150858   5.533   3.420   9.569
12932SOL    HW250859   5.413   3.506   9.500
12933SOL     OW50860   4.749   2.168   9.616
12933SOL    HW150861   4.774   2.262   9.637
12933SOL    HW250862   4.750   2.114   9.700
12934SOL     OW50863   4.199   2.526   9.344
12934SOL    HW150864   4.159   2.605   9.297
12934SOL    HW250865   4.288   2.505   9.304
12935SOL     OW50866   5.318   3.282  10.018
12935SOL    HW150867   5.314   3.317  10.111
12935SOL    HW250868   5.377   3.341   9.962
12936SOL     OW50869   4.049   3.103   9.694
12936SOL    HW150870   4.095   3.077   9.779
12936SOL    HW250871   4.069   3.035   9.623
12937SOL     OW50872   4.907   2.158   9.405
12937SOL    HW150873   5.001   2.128   9.423
12937SOL    HW250874   4.855   2.158   9.491
12938SOL     OW50875   4.094   2.135   9.659
12938SOL    HW150876   4.048   2.175   9.738
12938SOL    HW250877   4.042   2.154   9.577
12939SOL     OW50878   5.534   3.606  10.339
12939SOL    HW150879   5.580   3.616  10.427
12939SOL    HW250880   5.601   3.609  10.266
12940SOL     OW50881   4.647   2.346   9.901
12940SOL    HW150882   4.723   2.374   9.960
12940SOL    HW250883   4.603   2.426   9.862
12941SOL     OW50884   4.882   2.810   9.418
12941SOL    HW150885   4.919   2.760   9.496
12941SOL    HW250886   4.812   2.755   9.373
12942SOL     OW50887   5.465   2.479   9.497
12942SOL    HW150888   5.486   2.398   9.443
12942SOL    HW250889   5.482   2.460   9.594
12943SOL     OW50890   4.759   3.617   9.405
12943SOL    HW150891   4.793   3.530   9.370
12943SOL    HW250892   4.727   3.605   9.499
12944SOL     OW50893   3.721   2.467   9.754
12944SOL    HW150894   3.723   2.418   9.841
12944SOL    HW250895   3.723   2.566   9.772
12945SOL     OW50896   3.894   3.352   9.608
12945SOL    HW150897   3.921   3.258   9.628
12945SOL    HW250898   3.919   3.374   9.514
12946SOL     OW50899   3.908   3.495   9.845
12946SOL    HW150900   3.824   3.546   9.863
12946SOL    HW250901   3.899   3.444   9.760
12947SOL     OW50902   4.181   2.792   9.247
12947SOL    HW150903   4.150   2.826   9.159
12947SOL    HW250904   4.185   2.867   9.313
12948SOL     OW50905   3.785   2.684   9.420
12948SOL    HW150906   3.845   2.631   9.480
12948SOL    HW250907   3.691   2.652   9.432
12949SOL     OW50908   5.305   2.682   9.620
12949SOL    HW150909   5.373   2.616   9.587
12949SOL    HW250910   5.320   2.770   9.576
12950SOL     OW50911   4.460   2.738   9.304
12950SOL    HW150912   4.489   2.657   9.355
12950SOL    HW250913   4.360   2.737   9.295
12951SOL     OW50914   5.056   2.270   9.650
12951SOL    HW150915   4.993   2.328   9.598
12951SOL    HW250916   5.149   2.304   9.638
12952SOL     OW50917   5.324   2.281   9.720
12952SOL    HW150918   5.420   2.252   9.717
12952SOL    HW250919   5.285   2.259   9.809
12953SOL     OW50920   4.558   2.222   9.442
12953SOL    HW150921   4.467   2.235   9.480
12953SOL    HW250922   4.618   2.182   9.512
12954SOL     OW50923   4.669   3.167   9.377
12954SOL    HW150924   4.722   3.107   9.437
12954SOL    HW250925   4.708   3.168   9.286
12955SOL     OW50926   5.420   3.462   9.862
12955SOL    HW150927   5.387   3.555   9.881
12955SOL    HW250928   5.418   3.446   9.763
12956SOL     OW50929   4.835   2.735   9.851
12956SOL    HW150930   4.900   2.763   9.922
12956SOL    HW250931   4.756   2.796   9.853
12957SOL     OW50932   5.027   2.775  10.054
12957SOL    HW150933   5.048   2.717  10.132
12957SOL    HW250934   5.036   2.871  10.080
12958SOL     OW50935   4.616   2.852   9.799
12958SOL    HW150936   4.603   2.763   9.756
12958SOL    HW250937   4.547   2.866   9.870
12959SOL     OW50938   3.727   2.157   9.702
12959SOL    HW150939   3.787   2.108   9.640
12959SOL    HW250940   3.782   2.209   9.767
12960SOL     OW50941   5.350   3.655   9.393
12960SOL    HW150942   5.440   3.699   9.395
12960SOL    HW250943   5.349   3.586   9.321
12961SOL     OW50944   4.532   2.668   9.616
12961SOL    HW150945   4.443   2.696   9.581
12961SOL    HW250946   4.573   2.602   9.552
12962SOL     OW50947   4.051   3.584   9.426
12962SOL    HW150948   4.143   3.614   9.401
12962SOL    HW250949   4.026   3.623   9.515
12963SOL     OW50950   4.483   1.906   9.625
12963SOL    HW150951   4.444   1.895   9.534
12963SOL    HW250952   4.439   1.982   9.672
12964SOL     OW50953   3.728   3.042   9.719
12964SOL    HW150954   3.806   3.100   9.743
12964SOL    HW250955   3.747   2.993   9.634
12965SOL     OW50956   5.094   1.922   9.390
12965SOL    HW150957   5.174   1.862   9.387
12965SOL    HW250958   5.020   1.875   9.438
12966SOL     OW50959   4.409   2.153   9.956
12966SOL    HW150960   4.398   2.095  10.037
12966SOL    HW250961   4.494   2.205   9.964
12967SOL     OW50962   5.282   1.910   9.664
12967SOL    HW150963   5.289   1.864   9.576
12967SOL    HW250964   5.186   1.920   9.689
12968SOL     OW50965   4.993   2.683   9.652
12968SOL    HW150966   4.939   2.681   9.736
12968SOL    HW250967   5.070   2.746   9.663
12969SOL     OW50968   5.290   2.779   9.872
12969SOL    HW150969   5.304   2.742   9.779
12969SOL    HW250970   5.201   2.749   9.906
12970SOL     OW50971   5.300   2.136   9.446
12970SOL    HW150972   5.305   2.178   9.537
12970SOL    HW250973   5.233   2.061   9.448
12971SOL     OW50974   4.023   2.407   9.497
12971SOL    HW150975   4.095   2.436   9.434
12971SOL    HW250976   3.979   2.487   9.537
12972SOL     OW50977   4.138   3.670   9.963
12972SOL    HW150978   4.062   3.636   9.908
12972SOL    HW250979   4.224   3.633   9.928
12973SOL     OW50980   4.437   3.103   9.744
12973SOL    HW150981   4.480   3.034   9.686
12973SOL    HW250982   4.401   3.060   9.827
12974SOL     OW50983   3.915   2.134   9.461
12974SOL    HW150984   3.959   2.103   9.378
12974SOL    HW250985   3.916   2.234   9.465
12975SOL     OW50986   4.829   2.565   9.274
12975SOL    HW150987   4.760   2.622   9.230
12975SOL    HW250988   4.910   2.559   9.215
12976SOL     OW50989   4.564   2.484   9.417
12976SOL    HW150990   4.654   2.485   9.372
12976SOL    HW250991   4.541   2.390   9.442
12977SOL     OW50992   5.015   2.001   9.711
12977SOL    HW150993   4.925   1.985   9.752
12977SOL    HW250994   5.023   2.097   9.685
12978SOL     OW50995   3.764   1.916   9.371
12978SOL    HW150996   3.827   1.839   9.379
12978SOL    HW250997   3.784   1.984   9.442
12979SOL     OW50998   5.336   2.903   9.472
12979SOL    HW150999   5.407   2.973   9.474
12979SOL    HW251000   5.323   2.873   9.377
12980SOL     OW51001   4.782   2.076   9.867
12980SOL    HW151002   4.841   2.136   9.922
12980SOL    HW251003   4.709   2.040   9.924
12981SOL     OW51004   3.964   1.865   9.658
12981SOL    HW151005   4.002   1.953   9.685
12981SOL    HW251006   3.887   1.841   9.718
12982SOL     OW51007   3.786   2.952   9.478
12982SOL    HW151008   3.776   2.855   9.457
12982SOL    HW251009   3.839   2.997   9.406
12983SOL     OW51010   4.869   2.463   9.540
12983SOL    HW151011   4.921   2.535   9.586
12983SOL    HW251012   4.882   2.470   9.442
12984SOL     OW51013   4.450   2.964  10.016
12984SOL    HW151014   4.539   3.010  10.016
12984SOL    HW251015   4.443   2.904  10.095
12985SOL     OW51016   4.628   3.311   9.685
12985SOL    HW151017   4.678   3.299   9.600
12985SOL    HW251018   4.574   3.228   9.704
12986SOL     OW51019   4.219   2.719   9.584
12986SOL    HW151020   4.169   2.784   9.528
12986SOL    HW251021   4.161   2.640   9.603
12987SOL     OW51022   3.693   1.892   9.779
12987SOL    HW151023   3.606   1.879   9.732
12987SOL    HW251024   3.701   1.987   9.809
12988SOL     OW51025   4.140   3.358   9.908
12988SOL    HW151026   4.138   3.259   9.921
12988SOL    HW251027   4.049   3.391   9.885
12989SOL     OW51028   4.747   3.033   9.641
12989SOL    HW151029   4.827   3.069   9.689
12989SOL    HW251030   4.705   2.960   9.697
12990SOL     OW51031   5.338   2.300  10.005
12990SOL    HW151032   5.357   2.386  10.052
12990SOL    HW251033   5.406   2.231  10.033
12991SOL     OW51034   4.481   2.972   9.491
12991SOL    HW151035   4.553   3.031   9.456
12991SOL    HW251036   4.521   2.888   9.527
12992SOL     OW51037   4.552   1.948   9.343
12992SOL    HW151038   4.627   1.882   9.355
12992SOL    HW251039   4.583   2.039   9.371
12993SOL     OW51040   4.231   2.377   9.955
12993SOL    HW151041   4.269   2.288   9.981
12993SOL    HW251042   4.298   2.427   9.900
12994SOL     OW51043   3.924   3.087   9.270
12994SOL    HW151044   3.916   3.099   9.171
12994SOL    HW251045   3.983   3.158   9.308
12995SOL     OW51046   4.351   3.526   9.430
12995SOL    HW151047   4.326   3.621   9.414
12995SOL    HW251048   4.318   3.498   9.520
12996SOL     OW51049   3.746   2.780   9.816
12996SOL    HW151050   3.753   2.879   9.803
12996SOL    HW251051   3.655   2.757   9.850
12997SOL     OW51052   5.021   3.053   9.743
12997SOL    HW151053   5.120   3.057   9.759
12997SOL    HW251054   5.004   3.039   9.645
12998SOL     OW51055   4.374   2.219   9.691
12998SOL    HW151056   4.276   2.213   9.671
12998SOL    HW251057   4.393   2.176   9.779
12999SOL     OW51058   5.294   1.902   9.950
12999SOL    HW151059   5.289   1.943   9.859
12999SOL    HW251060   5.375   1.936   9.997
13000SOL     OW51061   5.059   2.310   9.932
13000SOL    HW151062   5.058   2.302   9.833
13000SOL    HW251063   5.148   2.282   9.967
13001SOL     OW51064   4.786   5.172   0.692
13001SOL    HW151065   4.877   5.206   0.715
13001SOL    HW251066   4.758   5.210   0.604
13002SOL     OW51067   5.297   4.968   0.550
13002SOL    HW151068   5.308   5.052   0.604
13002SOL    HW251069   5.387   4.931   0.527
13003SOL     OW51070   5.377   4.250   1.414
13003SOL    HW151071   5.279   4.242   1.436
13003SOL    HW251072   5.430   4.239   1.498
13004SOL     OW51073   4.044   3.887   0.019
13004SOL    HW151074   3.957   3.884  -0.030
13004SOL    HW251075   4.095   3.969  -0.009
13005SOL     OW51076   5.031   5.276   0.794
13005SOL    HW151077   5.020   5.373   0.817
13005SOL    HW251078   5.124   5.259   0.764
13006SOL     OW51079   4.909   3.787   1.352
13006SOL    HW151080   4.833   3.742   1.399
13006SOL    HW251081   4.938   3.732   1.274
13007SOL     OW51082   4.647   4.567   1.729
13007SOL    HW151083   4.612   4.542   1.639
13007SOL    HW251084   4.571   4.588   1.790
13008SOL     OW51085   4.272   3.774   0.145
13008SOL    HW151086   4.360   3.802   0.106
13008SOL    HW251087   4.200   3.837   0.115
13009SOL     OW51088   5.242   4.759   1.528
13009SOL    HW151089   5.150   4.764   1.490
13009SOL    HW251090   5.307   4.797   1.462
13010SOL     OW51091   5.142   4.766   1.209
13010SOL    HW151092   5.067   4.755   1.274
13010SOL    HW251093   5.179   4.859   1.215
13011SOL     OW51094   4.638   5.021   1.509
13011SOL    HW151095   4.581   5.084   1.455
13011SOL    HW251096   4.671   4.947   1.450
13012SOL     OW51097   4.408   4.320   0.549
13012SOL    HW151098   4.447   4.390   0.490
13012SOL    HW251099   4.382   4.240   0.495
13013SOL     OW51100   5.028   4.228   1.758
13013SOL    HW151101   5.124   4.232   1.784
13013SOL    HW251102   4.984   4.152   1.805
13014SOL     OW51103   4.111   5.083   0.202
13014SOL    HW151104   4.175   5.099   0.127
13014SOL    HW251105   4.135   5.141   0.280
13015SOL     OW51106   4.262   4.039   1.012
13015SOL    HW151107   4.338   4.104   1.008
13015SOL    HW251108   4.292   3.950   0.979
13016SOL     OW51109   3.959   4.465   0.430
13016SOL    HW151110   3.974   4.399   0.504
13016SOL    HW251111   3.909   4.544   0.465
13017SOL     OW51112   4.545   5.410   0.607
13017SOL    HW151113   4.610   5.343   0.571
13017SOL    HW251114   4.535   5.486   0.543
13018SOL     OW51115   5.437   5.292   0.349
13018SOL    HW151116   5.533   5.266   0.342
13018SOL    HW251117   5.413   5.352   0.273
13019SOL     OW51118   5.349   3.985   1.120
13019SOL    HW151119   5.400   4.057   1.073
13019SOL    HW251120   5.254   4.012   1.129
13020SOL     OW51121   4.749   4.014   0.389
13020SOL    HW151122   4.774   4.108   0.410
13020SOL    HW251123   4.750   3.960   0.473
13021SOL     OW51124   3.873   4.727   1.574
13021SOL    HW151125   3.969   4.742   1.592
13021SOL    HW251126   3.835   4.665   1.643
13022SOL     OW51127   4.199   4.372   0.117
13022SOL    HW151128   4.159   4.451   0.070
13022SOL    HW251129   4.288   4.351   0.077
13023SOL     OW51130   4.372   5.296   0.815
13023SOL    HW151131   4.445   5.319   0.751
13023SOL    HW251132   4.301   5.243   0.769
13024SOL     OW51133   4.714   4.328   1.569
13024SOL    HW151134   4.747   4.245   1.616
13024SOL    HW251135   4.787   4.396   1.568
13025SOL     OW51136   5.318   5.128   0.791
13025SOL    HW151137   5.314   5.163   0.884
13025SOL    HW251138   5.377   5.187   0.735
13026SOL     OW51139   4.049   4.949   0.467
13026SOL    HW151140   4.095   4.923   0.552
13026SOL    HW251141   4.069   4.881   0.396
13027SOL     OW51142   4.907   4.004   0.178
13027SOL    HW151143   5.001   3.974   0.196
13027SOL    HW251144   4.855   4.004   0.264
13028SOL     OW51145   4.059   4.209   1.273
13028SOL    HW151146   4.049   4.122   1.225
13028SOL    HW251147   3.995   4.276   1.236
13029SOL     OW51148   5.141   4.489   1.311
13029SOL    HW151149   5.145   4.583   1.276
13029SOL    HW251150   5.234   4.458   1.333
13030SOL     OW51151   4.094   3.981   0.432
13030SOL    HW151152   4.048   4.021   0.511
13030SOL    HW251153   4.042   4.000   0.350
13031SOL     OW51154   5.222   5.508   1.344
13031SOL    HW151155   5.165   5.459   1.278
13031SOL    HW251156   5.308   5.535   1.301
13032SOL     OW51157   5.517   4.226   1.199
13032SOL    HW151158   5.574   4.308   1.201
13032SOL    HW251159   5.458   4.225   1.279
13033SOL     OW51160   5.534   5.452   1.112
13033SOL    HW151161   5.580   5.462   1.200
13033SOL    HW251162   5.601   5.455   1.039
13034SOL     OW51163   4.647   4.192   0.674
13034SOL    HW151164   4.723   4.220   0.733
13034SOL    HW251165   4.603   4.272   0.635
13035SOL     OW51166   4.882   4.656   0.191
13035SOL    HW151167   4.919   4.606   0.269
13035SOL    HW251168   4.812   4.601   0.146
13036SOL     OW51169   4.724   4.078   1.812
13036SOL    HW151170   4.787   4.083   1.889
13036SOL    HW251171   4.632   4.056   1.845
13037SOL     OW51172   5.465   4.325   0.270
13037SOL    HW151173   5.486   4.244   0.216
13037SOL    HW251174   5.482   4.306   0.367
13038SOL     OW51175   4.759   5.463   0.178
13038SOL    HW151176   4.793   5.376   0.143
13038SOL    HW251177   4.727   5.451   0.272
13039SOL     OW51178   4.440   3.730   1.710
13039SOL    HW151179   4.447   3.636   1.677
13039SOL    HW251180   4.497   3.740   1.792
13040SOL     OW51181   5.363   4.331   0.978
13040SOL    HW151182   5.348   4.422   1.015
13040SOL    HW251183   5.433   4.284   1.032
13041SOL     OW51184   4.773   4.997   1.744
13041SOL    HW151185   4.795   4.907   1.706
13041SOL    HW251186   4.708   5.044   1.685
13042SOL     OW51187   4.428   4.839   1.748
13042SOL    HW151188   4.399   4.916   1.805
13042SOL    HW251189   4.438   4.758   1.806
13043SOL     OW51190   5.063   3.703   0.854
13043SOL    HW151191   5.012   3.787   0.836
13043SOL    HW251192   5.149   3.705   0.803
13044SOL     OW51193   5.418   3.909   1.783
13044SOL    HW151194   5.395   3.930   1.878
13044SOL    HW251195   5.394   3.814   1.763
13045SOL     OW51196   3.721   4.313   0.527
13045SOL    HW151197   3.723   4.264   0.614
13045SOL    HW251198   3.723   4.412   0.545
13046SOL     OW51199   4.042   3.901   0.848
13046SOL    HW151200   4.094   3.941   0.923
13046SOL    HW251201   4.095   3.828   0.805
13047SOL     OW51202   4.026   3.949   1.182
13047SOL    HW151203   3.991   3.856   1.182
13047SOL    HW251204   4.113   3.952   1.133
13048SOL     OW51205   4.693   4.571   0.922
13048SOL    HW151206   4.719   4.651   0.868
13048SOL    HW251207   4.687   4.491   0.862
13049SOL     OW51208   3.894   5.198   0.381
13049SOL    HW151209   3.921   5.104   0.401
13049SOL    HW251210   3.919   5.220   0.287
13050SOL     OW51211   5.176   5.067   1.255
13050SOL    HW151212   5.147   5.104   1.166
13050SOL    HW251213   5.098   5.067   1.317
13051SOL     OW51214   3.908   5.341   0.618
13051SOL    HW151215   3.824   5.392   0.636
13051SOL    HW251216   3.899   5.290   0.533
13052SOL     OW51217   5.429   5.138   1.293
13052SOL    HW151218   5.460   5.152   1.387
13052SOL    HW251219   5.330   5.125   1.292
13053SOL     OW51220   4.181   4.638   0.020
13053SOL    HW151221   4.150   4.672  -0.068
13053SOL    HW251222   4.185   4.713   0.086
13054SOL     OW51223   4.698   4.825   1.319
13054SOL    HW151224   4.748   4.740   1.303
13054SOL    HW251225   4.652   4.852   1.234
13055SOL     OW51226   3.785   4.530   0.193
13055SOL    HW151227   3.845   4.477   0.253
13055SOL    HW251228   3.691   4.498   0.205
13056SOL     OW51229   5.305   4.528   0.393
13056SOL    HW151230   5.373   4.462   0.360
13056SOL    HW251231   5.320   4.616   0.349
13057SOL     OW51232   4.553   5.515   1.041
13057SOL    HW151233   4.599   5.448   0.983
13057SOL    HW251234   4.479   5.471   1.091
13058SOL     OW51235   4.460   4.584   0.077
13058SOL    HW151236   4.489   4.503   0.128
13058SOL    HW251237   4.360   4.583   0.068
13059SOL     OW51238   5.056   4.116   0.423
13059SOL    HW151239   4.993   4.174   0.371
13059SOL    HW251240   5.149   4.150   0.411
13060SOL     OW51241   3.953   4.317   1.523
13060SOL    HW151242   3.973   4.222   1.498
13060SOL    HW251243   3.916   4.320   1.616
13061SOL     OW51244   3.835   3.972   1.413
13061SOL    HW151245   3.907   3.982   1.344
13061SOL    HW251246   3.746   3.971   1.368
13062SOL     OW51247   4.733   4.593   1.178
13062SOL    HW151248   4.727   4.579   1.079
13062SOL    HW251249   4.652   4.554   1.222
13063SOL     OW51250   5.324   4.127   0.493
13063SOL    HW151251   5.420   4.098   0.490
13063SOL    HW251252   5.285   4.105   0.582
13064SOL     OW51253   4.608   5.202   0.930
13064SOL    HW151254   4.666   5.213   0.849
13064SOL    HW251255   4.514   5.226   0.908
13065SOL     OW51256   4.558   4.068   0.215
13065SOL    HW151257   4.467   4.081   0.253
13065SOL    HW251258   4.618   4.028   0.285
13066SOL     OW51259   4.669   5.013   0.150
13066SOL    HW151260   4.722   4.953   0.210
13066SOL    HW251261   4.708   5.014   0.059
13067SOL     OW51262   5.420   5.308   0.635
13067SOL    HW151263   5.387   5.401   0.654
13067SOL    HW251264   5.418   5.292   0.536
13068SOL     OW51265   4.835   4.581   0.624
13068SOL    HW151266   4.900   4.609   0.695
13068SOL    HW251267   4.756   4.642   0.626
13069SOL     OW51268   4.583   5.307   1.648
13069SOL    HW151269   4.571   5.238   1.577
13069SOL    HW251270   4.546   5.272   1.735
13070SOL     OW51271   5.027   4.621   0.827
13070SOL    HW151272   5.048   4.563   0.905
13070SOL    HW251273   5.036   4.717   0.853
13071SOL     OW51274   3.983   4.750   0.873
13071SOL    HW151275   3.906   4.812   0.866
13071SOL    HW251276   4.020   4.751   0.966
13072SOL     OW51277   4.920   5.086   1.411
13072SOL    HW151278   4.953   5.171   1.452
13072SOL    HW251279   4.821   5.082   1.418
13073SOL     OW51280   3.727   4.003   0.475
13073SOL    HW151281   3.787   3.954   0.413
13073SOL    HW251282   3.782   4.055   0.540
13074SOL     OW51283   5.350   5.501   0.166
13074SOL    HW151284   5.440   5.545   0.168
13074SOL    HW251285   5.349   5.432   0.094
13075SOL     OW51286   4.514   4.468   1.324
13075SOL    HW151287   4.516   4.554   1.375
13075SOL    HW251288   4.571   4.400   1.371
13076SOL     OW51289   3.751   5.495   1.395
13076SOL    HW151290   3.759   5.595   1.393
13076SOL    HW251291   3.727   5.466   1.488
13077SOL     OW51292   4.532   4.514   0.389
13077SOL    HW151293   4.443   4.542   0.354
13077SOL    HW251294   4.573   4.448   0.325
13078SOL     OW51295   4.054   4.232   0.928
13078SOL    HW151296   4.110   4.225   0.845
13078SOL    HW251297   4.111   4.210   1.008
13079SOL     OW51298   4.051   5.430   0.199
13079SOL    HW151299   4.143   5.460   0.174
13079SOL    HW251300   4.026   5.469   0.288
13080SOL     OW51301   5.027   5.452   1.136
13080SOL    HW151302   5.046   5.515   1.062
13080SOL    HW251303   5.035   5.358   1.103
13081SOL     OW51304   3.732   4.847   0.948
13081SOL    HW151305   3.642   4.863   0.909
13081SOL    HW251306   3.730   4.763   1.003
13082SOL     OW51307   4.483   3.752   0.398
13082SOL    HW151308   4.444   3.741   0.307
13082SOL    HW251309   4.439   3.828   0.445
13083SOL     OW51310   3.728   4.888   0.492
13083SOL    HW151311   3.806   4.946   0.516
13083SOL    HW251312   3.747   4.839   0.407
13084SOL     OW51313   5.258   4.016   1.576
13084SOL    HW151314   5.197   4.094   1.573
13084SOL    HW251315   5.313   4.020   1.659
13085SOL     OW51316   4.974   3.962   0.867
13085SOL    HW151317   4.973   4.040   0.804
13085SOL    HW251318   5.017   3.989   0.953
13086SOL     OW51319   5.094   3.768   0.163
13086SOL    HW151320   5.174   3.708   0.160
13086SOL    HW251321   5.020   3.721   0.211
13087SOL     OW51322   5.307   3.740   1.597
13087SOL    HW151323   5.333   3.697   1.511
13087SOL    HW251324   5.257   3.824   1.579
13088SOL     OW51325   4.409   3.999   0.729
13088SOL    HW151326   4.398   3.941   0.810
13088SOL    HW251327   4.494   4.051   0.737
13089SOL     OW51328   4.989   4.350   1.121
13089SOL    HW151329   5.043   4.390   1.047
13089SOL    HW251330   5.027   4.379   1.209
13090SOL     OW51331   5.282   3.756   0.437
13090SOL    HW151332   5.289   3.710   0.349
13090SOL    HW251333   5.186   3.766   0.462
13091SOL     OW51334   4.258   5.071   1.800
13091SOL    HW151335   4.219   5.134   1.733
13091SOL    HW251336   4.341   5.111   1.840
13092SOL     OW51337   4.134   4.803   1.632
13092SOL    HW151338   4.153   4.827   1.537
13092SOL    HW251339   4.127   4.886   1.687
13093SOL     OW51340   3.795   5.093   1.106
13093SOL    HW151341   3.764   5.019   1.047
13093SOL    HW251342   3.727   5.111   1.177
13094SOL     OW51343   4.881   4.294   0.839
13094SOL    HW151344   4.963   4.271   0.787
13094SOL    HW251345   4.876   4.235   0.920
13095SOL     OW51346   5.481   4.321   1.675
13095SOL    HW151347   5.470   4.407   1.624
13095SOL    HW251348   5.575   4.312   1.705
13096SOL     OW51349   5.052   4.094   1.094
13096SOL    HW151350   5.026   4.191   1.100
13096SOL    HW251351   5.052   4.054   1.186
13097SOL     OW51352   5.282   4.226   1.845
13097SOL    HW151353   5.362   4.251   1.789
13097SOL    HW251354   5.313   4.191   1.933
13098SOL     OW51355   4.993   4.529   0.425
13098SOL    HW151356   4.939   4.527   0.509
13098SOL    HW251357   5.070   4.592   0.436
13099SOL     OW51358   5.290   4.625   0.645
13099SOL    HW151359   5.304   4.588   0.552
13099SOL    HW251360   5.201   4.595   0.679
13100SOL     OW51361   5.446   4.562   1.540
13100SOL    HW151362   5.348   4.583   1.542
13100SOL    HW251363   5.495   4.638   1.499
13101SOL     OW51364   5.300   3.982   0.219
13101SOL    HW151365   5.305   4.024   0.310
13101SOL    HW251366   5.233   3.907   0.221
13102SOL     OW51367   4.447   5.197   1.439
13102SOL    HW151368   4.384   5.275   1.446
13102SOL    HW251369   4.415   5.135   1.367
13103SOL     OW51370   3.838   3.992   1.704
13103SOL    HW151371   3.856   3.981   1.606
13103SOL    HW251372   3.740   3.988   1.721
13104SOL     OW51373   3.718   5.406   1.648
13104SOL    HW151374   3.790   5.392   1.716
13104SOL    HW251375   3.629   5.409   1.693
13105SOL     OW51376   3.886   4.062   0.672
13105SOL    HW151377   3.829   4.117   0.733
13105SOL    HW251378   3.956   4.014   0.725
13106SOL     OW51379   5.058   5.294   1.535
13106SOL    HW151380   5.011   5.362   1.590
13106SOL    HW251381   5.125   5.340   1.476
13107SOL     OW51382   4.023   4.253   0.270
13107SOL    HW151383   4.095   4.282   0.207
13107SOL    HW251384   3.979   4.333   0.310
13108SOL     OW51385   5.409   3.915   1.373
13108SOL    HW151386   5.365   3.963   1.449
13108SOL    HW251387   5.387   3.961   1.287
13109SOL     OW51388   4.138   5.516   0.736
13109SOL    HW151389   4.062   5.482   0.681
13109SOL    HW251390   4.224   5.479   0.701
13110SOL     OW51391   4.063   5.025   1.181
13110SOL    HW151392   4.075   5.041   1.278
13110SOL    HW251393   3.976   5.065   1.151
13111SOL     OW51394   4.947   5.229   1.827
13111SOL    HW151395   4.906   5.144   1.793
13111SOL    HW251396   4.927   5.303   1.763
13112SOL     OW51397   4.069   4.500   0.719
13112SOL    HW151398   4.061   4.598   0.737
13112SOL    HW251399   4.153   4.466   0.760
13113SOL     OW51400   3.915   3.980   0.234
13113SOL    HW151401   3.959   3.949   0.151
13113SOL    HW251402   3.916   4.080   0.238
13114SOL     OW51403   3.768   4.232   0.845
13114SOL    HW151404   3.732   4.325   0.837
13114SOL    HW251405   3.851   4.233   0.901
13115SOL     OW51406   4.203   4.819   0.231
13115SOL    HW151407   4.303   4.819   0.242
13115SOL    HW251408   4.172   4.912   0.210
13116SOL     OW51409   4.829   4.411   0.047
13116SOL    HW151410   4.760   4.468   0.003
13116SOL    HW251411   4.910   4.405  -0.012
13117SOL     OW51412   4.564   4.330   0.190
13117SOL    HW151413   4.654   4.331   0.145
13117SOL    HW251414   4.541   4.236   0.215
13118SOL     OW51415   5.015   3.847   0.484
13118SOL    HW151416   4.925   3.831   0.525
13118SOL    HW251417   5.023   3.943   0.458
13119SOL     OW51418   5.129   4.247   1.500
13119SOL    HW151419   5.081   4.270   1.584
13119SOL    HW251420   5.063   4.217   1.431
13120SOL     OW51421   3.764   3.762   0.144
13120SOL    HW151422   3.827   3.685   0.152
13120SOL    HW251423   3.784   3.830   0.215
13121SOL     OW51424   4.037   4.737   1.145
13121SOL    HW151425   4.048   4.692   1.234
13121SOL    HW251426   4.064   4.833   1.152
13122SOL     OW51427   5.336   4.749   0.245
13122SOL    HW151428   5.407   4.819   0.247
13122SOL    HW251429   5.323   4.719   0.150
13123SOL     OW51430   4.318   4.350   1.167
13123SOL    HW151431   4.393   4.393   1.216
13123SOL    HW251432   4.251   4.315   1.233
13124SOL     OW51433   4.461   4.719   1.484
13124SOL    HW151434   4.530   4.771   1.434
13124SOL    HW251435   4.456   4.752   1.579
13125SOL     OW51436   4.853   4.740   1.644
13125SOL    HW151437   4.775   4.686   1.677
13125SOL    HW251438   4.934   4.718   1.699
13126SOL     OW51439   4.782   3.922   0.640
13126SOL    HW151440   4.841   3.982   0.695
13126SOL    HW251441   4.709   3.886   0.697
13127SOL     OW51442   4.892   5.454   1.680
13127SOL    HW151443   4.797   5.452   1.648
13127SOL    HW251444   4.913   5.545   1.717
13128SOL     OW51445   4.310   3.799   0.911
13128SOL    HW151446   4.238   3.732   0.897
13128SOL    HW251447   4.392   3.753   0.946
13129SOL     OW51448   4.010   5.464   1.278
13129SOL    HW151449   3.990   5.446   1.182
13129SOL    HW251450   3.937   5.426   1.335
13130SOL     OW51451   4.703   4.928   0.823
13130SOL    HW151452   4.742   4.971   0.742
13130SOL    HW251453   4.776   4.911   0.890
13131SOL     OW51454   4.397   4.656   1.025
13131SOL    HW151455   4.395   4.572   0.970
13131SOL    HW251456   4.346   4.642   1.110
13132SOL     OW51457   3.736   4.666   1.151
13132SOL    HW151458   3.825   4.644   1.191
13132SOL    HW251459   3.681   4.582   1.147
13133SOL     OW51460   3.964   3.711   0.431
13133SOL    HW151461   4.002   3.799   0.458
13133SOL    HW251462   3.887   3.687   0.491
13134SOL     OW51463   4.380   4.328   1.759
13134SOL    HW151464   4.332   4.379   1.688
13134SOL    HW251465   4.473   4.307   1.729
13135SOL     OW51466   3.786   4.798   0.251
13135SOL    HW151467   3.776   4.701   0.230
13135SOL    HW251468   3.839   4.843   0.179
13136SOL     OW51469   5.483   3.910   0.852
13136SOL    HW151470   5.438   3.892   0.939
13136SOL    HW251471   5.581   3.927   0.868
13137SOL     OW51472   4.531   4.886   1.104
13137SOL    HW151473   4.482   4.801   1.085
13137SOL    HW251474   4.601   4.901   1.035
13138SOL     OW51475   4.869   4.309   0.313
13138SOL    HW151476   4.921   4.381   0.359
13138SOL    HW251477   4.882   4.316   0.215
13139SOL     OW51478   5.230   5.124   1.640
13139SOL    HW151479   5.215   5.026   1.654
13139SOL    HW251480   5.147   5.166   1.604
13140SOL     OW51481   3.987   4.566   1.380
13140SOL    HW151482   3.951   4.476   1.406
13140SOL    HW251483   3.948   4.636   1.440
13141SOL     OW51484   4.489   5.192   0.038
13141SOL    HW151485   4.464   5.269   0.097
13141SOL    HW251486   4.553   5.132   0.086
13142SOL     OW51487   4.307   5.399   1.072
13142SOL    HW151488   4.327   5.369   0.979
13142SOL    HW251489   4.232   5.344   1.109
13143SOL     OW51490   3.818   4.504   0.858
13143SOL    HW151491   3.913   4.495   0.826
13143SOL    HW251492   3.784   4.596   0.837
13144SOL     OW51493   3.755   4.621   1.785
13144SOL    HW151494   3.670   4.572   1.766
13144SOL    HW251495   3.782   4.608   1.880
13145SOL     OW51496   4.652   5.530   1.491
13145SOL    HW151497   4.624   5.443   1.532
13145SOL    HW251498   4.596   5.604   1.528
13146SOL     OW51499   4.881   4.877   1.021
13146SOL    HW151500   4.865   4.971   1.052
13146SOL    HW251501   4.884   4.816   1.101
13147SOL     OW51502   4.155   4.148   1.785
13147SOL    HW151503   4.191   4.095   1.708
13147SOL    HW251504   4.216   4.225   1.803
13148SOL     OW51505   4.219   4.565   0.357
13148SOL    HW151506   4.169   4.630   0.301
13148SOL    HW251507   4.161   4.486   0.376
13149SOL     OW51508   5.300   4.596   1.055
13149SOL    HW151509   5.319   4.635   0.964
13149SOL    HW251510   5.254   4.665   1.111
13150SOL     OW51511   4.992   4.039   1.351
13150SOL    HW151512   5.063   4.011   1.415
13150SOL    HW251513   4.939   3.959   1.323
13151SOL     OW51514   3.693   3.738   0.552
13151SOL    HW151515   3.606   3.725   0.505
13151SOL    HW251516   3.701   3.833   0.582
13152SOL     OW51517   4.914   3.839   1.793
13152SOL    HW151518   4.973   3.855   1.873
13152SOL    HW251519   4.861   3.922   1.774
13153SOL     OW51520   4.130   5.258   1.618
13153SOL    HW151521   4.072   5.323   1.667
13153SOL    HW251522   4.192   5.308   1.558
13154SOL     OW51523   5.486   5.145   1.559
13154SOL    HW151524   5.514   5.238   1.581
13154SOL    HW251525   5.393   5.129   1.592
13155SOL     OW51526   4.736   4.258   1.109
13155SOL    HW151527   4.822   4.309   1.108
13155SOL    HW251528   4.742   4.184   1.176
13156SOL     OW51529   4.781   5.321   1.269
13156SOL    HW151530   4.707   5.385   1.287
13156SOL    HW251531   4.860   5.370   1.231
13157SOL     OW51532   3.990   5.451   1.768
13157SOL    HW151533   4.033   5.535   1.734
13157SOL    HW251534   4.015   5.438   1.864
13158SOL     OW51535   3.850   4.987   1.639
13158SOL    HW151536   3.829   4.892   1.612
13158SOL    HW251537   3.781   5.048   1.601
13159SOL     OW51538   3.939   5.352   1.043
13159SOL    HW151539   3.881   5.272   1.057
13159SOL    HW251540   3.963   5.359   0.946
13160SOL     OW51541   4.685   3.873   0.898
13160SOL    HW151542   4.781   3.874   0.926
13160SOL    HW251543   4.630   3.830   0.970
13161SOL     OW51544   4.747   4.879   0.414
13161SOL    HW151545   4.827   4.915   0.462
13161SOL    HW251546   4.705   4.806   0.470
13162SOL     OW51547   5.338   4.146   0.778
13162SOL    HW151548   5.357   4.232   0.825
13162SOL    HW251549   5.406   4.077   0.806
13163SOL     OW51550   4.481   4.818   0.264
13163SOL    HW151551   4.553   4.877   0.229
13163SOL    HW251552   4.521   4.734   0.300
13164SOL     OW51553   4.552   3.794   0.116
13164SOL    HW151554   4.627   3.728   0.128
13164SOL    HW251555   4.583   3.885   0.144
13165SOL     OW51556   4.231   4.223   0.728
13165SOL    HW151557   4.269   4.134   0.754
13165SOL    HW251558   4.298   4.273   0.673
13166SOL     OW51559   4.219   4.781   1.382
13166SOL    HW151560   4.315   4.761   1.402
13166SOL    HW251561   4.208   4.879   1.364
13167SOL     OW51562   5.441   4.824   1.351
13167SOL    HW151563   5.455   4.922   1.365
13167SOL    HW251564   5.498   4.793   1.275
13168SOL     OW51565   3.924   4.933   0.043
13168SOL    HW151566   3.916   4.945  -0.056
13168SOL    HW251567   3.983   5.004   0.081
13169SOL     OW51568   4.351   5.372   0.203
13169SOL    HW151569   4.326   5.467   0.187
13169SOL    HW251570   4.318   5.344   0.293
13170SOL     OW51571   5.001   4.795   1.427
13170SOL    HW151572   4.945   4.754   1.498
13170SOL    HW251573   4.981   4.893   1.421
13171SOL     OW51574   4.268   5.411   1.427
13171SOL    HW151575   4.317   5.491   1.391
13171SOL    HW251576   4.176   5.409   1.388
13172SOL     OW51577   3.911   4.292   1.789
13172SOL    HW151578   3.928   4.193   1.794
13172SOL    HW251579   3.975   4.340   1.850
13173SOL     OW51580   5.350   5.253   1.028
13173SOL    HW151581   5.322   5.346   1.052
13173SOL    HW251582   5.400   5.212   1.104
13174SOL     OW51583   3.746   4.626   0.589
13174SOL    HW151584   3.753   4.725   0.576
13174SOL    HW251585   3.655   4.603   0.623
13175SOL     OW51586   4.255   4.424   1.527
13175SOL    HW151587   4.161   4.394   1.508
13175SOL    HW251588   4.264   4.521   1.504
13176SOL     OW51589   5.322   4.800   0.839
13176SOL    HW151590   5.284   4.889   0.812
13176SOL    HW251591   5.322   4.738   0.761
13177SOL     OW51592   4.480   4.206   1.008
13177SOL    HW151593   4.572   4.234   1.035
13177SOL    HW251594   4.412   4.257   1.062
13178SOL     OW51595   4.333   5.057   1.235
13178SOL    HW151596   4.246   5.056   1.186
13178SOL    HW251597   4.399   4.997   1.188
13179SOL     OW51598   3.899   4.399   1.149
13179SOL    HW151599   3.937   4.458   1.220
13179SOL    HW251600   3.882   4.452   1.067
13180SOL     OW51601   4.070   5.045   1.447
13180SOL    HW151602   4.089   5.133   1.491
13180SOL    HW251603   3.975   5.019   1.465
13181SOL     OW51604   5.313   5.361   1.795
13181SOL    HW151605   5.282   5.283   1.740
13181SOL    HW251606   5.282   5.446   1.753
13182SOL     OW51607   5.021   4.899   0.516
13182SOL    HW151608   5.120   4.903   0.532
13182SOL    HW251609   5.004   4.885   0.418
13183SOL     OW51610   4.374   4.065   0.464
13183SOL    HW151611   4.276   4.059   0.444
13183SOL    HW251612   4.393   4.022   0.552
13184SOL     OW51613   5.294   3.748   0.723
13184SOL    HW151614   5.289   3.789   0.632
13184SOL    HW251615   5.375   3.782   0.770
13185SOL     OW51616   4.897   4.504   1.416
13185SOL    HW151617   4.996   4.513   1.406
13185SOL    HW251618   4.853   4.506   1.326
13186SOL     OW51619   4.391   4.464   0.818
13186SOL    HW151620   4.413   4.386   0.876
13186SOL    HW251621   4.400   4.438   0.722
13187SOL     OW51622   5.056   5.171   1.030
13187SOL    HW151623   4.970   5.128   1.059
13187SOL    HW251624   5.045   5.211   0.939
13188SOL     OW51625   5.059   4.156   0.705
13188SOL    HW151626   5.058   4.148   0.606
13188SOL    HW251627   5.148   4.128   0.740
13189SOL     OW51628   4.786   5.172   2.537
13189SOL    HW151629   4.877   5.206   2.560
13189SOL    HW251630   4.758   5.210   2.449
13190SOL     OW51631   5.297   4.968   2.395
13190SOL    HW151632   5.308   5.052   2.449
13190SOL    HW251633   5.387   4.931   2.372
13191SOL     OW51634   5.377   4.250   3.259
13191SOL    HW151635   5.279   4.242   3.281
13191SOL    HW251636   5.430   4.239   3.343
13192SOL     OW51637   4.044   3.887   1.864
13192SOL    HW151638   3.957   3.884   1.815
13192SOL    HW251639   4.095   3.969   1.836
13193SOL     OW51640   5.031   5.276   2.639
13193SOL    HW151641   5.020   5.373   2.662
13193SOL    HW251642   5.124   5.259   2.609
13194SOL     OW51643   4.272   3.774   1.990
13194SOL    HW151644   4.360   3.802   1.951
13194SOL    HW251645   4.200   3.837   1.960
13195SOL     OW51646   5.242   4.759   3.373
13195SOL    HW151647   5.150   4.764   3.335
13195SOL    HW251648   5.307   4.797   3.307
13196SOL     OW51649   5.142   4.766   3.054
13196SOL    HW151650   5.067   4.755   3.119
13196SOL    HW251651   5.179   4.859   3.060
13197SOL     OW51652   4.408   4.320   2.394
13197SOL    HW151653   4.447   4.390   2.335
13197SOL    HW251654   4.382   4.240   2.340
13198SOL     OW51655   5.028   4.228   3.603
13198SOL    HW151656   5.124   4.232   3.629
13198SOL    HW251657   4.984   4.152   3.650
13199SOL     OW51658   4.111   5.083   2.047
13199SOL    HW151659   4.175   5.099   1.972
13199SOL    HW251660   4.135   5.141   2.125
13200SOL     OW51661   4.262   4.039   2.857
13200SOL    HW151662   4.338   4.104   2.853
13200SOL    HW251663   4.292   3.950   2.824
13201SOL     OW51664   3.959   4.465   2.275
13201SOL    HW151665   3.974   4.399   2.349
13201SOL    HW251666   3.909   4.544   2.310
13202SOL     OW51667   4.545   5.410   2.452
13202SOL    HW151668   4.610   5.343   2.416
13202SOL    HW251669   4.535   5.486   2.388
13203SOL     OW51670   5.437   5.292   2.194
13203SOL    HW151671   5.533   5.266   2.187
13203SOL    HW251672   5.413   5.352   2.118
13204SOL     OW51673   5.349   3.985   2.965
13204SOL    HW151674   5.400   4.057   2.918
13204SOL    HW251675   5.254   4.012   2.974
13205SOL     OW51676   4.749   4.014   2.234
13205SOL    HW151677   4.774   4.108   2.255
13205SOL    HW251678   4.750   3.960   2.318
13206SOL     OW51679   3.873   4.727   3.419
13206SOL    HW151680   3.969   4.742   3.437
13206SOL    HW251681   3.835   4.665   3.488
13207SOL     OW51682   4.199   4.372   1.962
13207SOL    HW151683   4.159   4.451   1.915
13207SOL    HW251684   4.288   4.351   1.922
13208SOL     OW51685   5.318   5.128   2.636
13208SOL    HW151686   5.314   5.163   2.729
13208SOL    HW251687   5.377   5.187   2.580
13209SOL     OW51688   4.907   4.004   2.023
13209SOL    HW151689   5.001   3.974   2.041
13209SOL    HW251690   4.855   4.004   2.109
13210SOL     OW51691   4.059   4.209   3.118
13210SOL    HW151692   4.049   4.122   3.070
13210SOL    HW251693   3.995   4.276   3.081
13211SOL     OW51694   5.141   4.489   3.156
13211SOL    HW151695   5.145   4.583   3.121
13211SOL    HW251696   5.234   4.458   3.178
13212SOL     OW51697   4.094   3.981   2.277
13212SOL    HW151698   4.048   4.021   2.356
13212SOL    HW251699   4.042   4.000   2.195
13213SOL     OW51700   5.517   4.226   3.044
13213SOL    HW151701   5.574   4.308   3.046
13213SOL    HW251702   5.458   4.225   3.124
13214SOL     OW51703   4.647   4.192   2.519
13214SOL    HW151704   4.723   4.220   2.578
13214SOL    HW251705   4.603   4.272   2.480
13215SOL     OW51706   4.882   4.656   2.036
13215SOL    HW151707   4.919   4.606   2.114
13215SOL    HW251708   4.812   4.601   1.991
13216SOL     OW51709   4.724   4.078   3.657
13216SOL    HW151710   4.787   4.083   3.734
13216SOL    HW251711   4.632   4.056   3.690
13217SOL     OW51712   5.465   4.325   2.115
13217SOL    HW151713   5.486   4.244   2.061
13217SOL    HW251714   5.482   4.306   2.212
13218SOL     OW51715   4.759   5.463   2.023
13218SOL    HW151716   4.793   5.376   1.988
13218SOL    HW251717   4.727   5.451   2.117
13219SOL     OW51718   5.363   4.331   2.823
13219SOL    HW151719   5.348   4.422   2.860
13219SOL    HW251720   5.433   4.284   2.877
13220SOL     OW51721   4.773   4.997   3.589
13220SOL    HW151722   4.795   4.907   3.551
13220SOL    HW251723   4.708   5.044   3.530
13221SOL     OW51724   5.063   3.703   2.699
13221SOL    HW151725   5.012   3.787   2.681
13221SOL    HW251726   5.149   3.705   2.648
13222SOL     OW51727   5.418   3.909   3.628
13222SOL    HW151728   5.395   3.930   3.723
13222SOL    HW251729   5.394   3.814   3.608
13223SOL     OW51730   3.721   4.313   2.372
13223SOL    HW151731   3.723   4.264   2.459
13223SOL    HW251732   3.723   4.412   2.390
13224SOL     OW51733   4.042   3.901   2.693
13224SOL    HW151734   4.094   3.941   2.768
13224SOL    HW251735   4.095   3.828   2.650
13225SOL     OW51736   4.026   3.949   3.027
13225SOL    HW151737   3.991   3.856   3.027
13225SOL    HW251738   4.113   3.952   2.978
13226SOL     OW51739   5.176   5.067   3.100
13226SOL    HW151740   5.147   5.104   3.011
13226SOL    HW251741   5.098   5.067   3.162
13227SOL     OW51742   3.908   5.341   2.463
13227SOL    HW151743   3.824   5.392   2.481
13227SOL    HW251744   3.899   5.290   2.378
13228SOL     OW51745   5.429   5.138   3.138
13228SOL    HW151746   5.460   5.152   3.232
13228SOL    HW251747   5.330   5.125   3.137
13229SOL     OW51748   4.181   4.638   1.865
13229SOL    HW151749   4.150   4.672   1.777
13229SOL    HW251750   4.185   4.713   1.931
13230SOL     OW51751   3.785   4.530   2.038
13230SOL    HW151752   3.845   4.477   2.098
13230SOL    HW251753   3.691   4.498   2.050
13231SOL     OW51754   5.305   4.528   2.238
13231SOL    HW151755   5.373   4.462   2.205
13231SOL    HW251756   5.320   4.616   2.194
13232SOL     OW51757   4.553   5.515   2.886
13232SOL    HW151758   4.599   5.448   2.828
13232SOL    HW251759   4.479   5.471   2.936
13233SOL     OW51760   4.460   4.584   1.922
13233SOL    HW151761   4.489   4.503   1.973
13233SOL    HW251762   4.360   4.583   1.913
13234SOL     OW51763   5.056   4.116   2.268
13234SOL    HW151764   4.993   4.174   2.216
13234SOL    HW251765   5.149   4.150   2.256
13235SOL     OW51766   3.835   3.972   3.258
13235SOL    HW151767   3.907   3.982   3.189
13235SOL    HW251768   3.746   3.971   3.213
13236SOL     OW51769   4.733   4.593   3.023
13236SOL    HW151770   4.727   4.579   2.924
13236SOL    HW251771   4.652   4.554   3.067
13237SOL     OW51772   5.324   4.127   2.338
13237SOL    HW151773   5.420   4.098   2.335
13237SOL    HW251774   5.285   4.105   2.427
13238SOL     OW51775   4.558   4.068   2.060
13238SOL    HW151776   4.467   4.081   2.098
13238SOL    HW251777   4.618   4.028   2.130
13239SOL     OW51778   4.669   5.013   1.995
13239SOL    HW151779   4.722   4.953   2.055
13239SOL    HW251780   4.708   5.014   1.904
13240SOL     OW51781   5.420   5.308   2.480
13240SOL    HW151782   5.387   5.401   2.499
13240SOL    HW251783   5.418   5.292   2.381
13241SOL     OW51784   4.835   4.581   2.469
13241SOL    HW151785   4.900   4.609   2.540
13241SOL    HW251786   4.756   4.642   2.471
13242SOL     OW51787   4.583   5.307   3.493
13242SOL    HW151788   4.571   5.238   3.422
13242SOL    HW251789   4.546   5.272   3.580
13243SOL     OW51790   5.027   4.621   2.672
13243SOL    HW151791   5.048   4.563   2.750
13243SOL    HW251792   5.036   4.717   2.698
13244SOL     OW51793   4.616   4.698   2.417
13244SOL    HW151794   4.603   4.609   2.374
13244SOL    HW251795   4.547   4.712   2.488
13245SOL     OW51796   3.727   4.003   2.320
13245SOL    HW151797   3.787   3.954   2.258
13245SOL    HW251798   3.782   4.055   2.385
13246SOL     OW51799   5.350   5.501   2.011
13246SOL    HW151800   5.440   5.545   2.013
13246SOL    HW251801   5.349   5.432   1.939
13247SOL     OW51802   4.514   4.468   3.169
13247SOL    HW151803   4.516   4.554   3.220
13247SOL    HW251804   4.571   4.400   3.216
13248SOL     OW51805   3.751   5.495   3.240
13248SOL    HW151806   3.759   5.595   3.238
13248SOL    HW251807   3.727   5.466   3.333
13249SOL     OW51808   4.532   4.514   2.234
13249SOL    HW151809   4.443   4.542   2.199
13249SOL    HW251810   4.573   4.448   2.170
13250SOL     OW51811   4.054   4.232   2.773
13250SOL    HW151812   4.110   4.225   2.690
13250SOL    HW251813   4.111   4.210   2.853
13251SOL     OW51814   4.051   5.430   2.044
13251SOL    HW151815   4.143   5.460   2.019
13251SOL    HW251816   4.026   5.469   2.133
13252SOL     OW51817   5.027   5.452   2.981
13252SOL    HW151818   5.046   5.515   2.907
13252SOL    HW251819   5.035   5.358   2.948
13253SOL     OW51820   3.732   4.847   2.793
13253SOL    HW151821   3.642   4.863   2.754
13253SOL    HW251822   3.730   4.763   2.848
13254SOL     OW51823   4.483   3.752   2.243
13254SOL    HW151824   4.444   3.741   2.152
13254SOL    HW251825   4.439   3.828   2.290
13255SOL     OW51826   5.258   4.016   3.421
13255SOL    HW151827   5.197   4.094   3.418
13255SOL    HW251828   5.313   4.020   3.504
13256SOL     OW51829   4.974   3.962   2.712
13256SOL    HW151830   4.973   4.040   2.649
13256SOL    HW251831   5.017   3.989   2.798
13257SOL     OW51832   5.094   3.768   2.008
13257SOL    HW151833   5.174   3.708   2.005
13257SOL    HW251834   5.020   3.721   2.056
13258SOL     OW51835   4.409   3.999   2.574
13258SOL    HW151836   4.398   3.941   2.655
13258SOL    HW251837   4.494   4.051   2.582
13259SOL     OW51838   4.989   4.350   2.966
13259SOL    HW151839   5.043   4.390   2.892
13259SOL    HW251840   5.027   4.379   3.054
13260SOL     OW51841   5.282   3.756   2.282
13260SOL    HW151842   5.289   3.710   2.194
13260SOL    HW251843   5.186   3.766   2.307
13261SOL     OW51844   4.134   4.803   3.477
13261SOL    HW151845   4.153   4.827   3.382
13261SOL    HW251846   4.127   4.886   3.532
13262SOL     OW51847   3.795   5.093   2.951
13262SOL    HW151848   3.764   5.019   2.892
13262SOL    HW251849   3.727   5.111   3.022
13263SOL     OW51850   4.881   4.294   2.684
13263SOL    HW151851   4.963   4.271   2.632
13263SOL    HW251852   4.876   4.235   2.765
13264SOL     OW51853   5.481   4.321   3.520
13264SOL    HW151854   5.470   4.407   3.469
13264SOL    HW251855   5.575   4.312   3.550
13265SOL     OW51856   5.052   4.094   2.939
13265SOL    HW151857   5.026   4.191   2.945
13265SOL    HW251858   5.052   4.054   3.031
13266SOL     OW51859   5.282   4.226   3.690
13266SOL    HW151860   5.362   4.251   3.634
13266SOL    HW251861   5.313   4.191   3.778
13267SOL     OW51862   4.993   4.529   2.270
13267SOL    HW151863   4.939   4.527   2.354
13267SOL    HW251864   5.070   4.592   2.281
13268SOL     OW51865   5.290   4.625   2.490
13268SOL    HW151866   5.304   4.588   2.397
13268SOL    HW251867   5.201   4.595   2.524
13269SOL     OW51868   5.446   4.562   3.385
13269SOL    HW151869   5.348   4.583   3.387
13269SOL    HW251870   5.495   4.638   3.344
13270SOL     OW51871   5.300   3.982   2.064
13270SOL    HW151872   5.305   4.024   2.155
13270SOL    HW251873   5.233   3.907   2.066
13271SOL     OW51874   3.718   5.406   3.493
13271SOL    HW151875   3.790   5.392   3.561
13271SOL    HW251876   3.629   5.409   3.538
13272SOL     OW51877   3.886   4.062   2.517
13272SOL    HW151878   3.829   4.117   2.578
13272SOL    HW251879   3.956   4.014   2.570
13273SOL     OW51880   5.058   5.294   3.380
13273SOL    HW151881   5.011   5.362   3.435
13273SOL    HW251882   5.125   5.340   3.321
13274SOL     OW51883   4.023   4.253   2.115
13274SOL    HW151884   4.095   4.282   2.052
13274SOL    HW251885   3.979   4.333   2.155
13275SOL     OW51886   4.138   5.516   2.581
13275SOL    HW151887   4.062   5.482   2.526
13275SOL    HW251888   4.224   5.479   2.546
13276SOL     OW51889   4.947   5.229   3.672
13276SOL    HW151890   4.906   5.144   3.638
13276SOL    HW251891   4.927   5.303   3.608
13277SOL     OW51892   4.069   4.500   2.564
13277SOL    HW151893   4.061   4.598   2.582
13277SOL    HW251894   4.153   4.466   2.605
13278SOL     OW51895   3.915   3.980   2.079
13278SOL    HW151896   3.959   3.949   1.996
13278SOL    HW251897   3.916   4.080   2.083
13279SOL     OW51898   3.768   4.232   2.690
13279SOL    HW151899   3.732   4.325   2.682
13279SOL    HW251900   3.851   4.233   2.746
13280SOL     OW51901   4.203   4.819   2.076
13280SOL    HW151902   4.303   4.819   2.087
13280SOL    HW251903   4.172   4.912   2.055
13281SOL     OW51904   4.829   4.411   1.892
13281SOL    HW151905   4.760   4.468   1.848
13281SOL    HW251906   4.910   4.405   1.833
13282SOL     OW51907   4.564   4.330   2.035
13282SOL    HW151908   4.654   4.331   1.990
13282SOL    HW251909   4.541   4.236   2.060
13283SOL     OW51910   5.015   3.847   2.329
13283SOL    HW151911   4.925   3.831   2.370
13283SOL    HW251912   5.023   3.943   2.303
13284SOL     OW51913   5.129   4.247   3.345
13284SOL    HW151914   5.081   4.270   3.429
13284SOL    HW251915   5.063   4.217   3.276
13285SOL     OW51916   3.764   3.762   1.989
13285SOL    HW151917   3.827   3.685   1.997
13285SOL    HW251918   3.784   3.830   2.060
13286SOL     OW51919   4.037   4.737   2.990
13286SOL    HW151920   4.048   4.692   3.079
13286SOL    HW251921   4.064   4.833   2.997
13287SOL     OW51922   5.336   4.749   2.090
13287SOL    HW151923   5.407   4.819   2.092
13287SOL    HW251924   5.323   4.719   1.995
13288SOL     OW51925   4.318   4.350   3.012
13288SOL    HW151926   4.393   4.393   3.061
13288SOL    HW251927   4.251   4.315   3.078
13289SOL     OW51928   4.782   3.922   2.485
13289SOL    HW151929   4.841   3.982   2.540
13289SOL    HW251930   4.709   3.886   2.542
13290SOL     OW51931   4.892   5.454   3.525
13290SOL    HW151932   4.797   5.452   3.493
13290SOL    HW251933   4.913   5.545   3.562
13291SOL     OW51934   4.310   3.799   2.756
13291SOL    HW151935   4.238   3.732   2.742
13291SOL    HW251936   4.392   3.753   2.791
13292SOL     OW51937   4.010   5.464   3.123
13292SOL    HW151938   3.990   5.446   3.027
13292SOL    HW251939   3.937   5.426   3.180
13293SOL     OW51940   4.397   4.656   2.870
13293SOL    HW151941   4.395   4.572   2.815
13293SOL    HW251942   4.346   4.642   2.955
13294SOL     OW51943   3.736   4.666   2.996
13294SOL    HW151944   3.825   4.644   3.036
13294SOL    HW251945   3.681   4.582   2.992
13295SOL     OW51946   3.964   3.711   2.276
13295SOL    HW151947   4.002   3.799   2.303
13295SOL    HW251948   3.887   3.687   2.336
13296SOL     OW51949   3.786   4.798   2.096
13296SOL    HW151950   3.776   4.701   2.075
13296SOL    HW251951   3.839   4.843   2.024
13297SOL     OW51952   5.483   3.910   2.697
13297SOL    HW151953   5.438   3.892   2.784
13297SOL    HW251954   5.581   3.927   2.713
13298SOL     OW51955   4.869   4.309   2.158
13298SOL    HW151956   4.921   4.381   2.204
13298SOL    HW251957   4.882   4.316   2.060
13299SOL     OW51958   5.230   5.124   3.485
13299SOL    HW151959   5.215   5.026   3.499
13299SOL    HW251960   5.147   5.166   3.449
13300SOL     OW51961   3.987   4.566   3.225
13300SOL    HW151962   3.951   4.476   3.251
13300SOL    HW251963   3.948   4.636   3.285
13301SOL     OW51964   4.489   5.192   1.883
13301SOL    HW151965   4.464   5.269   1.942
13301SOL    HW251966   4.553   5.132   1.931
13302SOL     OW51967   4.628   5.157   2.303
13302SOL    HW151968   4.678   5.145   2.218
13302SOL    HW251969   4.574   5.074   2.322
13303SOL     OW51970   3.818   4.504   2.703
13303SOL    HW151971   3.913   4.495   2.671
13303SOL    HW251972   3.784   4.596   2.682
13304SOL     OW51973   3.755   4.621   3.630
13304SOL    HW151974   3.670   4.572   3.611
13304SOL    HW251975   3.782   4.608   3.725
13305SOL     OW51976   4.652   5.530   3.336
13305SOL    HW151977   4.624   5.443   3.377
13305SOL    HW251978   4.596   5.604   3.373
13306SOL     OW51979   4.881   4.877   2.866
13306SOL    HW151980   4.865   4.971   2.897
13306SOL    HW251981   4.884   4.816   2.946
13307SOL     OW51982   4.219   4.565   2.202
13307SOL    HW151983   4.169   4.630   2.146
13307SOL    HW251984   4.161   4.486   2.221
13308SOL     OW51985   5.300   4.596   2.900
13308SOL    HW151986   5.319   4.635   2.809
13308SOL    HW251987   5.254   4.665   2.956
13309SOL     OW51988   4.992   4.039   3.196
13309SOL    HW151989   5.063   4.011   3.260
13309SOL    HW251990   4.939   3.959   3.168
13310SOL     OW51991   3.693   3.738   2.397
13310SOL    HW151992   3.606   3.725   2.350
13310SOL    HW251993   3.701   3.833   2.427
13311SOL     OW51994   4.914   3.839   3.638
13311SOL    HW151995   4.973   3.855   3.718
13311SOL    HW251996   4.861   3.922   3.619
13312SOL     OW51997   4.130   5.258   3.463
13312SOL    HW151998   4.072   5.323   3.512
13312SOL    HW251999   4.192   5.308   3.403
13313SOL     OW52000   5.486   5.145   3.404
13313SOL    HW152001   5.514   5.238   3.426
13313SOL    HW252002   5.393   5.129   3.437
13314SOL     OW52003   4.736   4.258   2.954
13314SOL    HW152004   4.822   4.309   2.953
13314SOL    HW252005   4.742   4.184   3.021
13315SOL     OW52006   4.781   5.321   3.114
13315SOL    HW152007   4.707   5.385   3.132
13315SOL    HW252008   4.860   5.370   3.076
13316SOL     OW52009   3.990   5.451   3.613
13316SOL    HW152010   4.033   5.535   3.579
13316SOL    HW252011   4.015   5.438   3.709
13317SOL     OW52012   3.850   4.987   3.484
13317SOL    HW152013   3.829   4.892   3.457
13317SOL    HW252014   3.781   5.048   3.446
13318SOL     OW52015   3.939   5.352   2.888
13318SOL    HW152016   3.881   5.272   2.902
13318SOL    HW252017   3.963   5.359   2.791
13319SOL     OW52018   4.685   3.873   2.743
13319SOL    HW152019   4.781   3.874   2.771
13319SOL    HW252020   4.630   3.830   2.815
13320SOL     OW52021   4.747   4.879   2.259
13320SOL    HW152022   4.827   4.915   2.307
13320SOL    HW252023   4.705   4.806   2.315
13321SOL     OW52024   5.338   4.146   2.623
13321SOL    HW152025   5.357   4.232   2.670
13321SOL    HW252026   5.406   4.077   2.651
13322SOL     OW52027   4.481   4.818   2.109
13322SOL    HW152028   4.553   4.877   2.074
13322SOL    HW252029   4.521   4.734   2.145
13323SOL     OW52030   4.552   3.794   1.961
13323SOL    HW152031   4.627   3.728   1.973
13323SOL    HW252032   4.583   3.885   1.989
13324SOL     OW52033   4.231   4.223   2.573
13324SOL    HW152034   4.269   4.134   2.599
13324SOL    HW252035   4.298   4.273   2.518
13325SOL     OW52036   4.219   4.781   3.227
13325SOL    HW152037   4.315   4.761   3.247
13325SOL    HW252038   4.208   4.879   3.209
13326SOL     OW52039   5.441   4.824   3.196
13326SOL    HW152040   5.455   4.922   3.210
13326SOL    HW252041   5.498   4.793   3.120
13327SOL     OW52042   3.924   4.933   1.888
13327SOL    HW152043   3.916   4.945   1.789
13327SOL    HW252044   3.983   5.004   1.926
13328SOL     OW52045   4.351   5.372   2.048
13328SOL    HW152046   4.326   5.467   2.032
13328SOL    HW252047   4.318   5.344   2.138
13329SOL     OW52048   5.001   4.795   3.272
13329SOL    HW152049   4.945   4.754   3.343
13329SOL    HW252050   4.981   4.893   3.266
13330SOL     OW52051   4.268   5.411   3.272
13330SOL    HW152052   4.317   5.491   3.236
13330SOL    HW252053   4.176   5.409   3.233
13331SOL     OW52054   5.350   5.253   2.873
13331SOL    HW152055   5.322   5.346   2.897
13331SOL    HW252056   5.400   5.212   2.949
13332SOL     OW52057   5.322   4.800   2.684
13332SOL    HW152058   5.284   4.889   2.657
13332SOL    HW252059   5.322   4.738   2.606
13333SOL     OW52060   4.480   4.206   2.853
13333SOL    HW152061   4.572   4.234   2.880
13333SOL    HW252062   4.412   4.257   2.907
13334SOL     OW52063   3.899   4.399   2.994
13334SOL    HW152064   3.937   4.458   3.065
13334SOL    HW252065   3.882   4.452   2.912
13335SOL     OW52066   4.070   5.045   3.292
13335SOL    HW152067   4.089   5.133   3.336
13335SOL    HW252068   3.975   5.019   3.310
13336SOL     OW52069   5.313   5.361   3.640
13336SOL    HW152070   5.282   5.283   3.585
13336SOL    HW252071   5.282   5.446   3.598
13337SOL     OW52072   5.021   4.899   2.361
13337SOL    HW152073   5.120   4.903   2.377
13337SOL    HW252074   5.004   4.885   2.263
13338SOL     OW52075   4.374   4.065   2.309
13338SOL    HW152076   4.276   4.059   2.289
13338SOL    HW252077   4.393   4.022   2.397
13339SOL     OW52078   5.294   3.748   2.568
13339SOL    HW152079   5.289   3.789   2.477
13339SOL    HW252080   5.375   3.782   2.615
13340SOL     OW52081   4.897   4.504   3.261
13340SOL    HW152082   4.996   4.513   3.251
13340SOL    HW252083   4.853   4.506   3.171
13341SOL     OW52084   4.391   4.464   2.663
13341SOL    HW152085   4.413   4.386   2.721
13341SOL    HW252086   4.400   4.438   2.567
13342SOL     OW52087   5.056   5.171   2.875
13342SOL    HW152088   4.970   5.128   2.904
13342SOL    HW252089   5.045   5.211   2.784
13343SOL     OW52090   5.059   4.156   2.550
13343SOL    HW152091   5.058   4.148   2.451
13343SOL    HW252092   5.148   4.128   2.585
13344SOL     OW52093   4.786   5.172   4.383
13344SOL    HW152094   4.877   5.206   4.406
13344SOL    HW252095   4.758   5.210   4.295
13345SOL     OW52096   5.297   4.968   4.241
13345SOL    HW152097   5.308   5.052   4.295
13345SOL    HW252098   5.387   4.931   4.218
13346SOL     OW52099   5.377   4.250   5.105
13346SOL    HW152100   5.279   4.242   5.127
13346SOL    HW252101   5.430   4.239   5.189
13347SOL     OW52102   5.031   5.276   4.485
13347SOL    HW152103   5.020   5.373   4.508
13347SOL    HW252104   5.124   5.259   4.455
13348SOL     OW52105   4.909   3.787   5.043
13348SOL    HW152106   4.833   3.742   5.090
13348SOL    HW252107   4.938   3.732   4.965
13349SOL     OW52108   4.647   4.567   5.420
13349SOL    HW152109   4.612   4.542   5.330
13349SOL    HW252110   4.571   4.588   5.481
13350SOL     OW52111   4.254   5.241   4.114
13350SOL    HW152112   4.210   5.250   4.203
13350SOL    HW252113   4.325   5.171   4.118
13351SOL     OW52114   5.242   4.759   5.219
13351SOL    HW152115   5.150   4.764   5.181
13351SOL    HW252116   5.307   4.797   5.153
13352SOL     OW52117   5.142   4.766   4.900
13352SOL    HW152118   5.067   4.755   4.965
13352SOL    HW252119   5.179   4.859   4.906
13353SOL     OW52120   4.638   5.021   5.200
13353SOL    HW152121   4.581   5.084   5.146
13353SOL    HW252122   4.671   4.947   5.141
13354SOL     OW52123   4.181   4.914   4.409
13354SOL    HW152124   4.114   4.868   4.468
13354SOL    HW252125   4.273   4.882   4.432
13355SOL     OW52126   4.408   4.320   4.240
13355SOL    HW152127   4.447   4.390   4.181
13355SOL    HW252128   4.382   4.240   4.186
13356SOL     OW52129   5.028   4.228   5.449
13356SOL    HW152130   5.124   4.232   5.475
13356SOL    HW252131   4.984   4.152   5.496
13357SOL     OW52132   4.111   5.083   3.893
13357SOL    HW152133   4.175   5.099   3.818
13357SOL    HW252134   4.135   5.141   3.971
13358SOL     OW52135   4.262   4.039   4.703
13358SOL    HW152136   4.338   4.104   4.699
13358SOL    HW252137   4.292   3.950   4.670
13359SOL     OW52138   3.959   4.465   4.121
13359SOL    HW152139   3.974   4.399   4.195
13359SOL    HW252140   3.909   4.544   4.156
13360SOL     OW52141   4.545   5.410   4.298
13360SOL    HW152142   4.610   5.343   4.262
13360SOL    HW252143   4.535   5.486   4.234
13361SOL     OW52144   5.437   5.292   4.040
13361SOL    HW152145   5.533   5.266   4.033
13361SOL    HW252146   5.413   5.352   3.964
13362SOL     OW52147   4.749   4.014   4.080
13362SOL    HW152148   4.774   4.108   4.101
13362SOL    HW252149   4.750   3.960   4.164
13363SOL     OW52150   3.873   4.727   5.265
13363SOL    HW152151   3.969   4.742   5.283
13363SOL    HW252152   3.835   4.665   5.334
13364SOL     OW52153   5.318   5.128   4.482
13364SOL    HW152154   5.314   5.163   4.575
13364SOL    HW252155   5.377   5.187   4.426
13365SOL     OW52156   4.049   4.949   4.158
13365SOL    HW152157   4.095   4.923   4.243
13365SOL    HW252158   4.069   4.881   4.087
13366SOL     OW52159   4.907   4.004   3.869
13366SOL    HW152160   5.001   3.974   3.887
13366SOL    HW252161   4.855   4.004   3.955
13367SOL     OW52162   5.141   4.489   5.002
13367SOL    HW152163   5.145   4.583   4.967
13367SOL    HW252164   5.234   4.458   5.024
13368SOL     OW52165   5.222   5.508   5.035
13368SOL    HW152166   5.165   5.459   4.969
13368SOL    HW252167   5.308   5.535   4.992
13369SOL     OW52168   5.517   4.226   4.890
13369SOL    HW152169   5.574   4.308   4.892
13369SOL    HW252170   5.458   4.225   4.970
13370SOL     OW52171   5.534   5.452   4.803
13370SOL    HW152172   5.580   5.462   4.891
13370SOL    HW252173   5.601   5.455   4.730
13371SOL     OW52174   4.882   4.656   3.882
13371SOL    HW152175   4.919   4.606   3.960
13371SOL    HW252176   4.812   4.601   3.837
13372SOL     OW52177   4.724   4.078   5.503
13372SOL    HW152178   4.787   4.083   5.580
13372SOL    HW252179   4.632   4.056   5.536
13373SOL     OW52180   5.465   4.325   3.961
13373SOL    HW152181   5.486   4.244   3.907
13373SOL    HW252182   5.482   4.306   4.058
13374SOL     OW52183   4.759   5.463   3.869
13374SOL    HW152184   4.793   5.376   3.834
13374SOL    HW252185   4.727   5.451   3.963
13375SOL     OW52186   4.440   3.730   5.401
13375SOL    HW152187   4.447   3.636   5.368
13375SOL    HW252188   4.497   3.740   5.483
13376SOL     OW52189   5.363   4.331   4.669
13376SOL    HW152190   5.348   4.422   4.706
13376SOL    HW252191   5.433   4.284   4.723
13377SOL     OW52192   4.773   4.997   5.435
13377SOL    HW152193   4.795   4.907   5.397
13377SOL    HW252194   4.708   5.044   5.376
13378SOL     OW52195   4.428   4.839   5.439
13378SOL    HW152196   4.399   4.916   5.496
13378SOL    HW252197   4.438   4.758   5.497
13379SOL     OW52198   5.418   3.909   5.474
13379SOL    HW152199   5.395   3.930   5.569
13379SOL    HW252200   5.394   3.814   5.454
13380SOL     OW52201   3.721   4.313   4.218
13380SOL    HW152202   3.723   4.264   4.305
13380SOL    HW252203   3.723   4.412   4.236
13381SOL     OW52204   4.042   3.901   4.539
13381SOL    HW152205   4.094   3.941   4.614
13381SOL    HW252206   4.095   3.828   4.496
13382SOL     OW52207   4.026   3.949   4.873
13382SOL    HW152208   3.991   3.856   4.873
13382SOL    HW252209   4.113   3.952   4.824
13383SOL     OW52210   3.894   5.198   4.072
13383SOL    HW152211   3.921   5.104   4.092
13383SOL    HW252212   3.919   5.220   3.978
13384SOL     OW52213   5.176   5.067   4.946
13384SOL    HW152214   5.147   5.104   4.857
13384SOL    HW252215   5.098   5.067   5.008
13385SOL     OW52216   3.908   5.341   4.309
13385SOL    HW152217   3.824   5.392   4.327
13385SOL    HW252218   3.899   5.290   4.224
13386SOL     OW52219   5.429   5.138   4.984
13386SOL    HW152220   5.460   5.152   5.078
13386SOL    HW252221   5.330   5.125   4.983
13387SOL     OW52222   4.698   4.825   5.010
13387SOL    HW152223   4.748   4.740   4.994
13387SOL    HW252224   4.652   4.852   4.925
13388SOL     OW52225   3.785   4.530   3.884
13388SOL    HW152226   3.845   4.477   3.944
13388SOL    HW252227   3.691   4.498   3.896
13389SOL     OW52228   5.305   4.528   4.084
13389SOL    HW152229   5.373   4.462   4.051
13389SOL    HW252230   5.320   4.616   4.040
13390SOL     OW52231   4.553   5.515   4.732
13390SOL    HW152232   4.599   5.448   4.674
13390SOL    HW252233   4.479   5.471   4.782
13391SOL     OW52234   5.056   4.116   4.114
13391SOL    HW152235   4.993   4.174   4.062
13391SOL    HW252236   5.149   4.150   4.102
13392SOL     OW52237   3.953   4.317   5.214
13392SOL    HW152238   3.973   4.222   5.189
13392SOL    HW252239   3.916   4.320   5.307
13393SOL     OW52240   3.835   3.972   5.104
13393SOL    HW152241   3.907   3.982   5.035
13393SOL    HW252242   3.746   3.971   5.059
13394SOL     OW52243   4.733   4.593   4.869
13394SOL    HW152244   4.727   4.579   4.770
13394SOL    HW252245   4.652   4.554   4.913
13395SOL     OW52246   5.324   4.127   4.184
13395SOL    HW152247   5.420   4.098   4.181
13395SOL    HW252248   5.285   4.105   4.273
13396SOL     OW52249   4.669   5.013   3.841
13396SOL    HW152250   4.722   4.953   3.901
13396SOL    HW252251   4.708   5.014   3.750
13397SOL     OW52252   5.420   5.308   4.326
13397SOL    HW152253   5.387   5.401   4.345
13397SOL    HW252254   5.418   5.292   4.227
13398SOL     OW52255   4.835   4.581   4.315
13398SOL    HW152256   4.900   4.609   4.386
13398SOL    HW252257   4.756   4.642   4.317
13399SOL     OW52258   4.583   5.307   5.339
13399SOL    HW152259   4.571   5.238   5.268
13399SOL    HW252260   4.546   5.272   5.426
13400SOL     OW52261   5.027   4.621   4.518
13400SOL    HW152262   5.048   4.563   4.596
13400SOL    HW252263   5.036   4.717   4.544
13401SOL     OW52264   4.616   4.698   4.263
13401SOL    HW152265   4.603   4.609   4.220
13401SOL    HW252266   4.547   4.712   4.334
13402SOL     OW52267   4.920   5.086   5.102
13402SOL    HW152268   4.953   5.171   5.143
13402SOL    HW252269   4.821   5.082   5.109
13403SOL     OW52270   3.727   4.003   4.166
13403SOL    HW152271   3.787   3.954   4.104
13403SOL    HW252272   3.782   4.055   4.231
13404SOL     OW52273   5.350   5.501   3.857
13404SOL    HW152274   5.440   5.545   3.859
13404SOL    HW252275   5.349   5.432   3.785
13405SOL     OW52276   3.751   5.495   5.086
13405SOL    HW152277   3.759   5.595   5.084
13405SOL    HW252278   3.727   5.466   5.179
13406SOL     OW52279   4.532   4.514   4.080
13406SOL    HW152280   4.443   4.542   4.045
13406SOL    HW252281   4.573   4.448   4.016
13407SOL     OW52282   4.054   4.232   4.619
13407SOL    HW152283   4.110   4.225   4.536
13407SOL    HW252284   4.111   4.210   4.699
13408SOL     OW52285   4.051   5.430   3.890
13408SOL    HW152286   4.143   5.460   3.865
13408SOL    HW252287   4.026   5.469   3.979
13409SOL     OW52288   5.027   5.452   4.827
13409SOL    HW152289   5.046   5.515   4.753
13409SOL    HW252290   5.035   5.358   4.794
13410SOL     OW52291   3.728   4.888   4.183
13410SOL    HW152292   3.806   4.946   4.207
13410SOL    HW252293   3.747   4.839   4.098
13411SOL     OW52294   5.258   4.016   5.267
13411SOL    HW152295   5.197   4.094   5.264
13411SOL    HW252296   5.313   4.020   5.350
13412SOL     OW52297   5.094   3.768   3.854
13412SOL    HW152298   5.174   3.708   3.851
13412SOL    HW252299   5.020   3.721   3.902
13413SOL     OW52300   5.307   3.740   5.288
13413SOL    HW152301   5.333   3.697   5.202
13413SOL    HW252302   5.257   3.824   5.270
13414SOL     OW52303   4.409   3.999   4.420
13414SOL    HW152304   4.398   3.941   4.501
13414SOL    HW252305   4.494   4.051   4.428
13415SOL     OW52306   5.282   3.756   4.128
13415SOL    HW152307   5.289   3.710   4.040
13415SOL    HW252308   5.186   3.766   4.153
13416SOL     OW52309   4.258   5.071   5.491
13416SOL    HW152310   4.219   5.134   5.424
13416SOL    HW252311   4.341   5.111   5.531
13417SOL     OW52312   4.134   4.803   5.323
13417SOL    HW152313   4.153   4.827   5.228
13417SOL    HW252314   4.127   4.886   5.378
13418SOL     OW52315   5.481   4.321   5.366
13418SOL    HW152316   5.470   4.407   5.315
13418SOL    HW252317   5.575   4.312   5.396
13419SOL     OW52318   5.282   4.226   5.536
13419SOL    HW152319   5.362   4.251   5.480
13419SOL    HW252320   5.313   4.191   5.624
13420SOL     OW52321   4.993   4.529   4.116
13420SOL    HW152322   4.939   4.527   4.200
13420SOL    HW252323   5.070   4.592   4.127
13421SOL     OW52324   5.290   4.625   4.336
13421SOL    HW152325   5.304   4.588   4.243
13421SOL    HW252326   5.201   4.595   4.370
13422SOL     OW52327   5.446   4.562   5.231
13422SOL    HW152328   5.348   4.583   5.233
13422SOL    HW252329   5.495   4.638   5.190
13423SOL     OW52330   5.300   3.982   3.910
13423SOL    HW152331   5.305   4.024   4.001
13423SOL    HW252332   5.233   3.907   3.912
13424SOL     OW52333   4.447   5.197   5.130
13424SOL    HW152334   4.384   5.275   5.137
13424SOL    HW252335   4.415   5.135   5.058
13425SOL     OW52336   3.838   3.992   5.395
13425SOL    HW152337   3.856   3.981   5.297
13425SOL    HW252338   3.740   3.988   5.412
13426SOL     OW52339   3.718   5.406   5.339
13426SOL    HW152340   3.790   5.392   5.407
13426SOL    HW252341   3.629   5.409   5.384
13427SOL     OW52342   3.886   4.062   4.363
13427SOL    HW152343   3.829   4.117   4.424
13427SOL    HW252344   3.956   4.014   4.416
13428SOL     OW52345   5.058   5.294   5.226
13428SOL    HW152346   5.011   5.362   5.281
13428SOL    HW252347   5.125   5.340   5.167
13429SOL     OW52348   4.023   4.253   3.961
13429SOL    HW152349   4.095   4.282   3.898
13429SOL    HW252350   3.979   4.333   4.001
13430SOL     OW52351   5.409   3.915   5.064
13430SOL    HW152352   5.365   3.963   5.140
13430SOL    HW252353   5.387   3.961   4.978
13431SOL     OW52354   4.138   5.516   4.427
13431SOL    HW152355   4.062   5.482   4.372
13431SOL    HW252356   4.224   5.479   4.392
13432SOL     OW52357   4.063   5.025   4.872
13432SOL    HW152358   4.075   5.041   4.969
13432SOL    HW252359   3.976   5.065   4.842
13433SOL     OW52360   4.947   5.229   5.518
13433SOL    HW152361   4.906   5.144   5.484
13433SOL    HW252362   4.927   5.303   5.454
13434SOL     OW52363   4.437   4.949   4.208
13434SOL    HW152364   4.480   4.880   4.150
13434SOL    HW252365   4.401   4.906   4.291
13435SOL     OW52366   4.069   4.500   4.410
13435SOL    HW152367   4.061   4.598   4.428
13435SOL    HW252368   4.153   4.466   4.451
13436SOL     OW52369   4.829   4.411   3.738
13436SOL    HW152370   4.760   4.468   3.694
13436SOL    HW252371   4.910   4.405   3.679
13437SOL     OW52372   5.015   3.847   4.175
13437SOL    HW152373   4.925   3.831   4.216
13437SOL    HW252374   5.023   3.943   4.149
13438SOL     OW52375   5.129   4.247   5.191
13438SOL    HW152376   5.081   4.270   5.275
13438SOL    HW252377   5.063   4.217   5.122
13439SOL     OW52378   3.764   3.762   3.835
13439SOL    HW152379   3.827   3.685   3.843
13439SOL    HW252380   3.784   3.830   3.906
13440SOL     OW52381   5.336   4.749   3.936
13440SOL    HW152382   5.407   4.819   3.938
13440SOL    HW252383   5.323   4.719   3.841
13441SOL     OW52384   4.461   4.719   5.175
13441SOL    HW152385   4.530   4.771   5.125
13441SOL    HW252386   4.456   4.752   5.270
13442SOL     OW52387   4.853   4.740   5.335
13442SOL    HW152388   4.775   4.686   5.368
13442SOL    HW252389   4.934   4.718   5.390
13443SOL     OW52390   4.782   3.922   4.331
13443SOL    HW152391   4.841   3.982   4.386
13443SOL    HW252392   4.709   3.886   4.388
13444SOL     OW52393   4.892   5.454   5.371
13444SOL    HW152394   4.797   5.452   5.339
13444SOL    HW252395   4.913   5.545   5.408
13445SOL     OW52396   4.010   5.464   4.969
13445SOL    HW152397   3.990   5.446   4.873
13445SOL    HW252398   3.937   5.426   5.026
13446SOL     OW52399   4.703   4.928   4.514
13446SOL    HW152400   4.742   4.971   4.433
13446SOL    HW252401   4.776   4.911   4.581
13447SOL     OW52402   3.964   3.711   4.122
13447SOL    HW152403   4.002   3.799   4.149
13447SOL    HW252404   3.887   3.687   4.182
13448SOL     OW52405   4.380   4.328   5.450
13448SOL    HW152406   4.332   4.379   5.379
13448SOL    HW252407   4.473   4.307   5.420
13449SOL     OW52408   3.786   4.798   3.942
13449SOL    HW152409   3.776   4.701   3.921
13449SOL    HW252410   3.839   4.843   3.870
13450SOL     OW52411   4.531   4.886   4.795
13450SOL    HW152412   4.482   4.801   4.776
13450SOL    HW252413   4.601   4.901   4.726
13451SOL     OW52414   4.869   4.309   4.004
13451SOL    HW152415   4.921   4.381   4.050
13451SOL    HW252416   4.882   4.316   3.906
13452SOL     OW52417   5.230   5.124   5.331
13452SOL    HW152418   5.215   5.026   5.345
13452SOL    HW252419   5.147   5.166   5.295
13453SOL     OW52420   4.489   5.192   3.729
13453SOL    HW152421   4.464   5.269   3.788
13453SOL    HW252422   4.553   5.132   3.777
13454SOL     OW52423   4.450   4.810   4.480
13454SOL    HW152424   4.539   4.856   4.480
13454SOL    HW252425   4.443   4.750   4.559
13455SOL     OW52426   4.628   5.157   4.149
13455SOL    HW152427   4.678   5.145   4.064
13455SOL    HW252428   4.574   5.074   4.168
13456SOL     OW52429   3.755   4.621   5.476
13456SOL    HW152430   3.670   4.572   5.457
13456SOL    HW252431   3.782   4.608   5.571
13457SOL     OW52432   4.652   5.530   5.182
13457SOL    HW152433   4.624   5.443   5.223
13457SOL    HW252434   4.596   5.604   5.219
13458SOL     OW52435   4.881   4.877   4.712
13458SOL    HW152436   4.865   4.971   4.743
13458SOL    HW252437   4.884   4.816   4.792
13459SOL     OW52438   4.155   4.148   5.476
13459SOL    HW152439   4.191   4.095   5.399
13459SOL    HW252440   4.216   4.225   5.494
13460SOL     OW52441   4.219   4.565   4.048
13460SOL    HW152442   4.169   4.630   3.992
13460SOL    HW252443   4.161   4.486   4.067
13461SOL     OW52444   5.300   4.596   4.746
13461SOL    HW152445   5.319   4.635   4.655
13461SOL    HW252446   5.254   4.665   4.802
13462SOL     OW52447   4.992   4.039   5.042
13462SOL    HW152448   5.063   4.011   5.106
13462SOL    HW252449   4.939   3.959   5.014
13463SOL     OW52450   3.693   3.738   4.243
13463SOL    HW152451   3.606   3.725   4.196
13463SOL    HW252452   3.701   3.833   4.273
13464SOL     OW52453   4.914   3.839   5.484
13464SOL    HW152454   4.973   3.855   5.564
13464SOL    HW252455   4.861   3.922   5.465
13465SOL     OW52456   4.130   5.258   5.309
13465SOL    HW152457   4.072   5.323   5.358
13465SOL    HW252458   4.192   5.308   5.249
13466SOL     OW52459   5.486   5.145   5.250
13466SOL    HW152460   5.514   5.238   5.272
13466SOL    HW252461   5.393   5.129   5.283
13467SOL     OW52462   4.140   5.204   4.372
13467SOL    HW152463   4.138   5.105   4.385
13467SOL    HW252464   4.049   5.237   4.349
13468SOL     OW52465   4.781   5.321   4.960
13468SOL    HW152466   4.707   5.385   4.978
13468SOL    HW252467   4.860   5.370   4.922
13469SOL     OW52468   3.990   5.451   5.459
13469SOL    HW152469   4.033   5.535   5.425
13469SOL    HW252470   4.015   5.438   5.555
13470SOL     OW52471   3.850   4.987   5.330
13470SOL    HW152472   3.829   4.892   5.303
13470SOL    HW252473   3.781   5.048   5.292
13471SOL     OW52474   3.939   5.352   4.734
13471SOL    HW152475   3.881   5.272   4.748
13471SOL    HW252476   3.963   5.359   4.637
13472SOL     OW52477   4.747   4.879   4.105
13472SOL    HW152478   4.827   4.915   4.153
13472SOL    HW252479   4.705   4.806   4.161
13473SOL     OW52480   4.481   4.818   3.955
13473SOL    HW152481   4.553   4.877   3.920
13473SOL    HW252482   4.521   4.734   3.991
13474SOL     OW52483   4.219   4.781   5.073
13474SOL    HW152484   4.315   4.761   5.093
13474SOL    HW252485   4.208   4.879   5.055
13475SOL     OW52486   5.441   4.824   5.042
13475SOL    HW152487   5.455   4.922   5.056
13475SOL    HW252488   5.498   4.793   4.966
13476SOL     OW52489   3.924   4.933   3.734
13476SOL    HW152490   3.916   4.945   3.635
13476SOL    HW252491   3.983   5.004   3.772
13477SOL     OW52492   4.351   5.372   3.894
13477SOL    HW152493   4.326   5.467   3.878
13477SOL    HW252494   4.318   5.344   3.984
13478SOL     OW52495   5.001   4.795   5.118
13478SOL    HW152496   4.945   4.754   5.189
13478SOL    HW252497   4.981   4.893   5.112
13479SOL     OW52498   4.268   5.411   5.118
13479SOL    HW152499   4.317   5.491   5.082
13479SOL    HW252500   4.176   5.409   5.079
13480SOL     OW52501   3.911   4.292   5.480
13480SOL    HW152502   3.928   4.193   5.485
13480SOL    HW252503   3.975   4.340   5.541
13481SOL     OW52504   5.350   5.253   4.719
13481SOL    HW152505   5.322   5.346   4.743
13481SOL    HW252506   5.400   5.212   4.795
13482SOL     OW52507   3.746   4.626   4.280
13482SOL    HW152508   3.753   4.725   4.267
13482SOL    HW252509   3.655   4.603   4.314
13483SOL     OW52510   4.255   4.424   5.218
13483SOL    HW152511   4.161   4.394   5.199
13483SOL    HW252512   4.264   4.521   5.195
13484SOL     OW52513   5.322   4.800   4.530
13484SOL    HW152514   5.284   4.889   4.503
13484SOL    HW252515   5.322   4.738   4.452
13485SOL     OW52516   4.333   5.057   4.926
13485SOL    HW152517   4.246   5.056   4.877
13485SOL    HW252518   4.399   4.997   4.879
13486SOL     OW52519   4.070   5.045   5.138
13486SOL    HW152520   4.089   5.133   5.182
13486SOL    HW252521   3.975   5.019   5.156
13487SOL     OW52522   5.313   5.361   5.486
13487SOL    HW152523   5.282   5.283   5.431
13487SOL    HW252524   5.282   5.446   5.444
13488SOL     OW52525   5.021   4.899   4.207
13488SOL    HW152526   5.120   4.903   4.223
13488SOL    HW252527   5.004   4.885   4.109
13489SOL     OW52528   4.374   4.065   4.155
13489SOL    HW152529   4.276   4.059   4.135
13489SOL    HW252530   4.393   4.022   4.243
13490SOL     OW52531   4.897   4.504   5.107
13490SOL    HW152532   4.996   4.513   5.097
13490SOL    HW252533   4.853   4.506   5.017
13491SOL     OW52534   5.056   5.171   4.721
13491SOL    HW152535   4.970   5.128   4.750
13491SOL    HW252536   5.045   5.211   4.630
13492SOL     OW52537   5.297   4.968   6.086
13492SOL    HW152538   5.308   5.052   6.140
13492SOL    HW252539   5.387   4.931   6.063
13493SOL     OW52540   5.377   4.250   6.950
13493SOL    HW152541   5.279   4.242   6.972
13493SOL    HW252542   5.430   4.239   7.034
13494SOL     OW52543   4.044   3.887   5.555
13494SOL    HW152544   3.957   3.884   5.506
13494SOL    HW252545   4.095   3.969   5.527
13495SOL     OW52546   4.909   3.787   6.888
13495SOL    HW152547   4.833   3.742   6.935
13495SOL    HW252548   4.938   3.732   6.810
13496SOL     OW52549   4.647   4.567   7.265
13496SOL    HW152550   4.612   4.542   7.175
13496SOL    HW252551   4.571   4.588   7.326
13497SOL     OW52552   4.254   5.241   5.959
13497SOL    HW152553   4.210   5.250   6.048
13497SOL    HW252554   4.325   5.171   5.963
13498SOL     OW52555   4.272   3.774   5.681
13498SOL    HW152556   4.360   3.802   5.642
13498SOL    HW252557   4.200   3.837   5.651
13499SOL     OW52558   5.242   4.759   7.064
13499SOL    HW152559   5.150   4.764   7.026
13499SOL    HW252560   5.307   4.797   6.998
13500SOL     OW52561   5.142   4.766   6.745
13500SOL    HW152562   5.067   4.755   6.810
13500SOL    HW252563   5.179   4.859   6.751
13501SOL     OW52564   4.638   5.021   7.045
13501SOL    HW152565   4.581   5.084   6.991
13501SOL    HW252566   4.671   4.947   6.986
13502SOL     OW52567   4.181   4.914   6.254
13502SOL    HW152568   4.114   4.868   6.313
13502SOL    HW252569   4.273   4.882   6.277
13503SOL     OW52570   4.408   4.320   6.085
13503SOL    HW152571   4.447   4.390   6.026
13503SOL    HW252572   4.382   4.240   6.031
13504SOL     OW52573   5.028   4.228   7.294
13504SOL    HW152574   5.124   4.232   7.320
13504SOL    HW252575   4.984   4.152   7.341
13505SOL     OW52576   4.111   5.083   5.738
13505SOL    HW152577   4.175   5.099   5.663
13505SOL    HW252578   4.135   5.141   5.816
13506SOL     OW52579   4.262   4.039   6.548
13506SOL    HW152580   4.338   4.104   6.544
13506SOL    HW252581   4.292   3.950   6.515
13507SOL     OW52582   3.959   4.465   5.966
13507SOL    HW152583   3.974   4.399   6.040
13507SOL    HW252584   3.909   4.544   6.001
13508SOL     OW52585   4.545   5.410   6.143
13508SOL    HW152586   4.610   5.343   6.107
13508SOL    HW252587   4.535   5.486   6.079
13509SOL     OW52588   5.437   5.292   5.885
13509SOL    HW152589   5.533   5.266   5.878
13509SOL    HW252590   5.413   5.352   5.809
13510SOL     OW52591   3.873   4.727   7.110
13510SOL    HW152592   3.969   4.742   7.128
13510SOL    HW252593   3.835   4.665   7.179
13511SOL     OW52594   4.199   4.372   5.653
13511SOL    HW152595   4.159   4.451   5.606
13511SOL    HW252596   4.288   4.351   5.613
13512SOL     OW52597   4.372   5.296   6.351
13512SOL    HW152598   4.445   5.319   6.287
13512SOL    HW252599   4.301   5.243   6.305
13513SOL     OW52600   4.714   4.328   7.105
13513SOL    HW152601   4.747   4.245   7.152
13513SOL    HW252602   4.787   4.396   7.104
13514SOL     OW52603   5.318   5.128   6.327
13514SOL    HW152604   5.314   5.163   6.420
13514SOL    HW252605   5.377   5.187   6.271
13515SOL     OW52606   4.049   4.949   6.003
13515SOL    HW152607   4.095   4.923   6.088
13515SOL    HW252608   4.069   4.881   5.932
13516SOL     OW52609   4.907   4.004   5.714
13516SOL    HW152610   5.001   3.974   5.732
13516SOL    HW252611   4.855   4.004   5.800
13517SOL     OW52612   4.059   4.209   6.809
13517SOL    HW152613   4.049   4.122   6.761
13517SOL    HW252614   3.995   4.276   6.772
13518SOL     OW52615   5.141   4.489   6.847
13518SOL    HW152616   5.145   4.583   6.812
13518SOL    HW252617   5.234   4.458   6.869
13519SOL     OW52618   4.094   3.981   5.968
13519SOL    HW152619   4.048   4.021   6.047
13519SOL    HW252620   4.042   4.000   5.886
13520SOL     OW52621   5.517   4.226   6.735
13520SOL    HW152622   5.574   4.308   6.737
13520SOL    HW252623   5.458   4.225   6.815
13521SOL     OW52624   5.534   5.452   6.648
13521SOL    HW152625   5.580   5.462   6.736
13521SOL    HW252626   5.601   5.455   6.575
13522SOL     OW52627   4.882   4.656   5.727
13522SOL    HW152628   4.919   4.606   5.805
13522SOL    HW252629   4.812   4.601   5.682
13523SOL     OW52630   4.724   4.078   7.348
13523SOL    HW152631   4.787   4.083   7.425
13523SOL    HW252632   4.632   4.056   7.381
13524SOL     OW52633   4.759   5.463   5.714
13524SOL    HW152634   4.793   5.376   5.679
13524SOL    HW252635   4.727   5.451   5.808
13525SOL     OW52636   4.440   3.730   7.246
13525SOL    HW152637   4.447   3.636   7.213
13525SOL    HW252638   4.497   3.740   7.328
13526SOL     OW52639   5.363   4.331   6.514
13526SOL    HW152640   5.348   4.422   6.551
13526SOL    HW252641   5.433   4.284   6.568
13527SOL     OW52642   4.773   4.997   7.280
13527SOL    HW152643   4.795   4.907   7.242
13527SOL    HW252644   4.708   5.044   7.221
13528SOL     OW52645   4.428   4.839   7.284
13528SOL    HW152646   4.399   4.916   7.341
13528SOL    HW252647   4.438   4.758   7.342
13529SOL     OW52648   5.418   3.909   7.319
13529SOL    HW152649   5.395   3.930   7.414
13529SOL    HW252650   5.394   3.814   7.299
13530SOL     OW52651   3.721   4.313   6.063
13530SOL    HW152652   3.723   4.264   6.150
13530SOL    HW252653   3.723   4.412   6.081
13531SOL     OW52654   4.042   3.901   6.384
13531SOL    HW152655   4.094   3.941   6.459
13531SOL    HW252656   4.095   3.828   6.341
13532SOL     OW52657   4.026   3.949   6.718
13532SOL    HW152658   3.991   3.856   6.718
13532SOL    HW252659   4.113   3.952   6.669
13533SOL     OW52660   3.894   5.198   5.917
13533SOL    HW152661   3.921   5.104   5.937
13533SOL    HW252662   3.919   5.220   5.823
13534SOL     OW52663   3.908   5.341   6.154
13534SOL    HW152664   3.824   5.392   6.172
13534SOL    HW252665   3.899   5.290   6.069
13535SOL     OW52666   5.429   5.138   6.829
13535SOL    HW152667   5.460   5.152   6.923
13535SOL    HW252668   5.330   5.125   6.828
13536SOL     OW52669   4.181   4.638   5.556
13536SOL    HW152670   4.150   4.672   5.468
13536SOL    HW252671   4.185   4.713   5.622
13537SOL     OW52672   3.785   4.530   5.729
13537SOL    HW152673   3.845   4.477   5.789
13537SOL    HW252674   3.691   4.498   5.741
13538SOL     OW52675   4.553   5.515   6.577
13538SOL    HW152676   4.599   5.448   6.519
13538SOL    HW252677   4.479   5.471   6.627
13539SOL     OW52678   4.460   4.584   5.613
13539SOL    HW152679   4.489   4.503   5.664
13539SOL    HW252680   4.360   4.583   5.604
13540SOL     OW52681   3.953   4.317   7.059
13540SOL    HW152682   3.973   4.222   7.034
13540SOL    HW252683   3.916   4.320   7.152
13541SOL     OW52684   3.835   3.972   6.949
13541SOL    HW152685   3.907   3.982   6.880
13541SOL    HW252686   3.746   3.971   6.904
13542SOL     OW52687   4.733   4.593   6.714
13542SOL    HW152688   4.727   4.579   6.615
13542SOL    HW252689   4.652   4.554   6.758
13543SOL     OW52690   5.324   4.127   6.029
13543SOL    HW152691   5.420   4.098   6.026
13543SOL    HW252692   5.285   4.105   6.118
13544SOL     OW52693   4.558   4.068   5.751
13544SOL    HW152694   4.467   4.081   5.789
13544SOL    HW252695   4.618   4.028   5.821
13545SOL     OW52696   4.669   5.013   5.686
13545SOL    HW152697   4.722   4.953   5.746
13545SOL    HW252698   4.708   5.014   5.595
13546SOL     OW52699   5.420   5.308   6.171
13546SOL    HW152700   5.387   5.401   6.190
13546SOL    HW252701   5.418   5.292   6.072
13547SOL     OW52702   4.583   5.307   7.184
13547SOL    HW152703   4.571   5.238   7.113
13547SOL    HW252704   4.546   5.272   7.271
13548SOL     OW52705   3.983   4.750   6.409
13548SOL    HW152706   3.906   4.812   6.402
13548SOL    HW252707   4.020   4.751   6.502
13549SOL     OW52708   3.727   4.003   6.011
13549SOL    HW152709   3.787   3.954   5.949
13549SOL    HW252710   3.782   4.055   6.076
13550SOL     OW52711   5.350   5.501   5.702
13550SOL    HW152712   5.440   5.545   5.704
13550SOL    HW252713   5.349   5.432   5.630
13551SOL     OW52714   4.514   4.468   6.860
13551SOL    HW152715   4.516   4.554   6.911
13551SOL    HW252716   4.571   4.400   6.907
13552SOL     OW52717   3.751   5.495   6.931
13552SOL    HW152718   3.759   5.595   6.929
13552SOL    HW252719   3.727   5.466   7.024
13553SOL     OW52720   4.532   4.514   5.925
13553SOL    HW152721   4.443   4.542   5.890
13553SOL    HW252722   4.573   4.448   5.861
13554SOL     OW52723   4.054   4.232   6.464
13554SOL    HW152724   4.110   4.225   6.381
13554SOL    HW252725   4.111   4.210   6.544
13555SOL     OW52726   4.051   5.430   5.735
13555SOL    HW152727   4.143   5.460   5.710
13555SOL    HW252728   4.026   5.469   5.824
13556SOL     OW52729   3.732   4.847   6.484
13556SOL    HW152730   3.642   4.863   6.445
13556SOL    HW252731   3.730   4.763   6.539
13557SOL     OW52732   4.483   3.752   5.934
13557SOL    HW152733   4.444   3.741   5.843
13557SOL    HW252734   4.439   3.828   5.981
13558SOL     OW52735   3.728   4.888   6.028
13558SOL    HW152736   3.806   4.946   6.052
13558SOL    HW252737   3.747   4.839   5.943
13559SOL     OW52738   5.258   4.016   7.112
13559SOL    HW152739   5.197   4.094   7.109
13559SOL    HW252740   5.313   4.020   7.195
13560SOL     OW52741   5.094   3.768   5.699
13560SOL    HW152742   5.174   3.708   5.696
13560SOL    HW252743   5.020   3.721   5.747
13561SOL     OW52744   5.307   3.740   7.133
13561SOL    HW152745   5.333   3.697   7.047
13561SOL    HW252746   5.257   3.824   7.115
13562SOL     OW52747   4.409   3.999   6.265
13562SOL    HW152748   4.398   3.941   6.346
13562SOL    HW252749   4.494   4.051   6.273
13563SOL     OW52750   4.989   4.350   6.657
13563SOL    HW152751   5.043   4.390   6.583
13563SOL    HW252752   5.027   4.379   6.745
13564SOL     OW52753   5.282   3.756   5.973
13564SOL    HW152754   5.289   3.710   5.885
13564SOL    HW252755   5.186   3.766   5.998
13565SOL     OW52756   4.134   4.803   7.168
13565SOL    HW152757   4.153   4.827   7.073
13565SOL    HW252758   4.127   4.886   7.223
13566SOL     OW52759   3.795   5.093   6.642
13566SOL    HW152760   3.764   5.019   6.583
13566SOL    HW252761   3.727   5.111   6.713
13567SOL     OW52762   5.481   4.321   7.211
13567SOL    HW152763   5.470   4.407   7.160
13567SOL    HW252764   5.575   4.312   7.241
13568SOL     OW52765   5.052   4.094   6.630
13568SOL    HW152766   5.026   4.191   6.636
13568SOL    HW252767   5.052   4.054   6.722
13569SOL     OW52768   5.282   4.226   7.381
13569SOL    HW152769   5.362   4.251   7.325
13569SOL    HW252770   5.313   4.191   7.469
13570SOL     OW52771   4.993   4.529   5.961
13570SOL    HW152772   4.939   4.527   6.045
13570SOL    HW252773   5.070   4.592   5.972
13571SOL     OW52774   5.290   4.625   6.181
13571SOL    HW152775   5.304   4.588   6.088
13571SOL    HW252776   5.201   4.595   6.215
13572SOL     OW52777   5.446   4.562   7.076
13572SOL    HW152778   5.348   4.583   7.078
13572SOL    HW252779   5.495   4.638   7.035
13573SOL     OW52780   5.300   3.982   5.755
13573SOL    HW152781   5.305   4.024   5.846
13573SOL    HW252782   5.233   3.907   5.757
13574SOL     OW52783   4.447   5.197   6.975
13574SOL    HW152784   4.384   5.275   6.982
13574SOL    HW252785   4.415   5.135   6.903
13575SOL     OW52786   3.838   3.992   7.240
13575SOL    HW152787   3.856   3.981   7.142
13575SOL    HW252788   3.740   3.988   7.257
13576SOL     OW52789   3.718   5.406   7.184
13576SOL    HW152790   3.790   5.392   7.252
13576SOL    HW252791   3.629   5.409   7.229
13577SOL     OW52792   3.886   4.062   6.208
13577SOL    HW152793   3.829   4.117   6.269
13577SOL    HW252794   3.956   4.014   6.261
13578SOL     OW52795   4.023   4.253   5.806
13578SOL    HW152796   4.095   4.282   5.743
13578SOL    HW252797   3.979   4.333   5.846
13579SOL     OW52798   5.409   3.915   6.909
13579SOL    HW152799   5.365   3.963   6.985
13579SOL    HW252800   5.387   3.961   6.823
13580SOL     OW52801   4.138   5.516   6.272
13580SOL    HW152802   4.062   5.482   6.217
13580SOL    HW252803   4.224   5.479   6.237
13581SOL     OW52804   4.063   5.025   6.717
13581SOL    HW152805   4.075   5.041   6.814
13581SOL    HW252806   3.976   5.065   6.687
13582SOL     OW52807   4.437   4.949   6.053
13582SOL    HW152808   4.480   4.880   5.995
13582SOL    HW252809   4.401   4.906   6.136
13583SOL     OW52810   4.069   4.500   6.255
13583SOL    HW152811   4.061   4.598   6.273
13583SOL    HW252812   4.153   4.466   6.296
13584SOL     OW52813   3.915   3.980   5.770
13584SOL    HW152814   3.959   3.949   5.687
13584SOL    HW252815   3.916   4.080   5.774
13585SOL     OW52816   3.768   4.232   6.381
13585SOL    HW152817   3.732   4.325   6.373
13585SOL    HW252818   3.851   4.233   6.437
13586SOL     OW52819   4.203   4.819   5.767
13586SOL    HW152820   4.303   4.819   5.778
13586SOL    HW252821   4.172   4.912   5.746
13587SOL     OW52822   4.829   4.411   5.583
13587SOL    HW152823   4.760   4.468   5.539
13587SOL    HW252824   4.910   4.405   5.524
13588SOL     OW52825   4.564   4.330   5.726
13588SOL    HW152826   4.654   4.331   5.681
13588SOL    HW252827   4.541   4.236   5.751
13589SOL     OW52828   5.015   3.847   6.020
13589SOL    HW152829   4.925   3.831   6.061
13589SOL    HW252830   5.023   3.943   5.994
13590SOL     OW52831   5.129   4.247   7.036
13590SOL    HW152832   5.081   4.270   7.120
13590SOL    HW252833   5.063   4.217   6.967
13591SOL     OW52834   3.764   3.762   5.680
13591SOL    HW152835   3.827   3.685   5.688
13591SOL    HW252836   3.784   3.830   5.751
13592SOL     OW52837   4.037   4.737   6.681
13592SOL    HW152838   4.048   4.692   6.770
13592SOL    HW252839   4.064   4.833   6.688
13593SOL     OW52840   5.336   4.749   5.781
13593SOL    HW152841   5.407   4.819   5.783
13593SOL    HW252842   5.323   4.719   5.686
13594SOL     OW52843   4.318   4.350   6.703
13594SOL    HW152844   4.393   4.393   6.752
13594SOL    HW252845   4.251   4.315   6.769
13595SOL     OW52846   4.461   4.719   7.020
13595SOL    HW152847   4.530   4.771   6.970
13595SOL    HW252848   4.456   4.752   7.115
13596SOL     OW52849   4.853   4.740   7.180
13596SOL    HW152850   4.775   4.686   7.213
13596SOL    HW252851   4.934   4.718   7.235
13597SOL     OW52852   4.892   5.454   7.216
13597SOL    HW152853   4.797   5.452   7.184
13597SOL    HW252854   4.913   5.545   7.253
13598SOL     OW52855   4.310   3.799   6.447
13598SOL    HW152856   4.238   3.732   6.433
13598SOL    HW252857   4.392   3.753   6.482
13599SOL     OW52858   4.010   5.464   6.814
13599SOL    HW152859   3.990   5.446   6.718
13599SOL    HW252860   3.937   5.426   6.871
13600SOL     OW52861   4.397   4.656   6.561
13600SOL    HW152862   4.395   4.572   6.506
13600SOL    HW252863   4.346   4.642   6.646
13601SOL     OW52864   3.736   4.666   6.687
13601SOL    HW152865   3.825   4.644   6.727
13601SOL    HW252866   3.681   4.582   6.683
13602SOL     OW52867   3.964   3.711   5.967
13602SOL    HW152868   4.002   3.799   5.994
13602SOL    HW252869   3.887   3.687   6.027
13603SOL     OW52870   4.380   4.328   7.295
13603SOL    HW152871   4.332   4.379   7.224
13603SOL    HW252872   4.473   4.307   7.265
13604SOL     OW52873   3.786   4.798   5.787
13604SOL    HW152874   3.776   4.701   5.766
13604SOL    HW252875   3.839   4.843   5.715
13605SOL     OW52876   4.869   4.309   5.849
13605SOL    HW152877   4.921   4.381   5.895
13605SOL    HW252878   4.882   4.316   5.751
13606SOL     OW52879   3.987   4.566   6.916
13606SOL    HW152880   3.951   4.476   6.942
13606SOL    HW252881   3.948   4.636   6.976
13607SOL     OW52882   4.489   5.192   5.574
13607SOL    HW152883   4.464   5.269   5.633
13607SOL    HW252884   4.553   5.132   5.622
13608SOL     OW52885   4.307   5.399   6.608
13608SOL    HW152886   4.327   5.369   6.515
13608SOL    HW252887   4.232   5.344   6.645
13609SOL     OW52888   4.628   5.157   5.994
13609SOL    HW152889   4.678   5.145   5.909
13609SOL    HW252890   4.574   5.074   6.013
13610SOL     OW52891   3.818   4.504   6.394
13610SOL    HW152892   3.913   4.495   6.362
13610SOL    HW252893   3.784   4.596   6.373
13611SOL     OW52894   4.652   5.530   7.027
13611SOL    HW152895   4.624   5.443   7.068
13611SOL    HW252896   4.596   5.604   7.064
13612SOL     OW52897   4.155   4.148   7.321
13612SOL    HW152898   4.191   4.095   7.244
13612SOL    HW252899   4.216   4.225   7.339
13613SOL     OW52900   4.219   4.565   5.893
13613SOL    HW152901   4.169   4.630   5.837
13613SOL    HW252902   4.161   4.486   5.912
13614SOL     OW52903   4.992   4.039   6.887
13614SOL    HW152904   5.063   4.011   6.951
13614SOL    HW252905   4.939   3.959   6.859
13615SOL     OW52906   3.693   3.738   6.088
13615SOL    HW152907   3.606   3.725   6.041
13615SOL    HW252908   3.701   3.833   6.118
13616SOL     OW52909   4.914   3.839   7.329
13616SOL    HW152910   4.973   3.855   7.409
13616SOL    HW252911   4.861   3.922   7.310
13617SOL     OW52912   4.130   5.258   7.154
13617SOL    HW152913   4.072   5.323   7.203
13617SOL    HW252914   4.192   5.308   7.094
13618SOL     OW52915   5.486   5.145   7.095
13618SOL    HW152916   5.514   5.238   7.117
13618SOL    HW252917   5.393   5.129   7.128
13619SOL     OW52918   4.140   5.204   6.217
13619SOL    HW152919   4.138   5.105   6.230
13619SOL    HW252920   4.049   5.237   6.194
13620SOL     OW52921   4.781   5.321   6.805
13620SOL    HW152922   4.707   5.385   6.823
13620SOL    HW252923   4.860   5.370   6.767
13621SOL     OW52924   3.990   5.451   7.304
13621SOL    HW152925   4.033   5.535   7.270
13621SOL    HW252926   4.015   5.438   7.400
13622SOL     OW52927   3.850   4.987   7.175
13622SOL    HW152928   3.829   4.892   7.148
13622SOL    HW252929   3.781   5.048   7.137
13623SOL     OW52930   3.939   5.352   6.579
13623SOL    HW152931   3.881   5.272   6.593
13623SOL    HW252932   3.963   5.359   6.482
13624SOL     OW52933   4.685   3.873   6.434
13624SOL    HW152934   4.781   3.874   6.462
13624SOL    HW252935   4.630   3.830   6.506
13625SOL     OW52936   4.747   4.879   5.950
13625SOL    HW152937   4.827   4.915   5.998
13625SOL    HW252938   4.705   4.806   6.006
13626SOL     OW52939   4.481   4.818   5.800
13626SOL    HW152940   4.553   4.877   5.765
13626SOL    HW252941   4.521   4.734   5.836
13627SOL     OW52942   4.552   3.794   5.652
13627SOL    HW152943   4.627   3.728   5.664
13627SOL    HW252944   4.583   3.885   5.680
13628SOL     OW52945   4.231   4.223   6.264
13628SOL    HW152946   4.269   4.134   6.290
13628SOL    HW252947   4.298   4.273   6.209
13629SOL     OW52948   4.219   4.781   6.918
13629SOL    HW152949   4.315   4.761   6.938
13629SOL    HW252950   4.208   4.879   6.900
13630SOL     OW52951   5.441   4.824   6.887
13630SOL    HW152952   5.455   4.922   6.901
13630SOL    HW252953   5.498   4.793   6.811
13631SOL     OW52954   3.924   4.933   5.579
13631SOL    HW152955   3.916   4.945   5.480
13631SOL    HW252956   3.983   5.004   5.617
13632SOL     OW52957   4.351   5.372   5.739
13632SOL    HW152958   4.326   5.467   5.723
13632SOL    HW252959   4.318   5.344   5.829
13633SOL     OW52960   4.268   5.411   6.963
13633SOL    HW152961   4.317   5.491   6.927
13633SOL    HW252962   4.176   5.409   6.924
13634SOL     OW52963   5.350   5.253   6.564
13634SOL    HW152964   5.322   5.346   6.588
13634SOL    HW252965   5.400   5.212   6.640
13635SOL     OW52966   3.746   4.626   6.125
13635SOL    HW152967   3.753   4.725   6.112
13635SOL    HW252968   3.655   4.603   6.159
13636SOL     OW52969   4.255   4.424   7.063
13636SOL    HW152970   4.161   4.394   7.044
13636SOL    HW252971   4.264   4.521   7.040
13637SOL     OW52972   5.322   4.800   6.375
13637SOL    HW152973   5.284   4.889   6.348
13637SOL    HW252974   5.322   4.738   6.297
13638SOL     OW52975   4.480   4.206   6.544
13638SOL    HW152976   4.572   4.234   6.571
13638SOL    HW252977   4.412   4.257   6.598
13639SOL     OW52978   3.899   4.399   6.685
13639SOL    HW152979   3.937   4.458   6.756
13639SOL    HW252980   3.882   4.452   6.603
13640SOL     OW52981   4.070   5.045   6.983
13640SOL    HW152982   4.089   5.133   7.027
13640SOL    HW252983   3.975   5.019   7.001
13641SOL     OW52984   5.313   5.361   7.331
13641SOL    HW152985   5.282   5.283   7.276
13641SOL    HW252986   5.282   5.446   7.289
13642SOL     OW52987   5.021   4.899   6.052
13642SOL    HW152988   5.120   4.903   6.068
13642SOL    HW252989   5.004   4.885   5.954
13643SOL     OW52990   4.374   4.065   6.000
13643SOL    HW152991   4.276   4.059   5.980
13643SOL    HW252992   4.393   4.022   6.088
13644SOL     OW52993   4.897   4.504   6.952
13644SOL    HW152994   4.996   4.513   6.942
13644SOL    HW252995   4.853   4.506   6.862
13645SOL     OW52996   4.391   4.464   6.354
13645SOL    HW152997   4.413   4.386   6.412
13645SOL    HW252998   4.400   4.438   6.258
13646SOL     OW52999   4.786   5.172   8.074
13646SOL    HW153000   4.877   5.206   8.097
13646SOL    HW253001   4.758   5.210   7.986
13647SOL     OW53002   5.377   4.250   8.796
13647SOL    HW153003   5.279   4.242   8.818
13647SOL    HW253004   5.430   4.239   8.880
13648SOL     OW53005   4.044   3.887   7.401
13648SOL    HW153006   3.957   3.884   7.352
13648SOL    HW253007   4.095   3.969   7.373
13649SOL     OW53008   5.031   5.276   8.176
13649SOL    HW153009   5.020   5.373   8.199
13649SOL    HW253010   5.124   5.259   8.146
13650SOL     OW53011   4.909   3.787   8.734
13650SOL    HW153012   4.833   3.742   8.781
13650SOL    HW253013   4.938   3.732   8.656
13651SOL     OW53014   4.647   4.567   9.111
13651SOL    HW153015   4.612   4.542   9.021
13651SOL    HW253016   4.571   4.588   9.172
13652SOL     OW53017   4.272   3.774   7.527
13652SOL    HW153018   4.360   3.802   7.488
13652SOL    HW253019   4.200   3.837   7.497
13653SOL     OW53020   5.242   4.759   8.910
13653SOL    HW153021   5.150   4.764   8.872
13653SOL    HW253022   5.307   4.797   8.844
13654SOL     OW53023   5.142   4.766   8.591
13654SOL    HW153024   5.067   4.755   8.656
13654SOL    HW253025   5.179   4.859   8.597
13655SOL     OW53026   4.638   5.021   8.891
13655SOL    HW153027   4.581   5.084   8.837
13655SOL    HW253028   4.671   4.947   8.832
13656SOL     OW53029   4.408   4.320   7.931
13656SOL    HW153030   4.447   4.390   7.872
13656SOL    HW253031   4.382   4.240   7.877
13657SOL     OW53032   4.262   4.039   8.394
13657SOL    HW153033   4.338   4.104   8.390
13657SOL    HW253034   4.292   3.950   8.361
13658SOL     OW53035   4.545   5.410   7.989
13658SOL    HW153036   4.610   5.343   7.953
13658SOL    HW253037   4.535   5.486   7.925
13659SOL     OW53038   5.437   5.292   7.731
13659SOL    HW153039   5.533   5.266   7.724
13659SOL    HW253040   5.413   5.352   7.655
13660SOL     OW53041   5.349   3.985   8.502
13660SOL    HW153042   5.400   4.057   8.455
13660SOL    HW253043   5.254   4.012   8.511
13661SOL     OW53044   4.749   4.014   7.771
13661SOL    HW153045   4.774   4.108   7.792
13661SOL    HW253046   4.750   3.960   7.855
13662SOL     OW53047   3.873   4.727   8.956
13662SOL    HW153048   3.969   4.742   8.974
13662SOL    HW253049   3.835   4.665   9.025
13663SOL     OW53050   4.199   4.372   7.499
13663SOL    HW153051   4.159   4.451   7.452
13663SOL    HW253052   4.288   4.351   7.459
13664SOL     OW53053   4.372   5.296   8.197
13664SOL    HW153054   4.445   5.319   8.133
13664SOL    HW253055   4.301   5.243   8.151
13665SOL     OW53056   4.714   4.328   8.951
13665SOL    HW153057   4.747   4.245   8.998
13665SOL    HW253058   4.787   4.396   8.950
13666SOL     OW53059   5.318   5.128   8.173
13666SOL    HW153060   5.314   5.163   8.266
13666SOL    HW253061   5.377   5.187   8.117
13667SOL     OW53062   4.907   4.004   7.560
13667SOL    HW153063   5.001   3.974   7.578
13667SOL    HW253064   4.855   4.004   7.646
13668SOL     OW53065   4.059   4.209   8.655
13668SOL    HW153066   4.049   4.122   8.607
13668SOL    HW253067   3.995   4.276   8.618
13669SOL     OW53068   5.141   4.489   8.693
13669SOL    HW153069   5.145   4.583   8.658
13669SOL    HW253070   5.234   4.458   8.715
13670SOL     OW53071   5.222   5.508   8.726
13670SOL    HW153072   5.165   5.459   8.660
13670SOL    HW253073   5.308   5.535   8.683
13671SOL     OW53074   5.517   4.226   8.581
13671SOL    HW153075   5.574   4.308   8.583
13671SOL    HW253076   5.458   4.225   8.661
13672SOL     OW53077   5.534   5.452   8.494
13672SOL    HW153078   5.580   5.462   8.582
13672SOL    HW253079   5.601   5.455   8.421
13673SOL     OW53080   4.647   4.192   8.056
13673SOL    HW153081   4.723   4.220   8.115
13673SOL    HW253082   4.603   4.272   8.017
13674SOL     OW53083   4.882   4.656   7.573
13674SOL    HW153084   4.919   4.606   7.651
13674SOL    HW253085   4.812   4.601   7.528
13675SOL     OW53086   5.465   4.325   7.652
13675SOL    HW153087   5.486   4.244   7.598
13675SOL    HW253088   5.482   4.306   7.749
13676SOL     OW53089   4.440   3.730   9.092
13676SOL    HW153090   4.447   3.636   9.059
13676SOL    HW253091   4.497   3.740   9.174
13677SOL     OW53092   5.363   4.331   8.360
13677SOL    HW153093   5.348   4.422   8.397
13677SOL    HW253094   5.433   4.284   8.414
13678SOL     OW53095   4.773   4.997   9.126
13678SOL    HW153096   4.795   4.907   9.088
13678SOL    HW253097   4.708   5.044   9.067
13679SOL     OW53098   4.428   4.839   9.130
13679SOL    HW153099   4.399   4.916   9.187
13679SOL    HW253100   4.438   4.758   9.188
13680SOL     OW53101   5.063   3.703   8.236
13680SOL    HW153102   5.012   3.787   8.218
13680SOL    HW253103   5.149   3.705   8.185
13681SOL     OW53104   5.418   3.909   9.165
13681SOL    HW153105   5.395   3.930   9.260
13681SOL    HW253106   5.394   3.814   9.145
13682SOL     OW53107   4.026   3.949   8.564
13682SOL    HW153108   3.991   3.856   8.564
13682SOL    HW253109   4.113   3.952   8.515
13683SOL     OW53110   4.693   4.571   8.304
13683SOL    HW153111   4.719   4.651   8.250
13683SOL    HW253112   4.687   4.491   8.244
13684SOL     OW53113   3.894   5.198   7.763
13684SOL    HW153114   3.921   5.104   7.783
13684SOL    HW253115   3.919   5.220   7.669
13685SOL     OW53116   5.176   5.067   8.637
13685SOL    HW153117   5.147   5.104   8.548
13685SOL    HW253118   5.098   5.067   8.699
13686SOL     OW53119   3.908   5.341   8.000
13686SOL    HW153120   3.824   5.392   8.018
13686SOL    HW253121   3.899   5.290   7.915
13687SOL     OW53122   5.429   5.138   8.675
13687SOL    HW153123   5.460   5.152   8.769
13687SOL    HW253124   5.330   5.125   8.674
13688SOL     OW53125   4.181   4.638   7.402
13688SOL    HW153126   4.150   4.672   7.314
13688SOL    HW253127   4.185   4.713   7.468
13689SOL     OW53128   4.698   4.825   8.701
13689SOL    HW153129   4.748   4.740   8.685
13689SOL    HW253130   4.652   4.852   8.616
13690SOL     OW53131   4.553   5.515   8.423
13690SOL    HW153132   4.599   5.448   8.365
13690SOL    HW253133   4.479   5.471   8.473
13691SOL     OW53134   4.460   4.584   7.459
13691SOL    HW153135   4.489   4.503   7.510
13691SOL    HW253136   4.360   4.583   7.450
13692SOL     OW53137   5.056   4.116   7.805
13692SOL    HW153138   4.993   4.174   7.753
13692SOL    HW253139   5.149   4.150   7.793
13693SOL     OW53140   3.953   4.317   8.905
13693SOL    HW153141   3.973   4.222   8.880
13693SOL    HW253142   3.916   4.320   8.998
13694SOL     OW53143   3.835   3.972   8.795
13694SOL    HW153144   3.907   3.982   8.726
13694SOL    HW253145   3.746   3.971   8.750
13695SOL     OW53146   4.733   4.593   8.560
13695SOL    HW153147   4.727   4.579   8.461
13695SOL    HW253148   4.652   4.554   8.604
13696SOL     OW53149   5.324   4.127   7.875
13696SOL    HW153150   5.420   4.098   7.872
13696SOL    HW253151   5.285   4.105   7.964
13697SOL     OW53152   4.608   5.202   8.312
13697SOL    HW153153   4.666   5.213   8.231
13697SOL    HW253154   4.514   5.226   8.290
13698SOL     OW53155   4.558   4.068   7.597
13698SOL    HW153156   4.467   4.081   7.635
13698SOL    HW253157   4.618   4.028   7.667
13699SOL     OW53158   5.420   5.308   8.017
13699SOL    HW153159   5.387   5.401   8.036
13699SOL    HW253160   5.418   5.292   7.918
13700SOL     OW53161   4.583   5.307   9.030
13700SOL    HW153162   4.571   5.238   8.959
13700SOL    HW253163   4.546   5.272   9.117
13701SOL     OW53164   5.027   4.621   8.209
13701SOL    HW153165   5.048   4.563   8.287
13701SOL    HW253166   5.036   4.717   8.235
13702SOL     OW53167   4.920   5.086   8.793
13702SOL    HW153168   4.953   5.171   8.834
13702SOL    HW253169   4.821   5.082   8.800
13703SOL     OW53170   5.350   5.501   7.548
13703SOL    HW153171   5.440   5.545   7.550
13703SOL    HW253172   5.349   5.432   7.476
13704SOL     OW53173   4.514   4.468   8.706
13704SOL    HW153174   4.516   4.554   8.757
13704SOL    HW253175   4.571   4.400   8.753
13705SOL     OW53176   3.751   5.495   8.777
13705SOL    HW153177   3.759   5.595   8.775
13705SOL    HW253178   3.727   5.466   8.870
13706SOL     OW53179   4.532   4.514   7.771
13706SOL    HW153180   4.443   4.542   7.736
13706SOL    HW253181   4.573   4.448   7.707
13707SOL     OW53182   4.054   4.232   8.310
13707SOL    HW153183   4.110   4.225   8.227
13707SOL    HW253184   4.111   4.210   8.390
13708SOL     OW53185   4.051   5.430   7.581
13708SOL    HW153186   4.143   5.460   7.556
13708SOL    HW253187   4.026   5.469   7.670
13709SOL     OW53188   5.027   5.452   8.518
13709SOL    HW153189   5.046   5.515   8.444
13709SOL    HW253190   5.035   5.358   8.485
13710SOL     OW53191   3.732   4.847   8.330
13710SOL    HW153192   3.642   4.863   8.291
13710SOL    HW253193   3.730   4.763   8.385
13711SOL     OW53194   4.483   3.752   7.780
13711SOL    HW153195   4.444   3.741   7.689
13711SOL    HW253196   4.439   3.828   7.827
13712SOL     OW53197   5.258   4.016   8.958
13712SOL    HW153198   5.197   4.094   8.955
13712SOL    HW253199   5.313   4.020   9.041
13713SOL     OW53200   4.974   3.962   8.249
13713SOL    HW153201   4.973   4.040   8.186
13713SOL    HW253202   5.017   3.989   8.335
13714SOL     OW53203   5.094   3.768   7.545
13714SOL    HW153204   5.174   3.708   7.542
13714SOL    HW253205   5.020   3.721   7.593
13715SOL     OW53206   5.307   3.740   8.979
13715SOL    HW153207   5.333   3.697   8.893
13715SOL    HW253208   5.257   3.824   8.961
13716SOL     OW53209   4.409   3.999   8.111
13716SOL    HW153210   4.398   3.941   8.192
13716SOL    HW253211   4.494   4.051   8.119
13717SOL     OW53212   4.989   4.350   8.503
13717SOL    HW153213   5.043   4.390   8.429
13717SOL    HW253214   5.027   4.379   8.591
13718SOL     OW53215   5.282   3.756   7.819
13718SOL    HW153216   5.289   3.710   7.731
13718SOL    HW253217   5.186   3.766   7.844
13719SOL     OW53218   4.258   5.071   9.182
13719SOL    HW153219   4.219   5.134   9.115
13719SOL    HW253220   4.341   5.111   9.222
13720SOL     OW53221   4.134   4.803   9.014
13720SOL    HW153222   4.153   4.827   8.919
13720SOL    HW253223   4.127   4.886   9.069
13721SOL     OW53224   3.795   5.093   8.488
13721SOL    HW153225   3.764   5.019   8.429
13721SOL    HW253226   3.727   5.111   8.559
13722SOL     OW53227   4.881   4.294   8.221
13722SOL    HW153228   4.963   4.271   8.169
13722SOL    HW253229   4.876   4.235   8.302
13723SOL     OW53230   5.481   4.321   9.057
13723SOL    HW153231   5.470   4.407   9.006
13723SOL    HW253232   5.575   4.312   9.087
13724SOL     OW53233   5.052   4.094   8.476
13724SOL    HW153234   5.026   4.191   8.482
13724SOL    HW253235   5.052   4.054   8.568
13725SOL     OW53236   5.282   4.226   9.227
13725SOL    HW153237   5.362   4.251   9.171
13725SOL    HW253238   5.313   4.191   9.315
13726SOL     OW53239   5.290   4.625   8.027
13726SOL    HW153240   5.304   4.588   7.934
13726SOL    HW253241   5.201   4.595   8.061
13727SOL     OW53242   5.446   4.562   8.922
13727SOL    HW153243   5.348   4.583   8.924
13727SOL    HW253244   5.495   4.638   8.881
13728SOL     OW53245   5.300   3.982   7.601
13728SOL    HW153246   5.305   4.024   7.692
13728SOL    HW253247   5.233   3.907   7.603
13729SOL     OW53248   4.447   5.197   8.821
13729SOL    HW153249   4.384   5.275   8.828
13729SOL    HW253250   4.415   5.135   8.749
13730SOL     OW53251   3.838   3.992   9.086
13730SOL    HW153252   3.856   3.981   8.988
13730SOL    HW253253   3.740   3.988   9.103
13731SOL     OW53254   3.718   5.406   9.030
13731SOL    HW153255   3.790   5.392   9.098
13731SOL    HW253256   3.629   5.409   9.075
13732SOL     OW53257   3.886   4.062   8.054
13732SOL    HW153258   3.829   4.117   8.115
13732SOL    HW253259   3.956   4.014   8.107
13733SOL     OW53260   5.058   5.294   8.917
13733SOL    HW153261   5.011   5.362   8.972
13733SOL    HW253262   5.125   5.340   8.858
13734SOL     OW53263   5.409   3.915   8.755
13734SOL    HW153264   5.365   3.963   8.831
13734SOL    HW253265   5.387   3.961   8.669
13735SOL     OW53266   4.138   5.516   8.118
13735SOL    HW153267   4.062   5.482   8.063
13735SOL    HW253268   4.224   5.479   8.083
13736SOL     OW53269   4.063   5.025   8.563
13736SOL    HW153270   4.075   5.041   8.660
13736SOL    HW253271   3.976   5.065   8.533
13737SOL     OW53272   4.947   5.229   9.209
13737SOL    HW153273   4.906   5.144   9.175
13737SOL    HW253274   4.927   5.303   9.145
13738SOL     OW53275   4.069   4.500   8.101
13738SOL    HW153276   4.061   4.598   8.119
13738SOL    HW253277   4.153   4.466   8.142
13739SOL     OW53278   3.768   4.232   8.227
13739SOL    HW153279   3.732   4.325   8.219
13739SOL    HW253280   3.851   4.233   8.283
13740SOL     OW53281   4.829   4.411   7.429
13740SOL    HW153282   4.760   4.468   7.385
13740SOL    HW253283   4.910   4.405   7.370
13741SOL     OW53284   4.564   4.330   7.572
13741SOL    HW153285   4.654   4.331   7.527
13741SOL    HW253286   4.541   4.236   7.597
13742SOL     OW53287   5.015   3.847   7.866
13742SOL    HW153288   4.925   3.831   7.907
13742SOL    HW253289   5.023   3.943   7.840
13743SOL     OW53290   5.129   4.247   8.882
13743SOL    HW153291   5.081   4.270   8.966
13743SOL    HW253292   5.063   4.217   8.813
13744SOL     OW53293   3.764   3.762   7.526
13744SOL    HW153294   3.827   3.685   7.534
13744SOL    HW253295   3.784   3.830   7.597
13745SOL     OW53296   4.037   4.737   8.527
13745SOL    HW153297   4.048   4.692   8.616
13745SOL    HW253298   4.064   4.833   8.534
13746SOL     OW53299   5.336   4.749   7.627
13746SOL    HW153300   5.407   4.819   7.629
13746SOL    HW253301   5.323   4.719   7.532
13747SOL     OW53302   4.318   4.350   8.549
13747SOL    HW153303   4.393   4.393   8.598
13747SOL    HW253304   4.251   4.315   8.615
13748SOL     OW53305   4.461   4.719   8.866
13748SOL    HW153306   4.530   4.771   8.816
13748SOL    HW253307   4.456   4.752   8.961
13749SOL     OW53308   4.853   4.740   9.026
13749SOL    HW153309   4.775   4.686   9.059
13749SOL    HW253310   4.934   4.718   9.081
13750SOL     OW53311   4.782   3.922   8.022
13750SOL    HW153312   4.841   3.982   8.077
13750SOL    HW253313   4.709   3.886   8.079
13751SOL     OW53314   4.892   5.454   9.062
13751SOL    HW153315   4.797   5.452   9.030
13751SOL    HW253316   4.913   5.545   9.099
13752SOL     OW53317   4.310   3.799   8.293
13752SOL    HW153318   4.238   3.732   8.279
13752SOL    HW253319   4.392   3.753   8.328
13753SOL     OW53320   4.010   5.464   8.660
13753SOL    HW153321   3.990   5.446   8.564
13753SOL    HW253322   3.937   5.426   8.717
13754SOL     OW53323   4.703   4.928   8.205
13754SOL    HW153324   4.742   4.971   8.124
13754SOL    HW253325   4.776   4.911   8.272
13755SOL     OW53326   4.397   4.656   8.407
13755SOL    HW153327   4.395   4.572   8.352
13755SOL    HW253328   4.346   4.642   8.492
13756SOL     OW53329   3.736   4.666   8.533
13756SOL    HW153330   3.825   4.644   8.573
13756SOL    HW253331   3.681   4.582   8.529
13757SOL     OW53332   4.380   4.328   9.141
13757SOL    HW153333   4.332   4.379   9.070
13757SOL    HW253334   4.473   4.307   9.111
13758SOL     OW53335   5.483   3.910   8.234
13758SOL    HW153336   5.438   3.892   8.321
13758SOL    HW253337   5.581   3.927   8.250
13759SOL     OW53338   4.531   4.886   8.486
13759SOL    HW153339   4.482   4.801   8.467
13759SOL    HW253340   4.601   4.901   8.417
13760SOL     OW53341   4.869   4.309   7.695
13760SOL    HW153342   4.921   4.381   7.741
13760SOL    HW253343   4.882   4.316   7.597
13761SOL     OW53344   5.230   5.124   9.022
13761SOL    HW153345   5.215   5.026   9.036
13761SOL    HW253346   5.147   5.166   8.986
13762SOL     OW53347   3.987   4.566   8.762
13762SOL    HW153348   3.951   4.476   8.788
13762SOL    HW253349   3.948   4.636   8.822
13763SOL     OW53350   4.307   5.399   8.454
13763SOL    HW153351   4.327   5.369   8.361
13763SOL    HW253352   4.232   5.344   8.491
13764SOL     OW53353   3.755   4.621   9.167
13764SOL    HW153354   3.670   4.572   9.148
13764SOL    HW253355   3.782   4.608   9.262
13765SOL     OW53356   4.652   5.530   8.873
13765SOL    HW153357   4.624   5.443   8.914
13765SOL    HW253358   4.596   5.604   8.910
13766SOL     OW53359   4.881   4.877   8.403
13766SOL    HW153360   4.865   4.971   8.434
13766SOL    HW253361   4.884   4.816   8.483
13767SOL     OW53362   4.155   4.148   9.167
13767SOL    HW153363   4.191   4.095   9.090
13767SOL    HW253364   4.216   4.225   9.185
13768SOL     OW53365   4.219   4.565   7.739
13768SOL    HW153366   4.169   4.630   7.683
13768SOL    HW253367   4.161   4.486   7.758
13769SOL     OW53368   5.300   4.596   8.437
13769SOL    HW153369   5.319   4.635   8.346
13769SOL    HW253370   5.254   4.665   8.493
13770SOL     OW53371   4.992   4.039   8.733
13770SOL    HW153372   5.063   4.011   8.797
13770SOL    HW253373   4.939   3.959   8.705
13771SOL     OW53374   4.130   5.258   9.000
13771SOL    HW153375   4.072   5.323   9.049
13771SOL    HW253376   4.192   5.308   8.940
13772SOL     OW53377   5.486   5.145   8.941
13772SOL    HW153378   5.514   5.238   8.963
13772SOL    HW253379   5.393   5.129   8.974
13773SOL     OW53380   4.736   4.258   8.491
13773SOL    HW153381   4.822   4.309   8.490
13773SOL    HW253382   4.742   4.184   8.558
13774SOL     OW53383   4.140   5.204   8.063
13774SOL    HW153384   4.138   5.105   8.076
13774SOL    HW253385   4.049   5.237   8.040
13775SOL     OW53386   4.781   5.321   8.651
13775SOL    HW153387   4.707   5.385   8.669
13775SOL    HW253388   4.860   5.370   8.613
13776SOL     OW53389   3.990   5.451   9.150
13776SOL    HW153390   4.033   5.535   9.116
13776SOL    HW253391   4.015   5.438   9.246
13777SOL     OW53392   3.850   4.987   9.021
13777SOL    HW153393   3.829   4.892   8.994
13777SOL    HW253394   3.781   5.048   8.983
13778SOL     OW53395   3.939   5.352   8.425
13778SOL    HW153396   3.881   5.272   8.439
13778SOL    HW253397   3.963   5.359   8.328
13779SOL     OW53398   4.685   3.873   8.280
13779SOL    HW153399   4.781   3.874   8.308
13779SOL    HW253400   4.630   3.830   8.352
13780SOL     OW53401   5.338   4.146   8.160
13780SOL    HW153402   5.357   4.232   8.207
13780SOL    HW253403   5.406   4.077   8.188
13781SOL     OW53404   4.552   3.794   7.498
13781SOL    HW153405   4.627   3.728   7.510
13781SOL    HW253406   4.583   3.885   7.526
13782SOL     OW53407   4.231   4.223   8.110
13782SOL    HW153408   4.269   4.134   8.136
13782SOL    HW253409   4.298   4.273   8.055
13783SOL     OW53410   4.219   4.781   8.764
13783SOL    HW153411   4.315   4.761   8.784
13783SOL    HW253412   4.208   4.879   8.746
13784SOL     OW53413   5.441   4.824   8.733
13784SOL    HW153414   5.455   4.922   8.747
13784SOL    HW253415   5.498   4.793   8.657
13785SOL     OW53416   3.924   4.933   7.425
13785SOL    HW153417   3.916   4.945   7.326
13785SOL    HW253418   3.983   5.004   7.463
13786SOL     OW53419   4.351   5.372   7.585
13786SOL    HW153420   4.326   5.467   7.569
13786SOL    HW253421   4.318   5.344   7.675
13787SOL     OW53422   5.001   4.795   8.809
13787SOL    HW153423   4.945   4.754   8.880
13787SOL    HW253424   4.981   4.893   8.803
13788SOL     OW53425   4.268   5.411   8.809
13788SOL    HW153426   4.317   5.491   8.773
13788SOL    HW253427   4.176   5.409   8.770
13789SOL     OW53428   3.911   4.292   9.171
13789SOL    HW153429   3.928   4.193   9.176
13789SOL    HW253430   3.975   4.340   9.232
13790SOL     OW53431   5.350   5.253   8.410
13790SOL    HW153432   5.322   5.346   8.434
13790SOL    HW253433   5.400   5.212   8.486
13791SOL     OW53434   4.255   4.424   8.909
13791SOL    HW153435   4.161   4.394   8.890
13791SOL    HW253436   4.264   4.521   8.886
13792SOL     OW53437   5.322   4.800   8.221
13792SOL    HW153438   5.284   4.889   8.194
13792SOL    HW253439   5.322   4.738   8.143
13793SOL     OW53440   4.480   4.206   8.390
13793SOL    HW153441   4.572   4.234   8.417
13793SOL    HW253442   4.412   4.257   8.444
13794SOL     OW53443   4.333   5.057   8.617
13794SOL    HW153444   4.246   5.056   8.568
13794SOL    HW253445   4.399   4.997   8.570
13795SOL     OW53446   3.899   4.399   8.531
13795SOL    HW153447   3.937   4.458   8.602
13795SOL    HW253448   3.882   4.452   8.449
13796SOL     OW53449   4.070   5.045   8.829
13796SOL    HW153450   4.089   5.133   8.873
13796SOL    HW253451   3.975   5.019   8.847
13797SOL     OW53452   5.313   5.361   9.177
13797SOL    HW153453   5.282   5.283   9.122
13797SOL    HW253454   5.282   5.446   9.135
13798SOL     OW53455   4.374   4.065   7.846
13798SOL    HW153456   4.276   4.059   7.826
13798SOL    HW253457   4.393   4.022   7.934
13799SOL     OW53458   5.294   3.748   8.105
13799SOL    HW153459   5.289   3.789   8.014
13799SOL    HW253460   5.375   3.782   8.152
13800SOL     OW53461   4.897   4.504   8.798
13800SOL    HW153462   4.996   4.513   8.788
13800SOL    HW253463   4.853   4.506   8.708
13801SOL     OW53464   4.391   4.464   8.200
13801SOL    HW153465   4.413   4.386   8.258
13801SOL    HW253466   4.400   4.438   8.104
13802SOL     OW53467   5.056   5.171   8.412
13802SOL    HW153468   4.970   5.128   8.441
13802SOL    HW253469   5.045   5.211   8.321
13803SOL     OW53470   5.059   4.156   8.087
13803SOL    HW153471   5.058   4.148   7.988
13803SOL    HW253472   5.148   4.128   8.122
13804SOL     OW53473   4.786   5.172   9.919
13804SOL    HW153474   4.877   5.206   9.942
13804SOL    HW253475   4.758   5.210   9.831
13805SOL     OW53476   5.297   4.968   9.777
13805SOL    HW153477   5.308   5.052   9.831
13805SOL    HW253478   5.387   4.931   9.754
13806SOL     OW53479   4.044   3.887   9.246
13806SOL    HW153480   3.957   3.884   9.197
13806SOL    HW253481   4.095   3.969   9.218
13807SOL     OW53482   4.254   5.241   9.650
13807SOL    HW153483   4.210   5.250   9.739
13807SOL    HW253484   4.325   5.171   9.654
13808SOL     OW53485   4.272   3.774   9.372
13808SOL    HW153486   4.360   3.802   9.333
13808SOL    HW253487   4.200   3.837   9.342
13809SOL     OW53488   4.181   4.914   9.945
13809SOL    HW153489   4.114   4.868  10.004
13809SOL    HW253490   4.273   4.882   9.968
13810SOL     OW53491   4.408   4.320   9.776
13810SOL    HW153492   4.447   4.390   9.717
13810SOL    HW253493   4.382   4.240   9.722
13811SOL     OW53494   4.111   5.083   9.429
13811SOL    HW153495   4.175   5.099   9.354
13811SOL    HW253496   4.135   5.141   9.507
13812SOL     OW53497   3.959   4.465   9.657
13812SOL    HW153498   3.974   4.399   9.731
13812SOL    HW253499   3.909   4.544   9.692
13813SOL     OW53500   4.545   5.410   9.834
13813SOL    HW153501   4.610   5.343   9.798
13813SOL    HW253502   4.535   5.486   9.770
13814SOL     OW53503   5.437   5.292   9.576
13814SOL    HW153504   5.533   5.266   9.569
13814SOL    HW253505   5.413   5.352   9.500
13815SOL     OW53506   4.749   4.014   9.616
13815SOL    HW153507   4.774   4.108   9.637
13815SOL    HW253508   4.750   3.960   9.700
13816SOL     OW53509   4.199   4.372   9.344
13816SOL    HW153510   4.159   4.451   9.297
13816SOL    HW253511   4.288   4.351   9.304
13817SOL     OW53512   5.318   5.128  10.018
13817SOL    HW153513   5.314   5.163  10.111
13817SOL    HW253514   5.377   5.187   9.962
13818SOL     OW53515   4.049   4.949   9.694
13818SOL    HW153516   4.095   4.923   9.779
13818SOL    HW253517   4.069   4.881   9.623
13819SOL     OW53518   4.094   3.981   9.659
13819SOL    HW153519   4.048   4.021   9.738
13819SOL    HW253520   4.042   4.000   9.577
13820SOL     OW53521   5.534   5.452  10.339
13820SOL    HW153522   5.580   5.462  10.427
13820SOL    HW253523   5.601   5.455  10.266
13821SOL     OW53524   4.647   4.192   9.901
13821SOL    HW153525   4.723   4.220   9.960
13821SOL    HW253526   4.603   4.272   9.862
13822SOL     OW53527   4.882   4.656   9.418
13822SOL    HW153528   4.919   4.606   9.496
13822SOL    HW253529   4.812   4.601   9.373
13823SOL     OW53530   5.465   4.325   9.497
13823SOL    HW153531   5.486   4.244   9.443
13823SOL    HW253532   5.482   4.306   9.594
13824SOL     OW53533   4.759   5.463   9.405
13824SOL    HW153534   4.793   5.376   9.370
13824SOL    HW253535   4.727   5.451   9.499
13825SOL     OW53536   3.721   4.313   9.754
13825SOL    HW153537   3.723   4.264   9.841
13825SOL    HW253538   3.723   4.412   9.772
13826SOL     OW53539   3.894   5.198   9.608
13826SOL    HW153540   3.921   5.104   9.628
13826SOL    HW253541   3.919   5.220   9.514
13827SOL     OW53542   3.908   5.341   9.845
13827SOL    HW153543   3.824   5.392   9.863
13827SOL    HW253544   3.899   5.290   9.760
13828SOL     OW53545   4.181   4.638   9.247
13828SOL    HW153546   4.150   4.672   9.159
13828SOL    HW253547   4.185   4.713   9.313
13829SOL     OW53548   3.785   4.530   9.420
13829SOL    HW153549   3.845   4.477   9.480
13829SOL    HW253550   3.691   4.498   9.432
13830SOL     OW53551   5.305   4.528   9.620
13830SOL    HW153552   5.373   4.462   9.587
13830SOL    HW253553   5.320   4.616   9.576
13831SOL     OW53554   4.460   4.584   9.304
13831SOL    HW153555   4.489   4.503   9.355
13831SOL    HW253556   4.360   4.583   9.295
13832SOL     OW53557   5.056   4.116   9.650
13832SOL    HW153558   4.993   4.174   9.598
13832SOL    HW253559   5.149   4.150   9.638
13833SOL     OW53560   5.324   4.127   9.720
13833SOL    HW153561   5.420   4.098   9.717
13833SOL    HW253562   5.285   4.105   9.809
13834SOL     OW53563   4.558   4.068   9.442
13834SOL    HW153564   4.467   4.081   9.480
13834SOL    HW253565   4.618   4.028   9.512
13835SOL     OW53566   4.669   5.013   9.377
13835SOL    HW153567   4.722   4.953   9.437
13835SOL    HW253568   4.708   5.014   9.286
13836SOL     OW53569   5.420   5.308   9.862
13836SOL    HW153570   5.387   5.401   9.881
13836SOL    HW253571   5.418   5.292   9.763
13837SOL     OW53572   4.835   4.581   9.851
13837SOL    HW153573   4.900   4.609   9.922
13837SOL    HW253574   4.756   4.642   9.853
13838SOL     OW53575   5.027   4.621  10.054
13838SOL    HW153576   5.048   4.563  10.132
13838SOL    HW253577   5.036   4.717  10.080
13839SOL     OW53578   4.616   4.698   9.799
13839SOL    HW153579   4.603   4.609   9.756
13839SOL    HW253580   4.547   4.712   9.870
13840SOL     OW53581   3.727   4.003   9.702
13840SOL    HW153582   3.787   3.954   9.640
13840SOL    HW253583   3.782   4.055   9.767
13841SOL     OW53584   5.350   5.501   9.393
13841SOL    HW153585   5.440   5.545   9.395
13841SOL    HW253586   5.349   5.432   9.321
13842SOL     OW53587   4.532   4.514   9.616
13842SOL    HW153588   4.443   4.542   9.581
13842SOL    HW253589   4.573   4.448   9.552
13843SOL     OW53590   4.051   5.430   9.426
13843SOL    HW153591   4.143   5.460   9.401
13843SOL    HW253592   4.026   5.469   9.515
13844SOL     OW53593   4.483   3.752   9.625
13844SOL    HW153594   4.444   3.741   9.534
13844SOL    HW253595   4.439   3.828   9.672
13845SOL     OW53596   3.728   4.888   9.719
13845SOL    HW153597   3.806   4.946   9.743
13845SOL    HW253598   3.747   4.839   9.634
13846SOL     OW53599   4.409   3.999   9.956
13846SOL    HW153600   4.398   3.941  10.037
13846SOL    HW253601   4.494   4.051   9.964
13847SOL     OW53602   5.282   3.756   9.664
13847SOL    HW153603   5.289   3.710   9.576
13847SOL    HW253604   5.186   3.766   9.689
13848SOL     OW53605   4.993   4.529   9.652
13848SOL    HW153606   4.939   4.527   9.736
13848SOL    HW253607   5.070   4.592   9.663
13849SOL     OW53608   5.290   4.625   9.872
13849SOL    HW153609   5.304   4.588   9.779
13849SOL    HW253610   5.201   4.595   9.906
13850SOL     OW53611   5.300   3.982   9.446
13850SOL    HW153612   5.305   4.024   9.537
13850SOL    HW253613   5.233   3.907   9.448
13851SOL     OW53614   4.023   4.253   9.497
13851SOL    HW153615   4.095   4.282   9.434
13851SOL    HW253616   3.979   4.333   9.537
13852SOL     OW53617   4.138   5.516   9.963
13852SOL    HW153618   4.062   5.482   9.908
13852SOL    HW253619   4.224   5.479   9.928
13853SOL     OW53620   4.437   4.949   9.744
13853SOL    HW153621   4.480   4.880   9.686
13853SOL    HW253622   4.401   4.906   9.827
13854SOL     OW53623   3.915   3.980   9.461
13854SOL    HW153624   3.959   3.949   9.378
13854SOL    HW253625   3.916   4.080   9.465
13855SOL     OW53626   3.768   4.232  10.072
13855SOL    HW153627   3.732   4.325  10.064
13855SOL    HW253628   3.851   4.233  10.128
13856SOL     OW53629   4.203   4.819   9.458
13856SOL    HW153630   4.303   4.819   9.469
13856SOL    HW253631   4.172   4.912   9.437
13857SOL     OW53632   4.829   4.411   9.274
13857SOL    HW153633   4.760   4.468   9.230
13857SOL    HW253634   4.910   4.405   9.215
13858SOL     OW53635   4.564   4.330   9.417
13858SOL    HW153636   4.654   4.331   9.372
13858SOL    HW253637   4.541   4.236   9.442
13859SOL     OW53638   5.015   3.847   9.711
13859SOL    HW153639   4.925   3.831   9.752
13859SOL    HW253640   5.023   3.943   9.685
13860SOL     OW53641   3.764   3.762   9.371
13860SOL    HW153642   3.827   3.685   9.379
13860SOL    HW253643   3.784   3.830   9.442
13861SOL     OW53644   5.336   4.749   9.472
13861SOL    HW153645   5.407   4.819   9.474
13861SOL    HW253646   5.323   4.719   9.377
13862SOL     OW53647   4.782   3.922   9.867
13862SOL    HW153648   4.841   3.982   9.922
13862SOL    HW253649   4.709   3.886   9.924
13863SOL     OW53650   3.964   3.711   9.658
13863SOL    HW153651   4.002   3.799   9.685
13863SOL    HW253652   3.887   3.687   9.718
13864SOL     OW53653   3.786   4.798   9.478
13864SOL    HW153654   3.776   4.701   9.457
13864SOL    HW253655   3.839   4.843   9.406
13865SOL     OW53656   5.483   3.910  10.079
13865SOL    HW153657   5.438   3.892  10.166
13865SOL    HW253658   5.581   3.927  10.095
13866SOL     OW53659   4.869   4.309   9.540
13866SOL    HW153660   4.921   4.381   9.586
13866SOL    HW253661   4.882   4.316   9.442
13867SOL     OW53662   4.489   5.192   9.265
13867SOL    HW153663   4.464   5.269   9.324
13867SOL    HW253664   4.553   5.132   9.313
13868SOL     OW53665   4.450   4.810  10.016
13868SOL    HW153666   4.539   4.856  10.016
13868SOL    HW253667   4.443   4.750  10.095
13869SOL     OW53668   4.628   5.157   9.685
13869SOL    HW153669   4.678   5.145   9.600
13869SOL    HW253670   4.574   5.074   9.704
13870SOL     OW53671   4.219   4.565   9.584
13870SOL    HW153672   4.169   4.630   9.528
13870SOL    HW253673   4.161   4.486   9.603
13871SOL     OW53674   3.693   3.738   9.779
13871SOL    HW153675   3.606   3.725   9.732
13871SOL    HW253676   3.701   3.833   9.809
13872SOL     OW53677   4.140   5.204   9.908
13872SOL    HW153678   4.138   5.105   9.921
13872SOL    HW253679   4.049   5.237   9.885
13873SOL     OW53680   4.747   4.879   9.641
13873SOL    HW153681   4.827   4.915   9.689
13873SOL    HW253682   4.705   4.806   9.697
13874SOL     OW53683   5.338   4.146  10.005
13874SOL    HW153684   5.357   4.232  10.052
13874SOL    HW253685   5.406   4.077  10.033
13875SOL     OW53686   4.481   4.818   9.491
13875SOL    HW153687   4.553   4.877   9.456
13875SOL    HW253688   4.521   4.734   9.527
13876SOL     OW53689   4.552   3.794   9.343
13876SOL    HW153690   4.627   3.728   9.355
13876SOL    HW253691   4.583   3.885   9.371
13877SOL     OW53692   4.231   4.223   9.955
13877SOL    HW153693   4.269   4.134   9.981
13877SOL    HW253694   4.298   4.273   9.900
13878SOL     OW53695   3.924   4.933   9.270
13878SOL    HW153696   3.916   4.945   9.171
13878SOL    HW253697   3.983   5.004   9.308
13879SOL     OW53698   4.351   5.372   9.430
13879SOL    HW153699   4.326   5.467   9.414
13879SOL    HW253700   4.318   5.344   9.520
13880SOL     OW53701   3.746   4.626   9.816
13880SOL    HW153702   3.753   4.725   9.803
13880SOL    HW253703   3.655   4.603   9.850
13881SOL     OW53704   5.021   4.899   9.743
13881SOL    HW153705   5.120   4.903   9.759
13881SOL    HW253706   5.004   4.885   9.645
13882SOL     OW53707   4.374   4.065   9.691
13882SOL    HW153708   4.276   4.059   9.671
13882SOL    HW253709   4.393   4.022   9.779
13883SOL     OW53710   5.294   3.748   9.950
13883SOL    HW153711   5.289   3.789   9.859
13883SOL    HW253712   5.375   3.782   9.997
13884SOL     OW53713   5.059   4.156   9.932
13884SOL    HW153714   5.058   4.148   9.833
13884SOL    HW253715   5.148   4.128   9.967
13885SOL     OW53716   4.786   7.017   0.692
13885SOL    HW153717   4.877   7.051   0.715
13885SOL    HW253718   4.758   7.055   0.604
13886SOL     OW53719   5.297   6.813   0.550
13886SOL    HW153720   5.308   6.897   0.604
13886SOL    HW253721   5.387   6.776   0.527
13887SOL     OW53722   5.377   6.095   1.414
13887SOL    HW153723   5.279   6.087   1.436
13887SOL    HW253724   5.430   6.084   1.498
13888SOL     OW53725   4.044   5.732   0.019
13888SOL    HW153726   3.957   5.729  -0.030
13888SOL    HW253727   4.095   5.814  -0.009
13889SOL     OW53728   5.031   7.121   0.794
13889SOL    HW153729   5.020   7.218   0.817
13889SOL    HW253730   5.124   7.104   0.764
13890SOL     OW53731   4.909   5.632   1.352
13890SOL    HW153732   4.833   5.587   1.399
13890SOL    HW253733   4.938   5.577   1.274
13891SOL     OW53734   4.647   6.412   1.729
13891SOL    HW153735   4.612   6.387   1.639
13891SOL    HW253736   4.571   6.433   1.790
13892SOL     OW53737   4.254   7.086   0.423
13892SOL    HW153738   4.210   7.095   0.512
13892SOL    HW253739   4.325   7.016   0.427
13893SOL     OW53740   4.272   5.619   0.145
13893SOL    HW153741   4.360   5.647   0.106
13893SOL    HW253742   4.200   5.682   0.115
13894SOL     OW53743   5.242   6.604   1.528
13894SOL    HW153744   5.150   6.609   1.490
13894SOL    HW253745   5.307   6.642   1.462
13895SOL     OW53746   5.142   6.611   1.209
13895SOL    HW153747   5.067   6.600   1.274
13895SOL    HW253748   5.179   6.704   1.215
13896SOL     OW53749   4.638   6.866   1.509
13896SOL    HW153750   4.581   6.929   1.455
13896SOL    HW253751   4.671   6.792   1.450
13897SOL     OW53752   4.181   6.759   0.718
13897SOL    HW153753   4.114   6.713   0.777
13897SOL    HW253754   4.273   6.727   0.741
13898SOL     OW53755   4.408   6.165   0.549
13898SOL    HW153756   4.447   6.235   0.490
13898SOL    HW253757   4.382   6.085   0.495
13899SOL     OW53758   5.028   6.073   1.758
13899SOL    HW153759   5.124   6.077   1.784
13899SOL    HW253760   4.984   5.997   1.805
13900SOL     OW53761   4.262   5.884   1.012
13900SOL    HW153762   4.338   5.949   1.008
13900SOL    HW253763   4.292   5.795   0.979
13901SOL     OW53764   3.959   6.310   0.430
13901SOL    HW153765   3.974   6.244   0.504
13901SOL    HW253766   3.909   6.389   0.465
13902SOL     OW53767   4.545   7.255   0.607
13902SOL    HW153768   4.610   7.188   0.571
13902SOL    HW253769   4.535   7.331   0.543
13903SOL     OW53770   5.437   7.137   0.349
13903SOL    HW153771   5.533   7.111   0.342
13903SOL    HW253772   5.413   7.197   0.273
13904SOL     OW53773   5.349   5.830   1.120
13904SOL    HW153774   5.400   5.902   1.073
13904SOL    HW253775   5.254   5.857   1.129
13905SOL     OW53776   4.749   5.859   0.389
13905SOL    HW153777   4.774   5.953   0.410
13905SOL    HW253778   4.750   5.805   0.473
13906SOL     OW53779   3.873   6.572   1.574
13906SOL    HW153780   3.969   6.587   1.592
13906SOL    HW253781   3.835   6.510   1.643
13907SOL     OW53782   4.199   6.217   0.117
13907SOL    HW153783   4.159   6.296   0.070
13907SOL    HW253784   4.288   6.196   0.077
13908SOL     OW53785   4.372   7.141   0.815
13908SOL    HW153786   4.445   7.164   0.751
13908SOL    HW253787   4.301   7.088   0.769
13909SOL     OW53788   4.714   6.173   1.569
13909SOL    HW153789   4.747   6.090   1.616
13909SOL    HW253790   4.787   6.241   1.568
13910SOL     OW53791   5.318   6.973   0.791
13910SOL    HW153792   5.314   7.008   0.884
13910SOL    HW253793   5.377   7.032   0.735
13911SOL     OW53794   4.049   6.794   0.467
13911SOL    HW153795   4.095   6.768   0.552
13911SOL    HW253796   4.069   6.726   0.396
13912SOL     OW53797   4.907   5.849   0.178
13912SOL    HW153798   5.001   5.819   0.196
13912SOL    HW253799   4.855   5.849   0.264
13913SOL     OW53800   4.059   6.054   1.273
13913SOL    HW153801   4.049   5.967   1.225
13913SOL    HW253802   3.995   6.121   1.236
13914SOL     OW53803   5.141   6.334   1.311
13914SOL    HW153804   5.145   6.428   1.276
13914SOL    HW253805   5.234   6.303   1.333
13915SOL     OW53806   4.094   5.826   0.432
13915SOL    HW153807   4.048   5.866   0.511
13915SOL    HW253808   4.042   5.845   0.350
13916SOL     OW53809   5.222   7.353   1.344
13916SOL    HW153810   5.165   7.304   1.278
13916SOL    HW253811   5.308   7.380   1.301
13917SOL     OW53812   5.517   6.071   1.199
13917SOL    HW153813   5.574   6.153   1.201
13917SOL    HW253814   5.458   6.070   1.279
13918SOL     OW53815   5.534   7.297   1.112
13918SOL    HW153816   5.580   7.307   1.200
13918SOL    HW253817   5.601   7.300   1.039
13919SOL     OW53818   4.647   6.037   0.674
13919SOL    HW153819   4.723   6.065   0.733
13919SOL    HW253820   4.603   6.117   0.635
13920SOL     OW53821   4.882   6.501   0.191
13920SOL    HW153822   4.919   6.451   0.269
13920SOL    HW253823   4.812   6.446   0.146
13921SOL     OW53824   4.724   5.923   1.812
13921SOL    HW153825   4.787   5.928   1.889
13921SOL    HW253826   4.632   5.901   1.845
13922SOL     OW53827   5.465   6.170   0.270
13922SOL    HW153828   5.486   6.089   0.216
13922SOL    HW253829   5.482   6.151   0.367
13923SOL     OW53830   4.759   7.308   0.178
13923SOL    HW153831   4.793   7.221   0.143
13923SOL    HW253832   4.727   7.296   0.272
13924SOL     OW53833   4.440   5.575   1.710
13924SOL    HW153834   4.447   5.481   1.677
13924SOL    HW253835   4.497   5.585   1.792
13925SOL     OW53836   5.363   6.176   0.978
13925SOL    HW153837   5.348   6.267   1.015
13925SOL    HW253838   5.433   6.129   1.032
13926SOL     OW53839   4.773   6.842   1.744
13926SOL    HW153840   4.795   6.752   1.706
13926SOL    HW253841   4.708   6.889   1.685
13927SOL     OW53842   4.428   6.684   1.748
13927SOL    HW153843   4.399   6.761   1.805
13927SOL    HW253844   4.438   6.603   1.806
13928SOL     OW53845   5.063   5.548   0.854
13928SOL    HW153846   5.012   5.632   0.836
13928SOL    HW253847   5.149   5.550   0.803
13929SOL     OW53848   5.418   5.754   1.783
13929SOL    HW153849   5.395   5.775   1.878
13929SOL    HW253850   5.394   5.659   1.763
13930SOL     OW53851   3.721   6.158   0.527
13930SOL    HW153852   3.723   6.109   0.614
13930SOL    HW253853   3.723   6.257   0.545
13931SOL     OW53854   4.042   5.746   0.848
13931SOL    HW153855   4.094   5.786   0.923
13931SOL    HW253856   4.095   5.673   0.805
13932SOL     OW53857   4.026   5.794   1.182
13932SOL    HW153858   3.991   5.701   1.182
13932SOL    HW253859   4.113   5.797   1.133
13933SOL     OW53860   4.693   6.416   0.922
13933SOL    HW153861   4.719   6.496   0.868
13933SOL    HW253862   4.687   6.336   0.862
13934SOL     OW53863   3.894   7.043   0.381
13934SOL    HW153864   3.921   6.949   0.401
13934SOL    HW253865   3.919   7.065   0.287
13935SOL     OW53866   5.176   6.912   1.255
13935SOL    HW153867   5.147   6.949   1.166
13935SOL    HW253868   5.098   6.912   1.317
13936SOL     OW53869   3.908   7.186   0.618
13936SOL    HW153870   3.824   7.237   0.636
13936SOL    HW253871   3.899   7.135   0.533
13937SOL     OW53872   5.429   6.983   1.293
13937SOL    HW153873   5.460   6.997   1.387
13937SOL    HW253874   5.330   6.970   1.292
13938SOL     OW53875   4.181   6.483   0.020
13938SOL    HW153876   4.150   6.517  -0.068
13938SOL    HW253877   4.185   6.558   0.086
13939SOL     OW53878   4.698   6.670   1.319
13939SOL    HW153879   4.748   6.585   1.303
13939SOL    HW253880   4.652   6.697   1.234
13940SOL     OW53881   3.785   6.375   0.193
13940SOL    HW153882   3.845   6.322   0.253
13940SOL    HW253883   3.691   6.343   0.205
13941SOL     OW53884   5.305   6.373   0.393
13941SOL    HW153885   5.373   6.307   0.360
13941SOL    HW253886   5.320   6.461   0.349
13942SOL     OW53887   4.553   7.360   1.041
13942SOL    HW153888   4.599   7.293   0.983
13942SOL    HW253889   4.479   7.316   1.091
13943SOL     OW53890   4.460   6.429   0.077
13943SOL    HW153891   4.489   6.348   0.128
13943SOL    HW253892   4.360   6.428   0.068
13944SOL     OW53893   5.056   5.961   0.423
13944SOL    HW153894   4.993   6.019   0.371
13944SOL    HW253895   5.149   5.995   0.411
13945SOL     OW53896   3.953   6.162   1.523
13945SOL    HW153897   3.973   6.067   1.498
13945SOL    HW253898   3.916   6.165   1.616
13946SOL     OW53899   3.835   5.817   1.413
13946SOL    HW153900   3.907   5.827   1.344
13946SOL    HW253901   3.746   5.816   1.368
13947SOL     OW53902   4.733   6.438   1.178
13947SOL    HW153903   4.727   6.424   1.079
13947SOL    HW253904   4.652   6.399   1.222
13948SOL     OW53905   5.324   5.972   0.493
13948SOL    HW153906   5.420   5.943   0.490
13948SOL    HW253907   5.285   5.950   0.582
13949SOL     OW53908   4.608   7.047   0.930
13949SOL    HW153909   4.666   7.058   0.849
13949SOL    HW253910   4.514   7.071   0.908
13950SOL     OW53911   4.558   5.913   0.215
13950SOL    HW153912   4.467   5.926   0.253
13950SOL    HW253913   4.618   5.873   0.285
13951SOL     OW53914   4.669   6.858   0.150
13951SOL    HW153915   4.722   6.798   0.210
13951SOL    HW253916   4.708   6.859   0.059
13952SOL     OW53917   5.420   7.153   0.635
13952SOL    HW153918   5.387   7.246   0.654
13952SOL    HW253919   5.418   7.137   0.536
13953SOL     OW53920   4.835   6.426   0.624
13953SOL    HW153921   4.900   6.454   0.695
13953SOL    HW253922   4.756   6.487   0.626
13954SOL     OW53923   4.583   7.152   1.648
13954SOL    HW153924   4.571   7.083   1.577
13954SOL    HW253925   4.546   7.117   1.735
13955SOL     OW53926   5.027   6.466   0.827
13955SOL    HW153927   5.048   6.408   0.905
13955SOL    HW253928   5.036   6.562   0.853
13956SOL     OW53929   3.983   6.595   0.873
13956SOL    HW153930   3.906   6.657   0.866
13956SOL    HW253931   4.020   6.596   0.966
13957SOL     OW53932   4.616   6.543   0.572
13957SOL    HW153933   4.603   6.454   0.529
13957SOL    HW253934   4.547   6.557   0.643
13958SOL     OW53935   4.920   6.931   1.411
13958SOL    HW153936   4.953   7.016   1.452
13958SOL    HW253937   4.821   6.927   1.418
13959SOL     OW53938   3.727   5.848   0.475
13959SOL    HW153939   3.787   5.799   0.413
13959SOL    HW253940   3.782   5.900   0.540
13960SOL     OW53941   5.350   7.346   0.166
13960SOL    HW153942   5.440   7.390   0.168
13960SOL    HW253943   5.349   7.277   0.094
13961SOL     OW53944   4.514   6.313   1.324
13961SOL    HW153945   4.516   6.399   1.375
13961SOL    HW253946   4.571   6.245   1.371
13962SOL     OW53947   3.751   7.340   1.395
13962SOL    HW153948   3.759   7.440   1.393
13962SOL    HW253949   3.727   7.311   1.488
13963SOL     OW53950   4.532   6.359   0.389
13963SOL    HW153951   4.443   6.387   0.354
13963SOL    HW253952   4.573   6.293   0.325
13964SOL     OW53953   4.054   6.077   0.928
13964SOL    HW153954   4.110   6.070   0.845
13964SOL    HW253955   4.111   6.055   1.008
13965SOL     OW53956   5.027   7.297   1.136
13965SOL    HW153957   5.046   7.360   1.062
13965SOL    HW253958   5.035   7.203   1.103
13966SOL     OW53959   3.732   6.692   0.948
13966SOL    HW153960   3.642   6.708   0.909
13966SOL    HW253961   3.730   6.608   1.003
13967SOL     OW53962   4.483   5.597   0.398
13967SOL    HW153963   4.444   5.586   0.307
13967SOL    HW253964   4.439   5.673   0.445
13968SOL     OW53965   3.728   6.733   0.492
13968SOL    HW153966   3.806   6.791   0.516
13968SOL    HW253967   3.747   6.684   0.407
13969SOL     OW53968   5.258   5.861   1.576
13969SOL    HW153969   5.197   5.939   1.573
13969SOL    HW253970   5.313   5.865   1.659
13970SOL     OW53971   4.974   5.807   0.867
13970SOL    HW153972   4.973   5.885   0.804
13970SOL    HW253973   5.017   5.834   0.953
13971SOL     OW53974   5.094   5.613   0.163
13971SOL    HW153975   5.174   5.553   0.160
13971SOL    HW253976   5.020   5.566   0.211
13972SOL     OW53977   5.307   5.585   1.597
13972SOL    HW153978   5.333   5.542   1.511
13972SOL    HW253979   5.257   5.669   1.579
13973SOL     OW53980   4.409   5.844   0.729
13973SOL    HW153981   4.398   5.786   0.810
13973SOL    HW253982   4.494   5.896   0.737
13974SOL     OW53983   4.989   6.195   1.121
13974SOL    HW153984   5.043   6.235   1.047
13974SOL    HW253985   5.027   6.224   1.209
13975SOL     OW53986   5.282   5.601   0.437
13975SOL    HW153987   5.289   5.555   0.349
13975SOL    HW253988   5.186   5.611   0.462
13976SOL     OW53989   4.258   6.916   1.800
13976SOL    HW153990   4.219   6.979   1.733
13976SOL    HW253991   4.341   6.956   1.840
13977SOL     OW53992   4.134   6.648   1.632
13977SOL    HW153993   4.153   6.672   1.537
13977SOL    HW253994   4.127   6.731   1.687
13978SOL     OW53995   3.795   6.938   1.106
13978SOL    HW153996   3.764   6.864   1.047
13978SOL    HW253997   3.727   6.956   1.177
13979SOL     OW53998   4.881   6.139   0.839
13979SOL    HW153999   4.963   6.116   0.787
13979SOL    HW254000   4.876   6.080   0.920
13980SOL     OW54001   5.481   6.166   1.675
13980SOL    HW154002   5.470   6.252   1.624
13980SOL    HW254003   5.575   6.157   1.705
13981SOL     OW54004   5.052   5.939   1.094
13981SOL    HW154005   5.026   6.036   1.100
13981SOL    HW254006   5.052   5.899   1.186
13982SOL     OW54007   5.282   6.071   1.845
13982SOL    HW154008   5.362   6.096   1.789
13982SOL    HW254009   5.313   6.036   1.933
13983SOL     OW54010   4.993   6.374   0.425
13983SOL    HW154011   4.939   6.372   0.509
13983SOL    HW254012   5.070   6.437   0.436
13984SOL     OW54013   5.290   6.470   0.645
13984SOL    HW154014   5.304   6.433   0.552
13984SOL    HW254015   5.201   6.440   0.679
13985SOL     OW54016   5.446   6.407   1.540
13985SOL    HW154017   5.348   6.428   1.542
13985SOL    HW254018   5.495   6.483   1.499
13986SOL     OW54019   5.300   5.827   0.219
13986SOL    HW154020   5.305   5.869   0.310
13986SOL    HW254021   5.233   5.752   0.221
13987SOL     OW54022   4.447   7.042   1.439
13987SOL    HW154023   4.384   7.120   1.446
13987SOL    HW254024   4.415   6.980   1.367
13988SOL     OW54025   3.838   5.837   1.704
13988SOL    HW154026   3.856   5.826   1.606
13988SOL    HW254027   3.740   5.833   1.721
13989SOL     OW54028   3.718   7.251   1.648
13989SOL    HW154029   3.790   7.237   1.716
13989SOL    HW254030   3.629   7.254   1.693
13990SOL     OW54031   3.886   5.907   0.672
13990SOL    HW154032   3.829   5.962   0.733
13990SOL    HW254033   3.956   5.859   0.725
13991SOL     OW54034   5.058   7.139   1.535
13991SOL    HW154035   5.011   7.207   1.590
13991SOL    HW254036   5.125   7.185   1.476
13992SOL     OW54037   4.023   6.098   0.270
13992SOL    HW154038   4.095   6.127   0.207
13992SOL    HW254039   3.979   6.178   0.310
13993SOL     OW54040   5.409   5.760   1.373
13993SOL    HW154041   5.365   5.808   1.449
13993SOL    HW254042   5.387   5.806   1.287
13994SOL     OW54043   4.138   7.361   0.736
13994SOL    HW154044   4.062   7.327   0.681
13994SOL    HW254045   4.224   7.324   0.701
13995SOL     OW54046   4.063   6.870   1.181
13995SOL    HW154047   4.075   6.886   1.278
13995SOL    HW254048   3.976   6.910   1.151
13996SOL     OW54049   4.947   7.074   1.827
13996SOL    HW154050   4.906   6.989   1.793
13996SOL    HW254051   4.927   7.148   1.763
13997SOL     OW54052   4.437   6.794   0.517
13997SOL    HW154053   4.480   6.725   0.459
13997SOL    HW254054   4.401   6.751   0.600
13998SOL     OW54055   4.069   6.345   0.719
13998SOL    HW154056   4.061   6.443   0.737
13998SOL    HW254057   4.153   6.311   0.760
13999SOL     OW54058   3.915   5.825   0.234
13999SOL    HW154059   3.959   5.794   0.151
13999SOL    HW254060   3.916   5.925   0.238
14000SOL     OW54061   3.768   6.077   0.845
14000SOL    HW154062   3.732   6.170   0.837
14000SOL    HW254063   3.851   6.078   0.901
14001SOL     OW54064   4.203   6.664   0.231
14001SOL    HW154065   4.303   6.664   0.242
14001SOL    HW254066   4.172   6.757   0.210
14002SOL     OW54067   4.829   6.256   0.047
14002SOL    HW154068   4.760   6.313   0.003
14002SOL    HW254069   4.910   6.250  -0.012
14003SOL     OW54070   4.564   6.175   0.190
14003SOL    HW154071   4.654   6.176   0.145
14003SOL    HW254072   4.541   6.081   0.215
14004SOL     OW54073   5.015   5.692   0.484
14004SOL    HW154074   4.925   5.676   0.525
14004SOL    HW254075   5.023   5.788   0.458
14005SOL     OW54076   5.129   6.092   1.500
14005SOL    HW154077   5.081   6.115   1.584
14005SOL    HW254078   5.063   6.062   1.431
14006SOL     OW54079   3.764   5.607   0.144
14006SOL    HW154080   3.827   5.530   0.152
14006SOL    HW254081   3.784   5.675   0.215
14007SOL     OW54082   4.037   6.582   1.145
14007SOL    HW154083   4.048   6.537   1.234
14007SOL    HW254084   4.064   6.678   1.152
14008SOL     OW54085   5.336   6.594   0.245
14008SOL    HW154086   5.407   6.664   0.247
14008SOL    HW254087   5.323   6.564   0.150
14009SOL     OW54088   4.318   6.195   1.167
14009SOL    HW154089   4.393   6.238   1.216
14009SOL    HW254090   4.251   6.160   1.233
14010SOL     OW54091   4.461   6.564   1.484
14010SOL    HW154092   4.530   6.616   1.434
14010SOL    HW254093   4.456   6.597   1.579
14011SOL     OW54094   4.853   6.585   1.644
14011SOL    HW154095   4.775   6.531   1.677
14011SOL    HW254096   4.934   6.563   1.699
14012SOL     OW54097   4.782   5.767   0.640
14012SOL    HW154098   4.841   5.827   0.695
14012SOL    HW254099   4.709   5.731   0.697
14013SOL     OW54100   4.892   7.299   1.680
14013SOL    HW154101   4.797   7.297   1.648
14013SOL    HW254102   4.913   7.390   1.717
14014SOL     OW54103   4.310   5.644   0.911
14014SOL    HW154104   4.238   5.577   0.897
14014SOL    HW254105   4.392   5.598   0.946
14015SOL     OW54106   4.010   7.309   1.278
14015SOL    HW154107   3.990   7.291   1.182
14015SOL    HW254108   3.937   7.271   1.335
14016SOL     OW54109   4.703   6.773   0.823
14016SOL    HW154110   4.742   6.816   0.742
14016SOL    HW254111   4.776   6.756   0.890
14017SOL     OW54112   4.397   6.501   1.025
14017SOL    HW154113   4.395   6.417   0.970
14017SOL    HW254114   4.346   6.487   1.110
14018SOL     OW54115   3.964   5.556   0.431
14018SOL    HW154116   4.002   5.644   0.458
14018SOL    HW254117   3.887   5.532   0.491
14019SOL     OW54118   4.380   6.173   1.759
14019SOL    HW154119   4.332   6.224   1.688
14019SOL    HW254120   4.473   6.152   1.729
14020SOL     OW54121   5.483   5.755   0.852
14020SOL    HW154122   5.438   5.737   0.939
14020SOL    HW254123   5.581   5.772   0.868
14021SOL     OW54124   4.531   6.731   1.104
14021SOL    HW154125   4.482   6.646   1.085
14021SOL    HW254126   4.601   6.746   1.035
14022SOL     OW54127   4.869   6.154   0.313
14022SOL    HW154128   4.921   6.226   0.359
14022SOL    HW254129   4.882   6.161   0.215
14023SOL     OW54130   5.230   6.969   1.640
14023SOL    HW154131   5.215   6.871   1.654
14023SOL    HW254132   5.147   7.011   1.604
14024SOL     OW54133   3.987   6.411   1.380
14024SOL    HW154134   3.951   6.321   1.406
14024SOL    HW254135   3.948   6.481   1.440
14025SOL     OW54136   4.307   7.244   1.072
14025SOL    HW154137   4.327   7.214   0.979
14025SOL    HW254138   4.232   7.189   1.109
14026SOL     OW54139   4.450   6.655   0.789
14026SOL    HW154140   4.539   6.701   0.789
14026SOL    HW254141   4.443   6.595   0.868
14027SOL     OW54142   4.628   7.002   0.458
14027SOL    HW154143   4.678   6.990   0.373
14027SOL    HW254144   4.574   6.919   0.477
14028SOL     OW54145   3.818   6.349   0.858
14028SOL    HW154146   3.913   6.340   0.826
14028SOL    HW254147   3.784   6.441   0.837
14029SOL     OW54148   3.755   6.466   1.785
14029SOL    HW154149   3.670   6.417   1.766
14029SOL    HW254150   3.782   6.453   1.880
14030SOL     OW54151   4.652   7.375   1.491
14030SOL    HW154152   4.624   7.288   1.532
14030SOL    HW254153   4.596   7.449   1.528
14031SOL     OW54154   4.881   6.722   1.021
14031SOL    HW154155   4.865   6.816   1.052
14031SOL    HW254156   4.884   6.661   1.101
14032SOL     OW54157   4.155   5.993   1.785
14032SOL    HW154158   4.191   5.940   1.708
14032SOL    HW254159   4.216   6.070   1.803
14033SOL     OW54160   4.219   6.410   0.357
14033SOL    HW154161   4.169   6.475   0.301
14033SOL    HW254162   4.161   6.331   0.376
14034SOL     OW54163   5.300   6.441   1.055
14034SOL    HW154164   5.319   6.480   0.964
14034SOL    HW254165   5.254   6.510   1.111
14035SOL     OW54166   4.992   5.884   1.351
14035SOL    HW154167   5.063   5.856   1.415
14035SOL    HW254168   4.939   5.804   1.323
14036SOL     OW54169   3.693   5.583   0.552
14036SOL    HW154170   3.606   5.570   0.505
14036SOL    HW254171   3.701   5.678   0.582
14037SOL     OW54172   4.914   5.684   1.793
14037SOL    HW154173   4.973   5.700   1.873
14037SOL    HW254174   4.861   5.767   1.774
14038SOL     OW54175   4.130   7.103   1.618
14038SOL    HW154176   4.072   7.168   1.667
14038SOL    HW254177   4.192   7.153   1.558
14039SOL     OW54178   5.486   6.990   1.559
14039SOL    HW154179   5.514   7.083   1.581
14039SOL    HW254180   5.393   6.974   1.592
14040SOL     OW54181   4.736   6.103   1.109
14040SOL    HW154182   4.822   6.154   1.108
14040SOL    HW254183   4.742   6.029   1.176
14041SOL     OW54184   4.140   7.049   0.681
14041SOL    HW154185   4.138   6.950   0.694
14041SOL    HW254186   4.049   7.082   0.658
14042SOL     OW54187   4.781   7.166   1.269
14042SOL    HW154188   4.707   7.230   1.287
14042SOL    HW254189   4.860   7.215   1.231
14043SOL     OW54190   3.990   7.296   1.768
14043SOL    HW154191   4.033   7.380   1.734
14043SOL    HW254192   4.015   7.283   1.864
14044SOL     OW54193   3.850   6.832   1.639
14044SOL    HW154194   3.829   6.737   1.612
14044SOL    HW254195   3.781   6.893   1.601
14045SOL     OW54196   3.939   7.197   1.043
14045SOL    HW154197   3.881   7.117   1.057
14045SOL    HW254198   3.963   7.204   0.946
14046SOL     OW54199   4.685   5.718   0.898
14046SOL    HW154200   4.781   5.719   0.926
14046SOL    HW254201   4.630   5.675   0.970
14047SOL     OW54202   4.747   6.724   0.414
14047SOL    HW154203   4.827   6.760   0.462
14047SOL    HW254204   4.705   6.651   0.470
14048SOL     OW54205   5.338   5.991   0.778
14048SOL    HW154206   5.357   6.077   0.825
14048SOL    HW254207   5.406   5.922   0.806
14049SOL     OW54208   4.481   6.663   0.264
14049SOL    HW154209   4.553   6.722   0.229
14049SOL    HW254210   4.521   6.579   0.300
14050SOL     OW54211   4.552   5.639   0.116
14050SOL    HW154212   4.627   5.573   0.128
14050SOL    HW254213   4.583   5.730   0.144
14051SOL     OW54214   4.231   6.068   0.728
14051SOL    HW154215   4.269   5.979   0.754
14051SOL    HW254216   4.298   6.118   0.673
14052SOL     OW54217   4.219   6.626   1.382
14052SOL    HW154218   4.315   6.606   1.402
14052SOL    HW254219   4.208   6.724   1.364
14053SOL     OW54220   5.441   6.669   1.351
14053SOL    HW154221   5.455   6.767   1.365
14053SOL    HW254222   5.498   6.638   1.275
14054SOL     OW54223   5.001   6.640   1.427
14054SOL    HW154224   4.945   6.599   1.498
14054SOL    HW254225   4.981   6.738   1.421
14055SOL     OW54226   4.268   7.256   1.427
14055SOL    HW154227   4.317   7.336   1.391
14055SOL    HW254228   4.176   7.254   1.388
14056SOL     OW54229   3.911   6.137   1.789
14056SOL    HW154230   3.928   6.038   1.794
14056SOL    HW254231   3.975   6.185   1.850
14057SOL     OW54232   5.350   7.098   1.028
14057SOL    HW154233   5.322   7.191   1.052
14057SOL    HW254234   5.400   7.057   1.104
14058SOL     OW54235   3.746   6.471   0.589
14058SOL    HW154236   3.753   6.570   0.576
14058SOL    HW254237   3.655   6.448   0.623
14059SOL     OW54238   4.255   6.269   1.527
14059SOL    HW154239   4.161   6.239   1.508
14059SOL    HW254240   4.264   6.366   1.504
14060SOL     OW54241   5.322   6.645   0.839
14060SOL    HW154242   5.284   6.734   0.812
14060SOL    HW254243   5.322   6.583   0.761
14061SOL     OW54244   4.480   6.051   1.008
14061SOL    HW154245   4.572   6.079   1.035
14061SOL    HW254246   4.412   6.102   1.062
14062SOL     OW54247   4.333   6.902   1.235
14062SOL    HW154248   4.246   6.901   1.186
14062SOL    HW254249   4.399   6.842   1.188
14063SOL     OW54250   3.899   6.244   1.149
14063SOL    HW154251   3.937   6.303   1.220
14063SOL    HW254252   3.882   6.297   1.067
14064SOL     OW54253   4.070   6.890   1.447
14064SOL    HW154254   4.089   6.978   1.491
14064SOL    HW254255   3.975   6.864   1.465
14065SOL     OW54256   5.021   6.744   0.516
14065SOL    HW154257   5.120   6.748   0.532
14065SOL    HW254258   5.004   6.730   0.418
14066SOL     OW54259   4.374   5.910   0.464
14066SOL    HW154260   4.276   5.904   0.444
14066SOL    HW254261   4.393   5.867   0.552
14067SOL     OW54262   5.294   5.593   0.723
14067SOL    HW154263   5.289   5.634   0.632
14067SOL    HW254264   5.375   5.627   0.770
14068SOL     OW54265   4.897   6.349   1.416
14068SOL    HW154266   4.996   6.358   1.406
14068SOL    HW254267   4.853   6.351   1.326
14069SOL     OW54268   4.391   6.309   0.818
14069SOL    HW154269   4.413   6.231   0.876
14069SOL    HW254270   4.400   6.283   0.722
14070SOL     OW54271   5.056   7.016   1.030
14070SOL    HW154272   4.970   6.973   1.059
14070SOL    HW254273   5.045   7.056   0.939
14071SOL     OW54274   5.059   6.001   0.705
14071SOL    HW154275   5.058   5.993   0.606
14071SOL    HW254276   5.148   5.973   0.740
14072SOL     OW54277   5.297   6.813   2.395
14072SOL    HW154278   5.308   6.897   2.449
14072SOL    HW254279   5.387   6.776   2.372
14073SOL     OW54280   4.044   5.732   1.864
14073SOL    HW154281   3.957   5.729   1.815
14073SOL    HW254282   4.095   5.814   1.836
14074SOL     OW54283   4.909   5.632   3.197
14074SOL    HW154284   4.833   5.587   3.244
14074SOL    HW254285   4.938   5.577   3.119
14075SOL     OW54286   4.254   7.086   2.268
14075SOL    HW154287   4.210   7.095   2.357
14075SOL    HW254288   4.325   7.016   2.272
14076SOL     OW54289   4.272   5.619   1.990
14076SOL    HW154290   4.360   5.647   1.951
14076SOL    HW254291   4.200   5.682   1.960
14077SOL     OW54292   5.242   6.604   3.373
14077SOL    HW154293   5.150   6.609   3.335
14077SOL    HW254294   5.307   6.642   3.307
14078SOL     OW54295   5.142   6.611   3.054
14078SOL    HW154296   5.067   6.600   3.119
14078SOL    HW254297   5.179   6.704   3.060
14079SOL     OW54298   4.638   6.866   3.354
14079SOL    HW154299   4.581   6.929   3.300
14079SOL    HW254300   4.671   6.792   3.295
14080SOL     OW54301   4.181   6.759   2.563
14080SOL    HW154302   4.114   6.713   2.622
14080SOL    HW254303   4.273   6.727   2.586
14081SOL     OW54304   4.408   6.165   2.394
14081SOL    HW154305   4.447   6.235   2.335
14081SOL    HW254306   4.382   6.085   2.340
14082SOL     OW54307   5.028   6.073   3.603
14082SOL    HW154308   5.124   6.077   3.629
14082SOL    HW254309   4.984   5.997   3.650
14083SOL     OW54310   4.111   6.928   2.047
14083SOL    HW154311   4.175   6.944   1.972
14083SOL    HW254312   4.135   6.986   2.125
14084SOL     OW54313   4.262   5.884   2.857
14084SOL    HW154314   4.338   5.949   2.853
14084SOL    HW254315   4.292   5.795   2.824
14085SOL     OW54316   3.959   6.310   2.275
14085SOL    HW154317   3.974   6.244   2.349
14085SOL    HW254318   3.909   6.389   2.310
14086SOL     OW54319   4.749   5.859   2.234
14086SOL    HW154320   4.774   5.953   2.255
14086SOL    HW254321   4.750   5.805   2.318
14087SOL     OW54322   3.873   6.572   3.419
14087SOL    HW154323   3.969   6.587   3.437
14087SOL    HW254324   3.835   6.510   3.488
14088SOL     OW54325   4.199   6.217   1.962
14088SOL    HW154326   4.159   6.296   1.915
14088SOL    HW254327   4.288   6.196   1.922
14089SOL     OW54328   5.318   6.973   2.636
14089SOL    HW154329   5.314   7.008   2.729
14089SOL    HW254330   5.377   7.032   2.580
14090SOL     OW54331   4.049   6.794   2.312
14090SOL    HW154332   4.095   6.768   2.397
14090SOL    HW254333   4.069   6.726   2.241
14091SOL     OW54334   4.907   5.849   2.023
14091SOL    HW154335   5.001   5.819   2.041
14091SOL    HW254336   4.855   5.849   2.109
14092SOL     OW54337   4.059   6.054   3.118
14092SOL    HW154338   4.049   5.967   3.070
14092SOL    HW254339   3.995   6.121   3.081
14093SOL     OW54340   4.094   5.826   2.277
14093SOL    HW154341   4.048   5.866   2.356
14093SOL    HW254342   4.042   5.845   2.195
14094SOL     OW54343   5.222   7.353   3.189
14094SOL    HW154344   5.165   7.304   3.123
14094SOL    HW254345   5.308   7.380   3.146
14095SOL     OW54346   5.534   7.297   2.957
14095SOL    HW154347   5.580   7.307   3.045
14095SOL    HW254348   5.601   7.300   2.884
14096SOL     OW54349   4.647   6.037   2.519
14096SOL    HW154350   4.723   6.065   2.578
14096SOL    HW254351   4.603   6.117   2.480
14097SOL     OW54352   4.882   6.501   2.036
14097SOL    HW154353   4.919   6.451   2.114
14097SOL    HW254354   4.812   6.446   1.991
14098SOL     OW54355   5.465   6.170   2.115
14098SOL    HW154356   5.486   6.089   2.061
14098SOL    HW254357   5.482   6.151   2.212
14099SOL     OW54358   4.759   7.308   2.023
14099SOL    HW154359   4.793   7.221   1.988
14099SOL    HW254360   4.727   7.296   2.117
14100SOL     OW54361   4.440   5.575   3.555
14100SOL    HW154362   4.447   5.481   3.522
14100SOL    HW254363   4.497   5.585   3.637
14101SOL     OW54364   5.363   6.176   2.823
14101SOL    HW154365   5.348   6.267   2.860
14101SOL    HW254366   5.433   6.129   2.877
14102SOL     OW54367   4.773   6.842   3.589
14102SOL    HW154368   4.795   6.752   3.551
14102SOL    HW254369   4.708   6.889   3.530
14103SOL     OW54370   4.428   6.684   3.593
14103SOL    HW154371   4.399   6.761   3.650
14103SOL    HW254372   4.438   6.603   3.651
14104SOL     OW54373   5.063   5.548   2.699
14104SOL    HW154374   5.012   5.632   2.681
14104SOL    HW254375   5.149   5.550   2.648
14105SOL     OW54376   5.418   5.754   3.628
14105SOL    HW154377   5.395   5.775   3.723
14105SOL    HW254378   5.394   5.659   3.608
14106SOL     OW54379   3.721   6.158   2.372
14106SOL    HW154380   3.723   6.109   2.459
14106SOL    HW254381   3.723   6.257   2.390
14107SOL     OW54382   4.042   5.746   2.693
14107SOL    HW154383   4.094   5.786   2.768
14107SOL    HW254384   4.095   5.673   2.650
14108SOL     OW54385   4.026   5.794   3.027
14108SOL    HW154386   3.991   5.701   3.027
14108SOL    HW254387   4.113   5.797   2.978
14109SOL     OW54388   4.693   6.416   2.767
14109SOL    HW154389   4.719   6.496   2.713
14109SOL    HW254390   4.687   6.336   2.707
14110SOL     OW54391   3.894   7.043   2.226
14110SOL    HW154392   3.921   6.949   2.246
14110SOL    HW254393   3.919   7.065   2.132
14111SOL     OW54394   5.176   6.912   3.100
14111SOL    HW154395   5.147   6.949   3.011
14111SOL    HW254396   5.098   6.912   3.162
14112SOL     OW54397   3.908   7.186   2.463
14112SOL    HW154398   3.824   7.237   2.481
14112SOL    HW254399   3.899   7.135   2.378
14113SOL     OW54400   5.429   6.983   3.138
14113SOL    HW154401   5.460   6.997   3.232
14113SOL    HW254402   5.330   6.970   3.137
14114SOL     OW54403   4.181   6.483   1.865
14114SOL    HW154404   4.150   6.517   1.777
14114SOL    HW254405   4.185   6.558   1.931
14115SOL     OW54406   4.698   6.670   3.164
14115SOL    HW154407   4.748   6.585   3.148
14115SOL    HW254408   4.652   6.697   3.079
14116SOL     OW54409   3.785   6.375   2.038
14116SOL    HW154410   3.845   6.322   2.098
14116SOL    HW254411   3.691   6.343   2.050
14117SOL     OW54412   5.305   6.373   2.238
14117SOL    HW154413   5.373   6.307   2.205
14117SOL    HW254414   5.320   6.461   2.194
14118SOL     OW54415   4.460   6.429   1.922
14118SOL    HW154416   4.489   6.348   1.973
14118SOL    HW254417   4.360   6.428   1.913
14119SOL     OW54418   5.056   5.961   2.268
14119SOL    HW154419   4.993   6.019   2.216
14119SOL    HW254420   5.149   5.995   2.256
14120SOL     OW54421   3.953   6.162   3.368
14120SOL    HW154422   3.973   6.067   3.343
14120SOL    HW254423   3.916   6.165   3.461
14121SOL     OW54424   3.835   5.817   3.258
14121SOL    HW154425   3.907   5.827   3.189
14121SOL    HW254426   3.746   5.816   3.213
14122SOL     OW54427   5.324   5.972   2.338
14122SOL    HW154428   5.420   5.943   2.335
14122SOL    HW254429   5.285   5.950   2.427
14123SOL     OW54430   4.558   5.913   2.060
14123SOL    HW154431   4.467   5.926   2.098
14123SOL    HW254432   4.618   5.873   2.130
14124SOL     OW54433   4.669   6.858   1.995
14124SOL    HW154434   4.722   6.798   2.055
14124SOL    HW254435   4.708   6.859   1.904
14125SOL     OW54436   5.420   7.153   2.480
14125SOL    HW154437   5.387   7.246   2.499
14125SOL    HW254438   5.418   7.137   2.381
14126SOL     OW54439   4.835   6.426   2.469
14126SOL    HW154440   4.900   6.454   2.540
14126SOL    HW254441   4.756   6.487   2.471
14127SOL     OW54442   4.583   7.152   3.493
14127SOL    HW154443   4.571   7.083   3.422
14127SOL    HW254444   4.546   7.117   3.580
14128SOL     OW54445   5.027   6.466   2.672
14128SOL    HW154446   5.048   6.408   2.750
14128SOL    HW254447   5.036   6.562   2.698
14129SOL     OW54448   3.983   6.595   2.718
14129SOL    HW154449   3.906   6.657   2.711
14129SOL    HW254450   4.020   6.596   2.811
14130SOL     OW54451   4.616   6.543   2.417
14130SOL    HW154452   4.603   6.454   2.374
14130SOL    HW254453   4.547   6.557   2.488
14131SOL     OW54454   4.920   6.931   3.256
14131SOL    HW154455   4.953   7.016   3.297
14131SOL    HW254456   4.821   6.927   3.263
14132SOL     OW54457   3.727   5.848   2.320
14132SOL    HW154458   3.787   5.799   2.258
14132SOL    HW254459   3.782   5.900   2.385
14133SOL     OW54460   3.751   7.340   3.240
14133SOL    HW154461   3.759   7.440   3.238
14133SOL    HW254462   3.727   7.311   3.333
14134SOL     OW54463   4.532   6.359   2.234
14134SOL    HW154464   4.443   6.387   2.199
14134SOL    HW254465   4.573   6.293   2.170
14135SOL     OW54466   4.054   6.077   2.773
14135SOL    HW154467   4.110   6.070   2.690
14135SOL    HW254468   4.111   6.055   2.853
14136SOL     OW54469   4.051   7.275   2.044
14136SOL    HW154470   4.143   7.305   2.019
14136SOL    HW254471   4.026   7.314   2.133
14137SOL     OW54472   5.027   7.297   2.981
14137SOL    HW154473   5.046   7.360   2.907
14137SOL    HW254474   5.035   7.203   2.948
14138SOL     OW54475   3.732   6.692   2.793
14138SOL    HW154476   3.642   6.708   2.754
14138SOL    HW254477   3.730   6.608   2.848
14139SOL     OW54478   4.483   5.597   2.243
14139SOL    HW154479   4.444   5.586   2.152
14139SOL    HW254480   4.439   5.673   2.290
14140SOL     OW54481   3.728   6.733   2.337
14140SOL    HW154482   3.806   6.791   2.361
14140SOL    HW254483   3.747   6.684   2.252
14141SOL     OW54484   4.974   5.807   2.712
14141SOL    HW154485   4.973   5.885   2.649
14141SOL    HW254486   5.017   5.834   2.798
14142SOL     OW54487   5.094   5.613   2.008
14142SOL    HW154488   5.174   5.553   2.005
14142SOL    HW254489   5.020   5.566   2.056
14143SOL     OW54490   4.409   5.844   2.574
14143SOL    HW154491   4.398   5.786   2.655
14143SOL    HW254492   4.494   5.896   2.582
14144SOL     OW54493   5.282   5.601   2.282
14144SOL    HW154494   5.289   5.555   2.194
14144SOL    HW254495   5.186   5.611   2.307
14145SOL     OW54496   4.258   6.916   3.645
14145SOL    HW154497   4.219   6.979   3.578
14145SOL    HW254498   4.341   6.956   3.685
14146SOL     OW54499   4.134   6.648   3.477
14146SOL    HW154500   4.153   6.672   3.382
14146SOL    HW254501   4.127   6.731   3.532
14147SOL     OW54502   3.795   6.938   2.951
14147SOL    HW154503   3.764   6.864   2.892
14147SOL    HW254504   3.727   6.956   3.022
14148SOL     OW54505   4.881   6.139   2.684
14148SOL    HW154506   4.963   6.116   2.632
14148SOL    HW254507   4.876   6.080   2.765
14149SOL     OW54508   5.481   6.166   3.520
14149SOL    HW154509   5.470   6.252   3.469
14149SOL    HW254510   5.575   6.157   3.550
14150SOL     OW54511   5.282   6.071   3.690
14150SOL    HW154512   5.362   6.096   3.634
14150SOL    HW254513   5.313   6.036   3.778
14151SOL     OW54514   4.993   6.374   2.270
14151SOL    HW154515   4.939   6.372   2.354
14151SOL    HW254516   5.070   6.437   2.281
14152SOL     OW54517   5.290   6.470   2.490
14152SOL    HW154518   5.304   6.433   2.397
14152SOL    HW254519   5.201   6.440   2.524
14153SOL     OW54520   5.446   6.407   3.385
14153SOL    HW154521   5.348   6.428   3.387
14153SOL    HW254522   5.495   6.483   3.344
14154SOL     OW54523   5.300   5.827   2.064
14154SOL    HW154524   5.305   5.869   2.155
14154SOL    HW254525   5.233   5.752   2.066
14155SOL     OW54526   4.447   7.042   3.284
14155SOL    HW154527   4.384   7.120   3.291
14155SOL    HW254528   4.415   6.980   3.212
14156SOL     OW54529   3.838   5.837   3.549
14156SOL    HW154530   3.856   5.826   3.451
14156SOL    HW254531   3.740   5.833   3.566
14157SOL     OW54532   3.718   7.251   3.493
14157SOL    HW154533   3.790   7.237   3.561
14157SOL    HW254534   3.629   7.254   3.538
14158SOL     OW54535   3.886   5.907   2.517
14158SOL    HW154536   3.829   5.962   2.578
14158SOL    HW254537   3.956   5.859   2.570
14159SOL     OW54538   5.058   7.139   3.380
14159SOL    HW154539   5.011   7.207   3.435
14159SOL    HW254540   5.125   7.185   3.321
14160SOL     OW54541   4.023   6.098   2.115
14160SOL    HW154542   4.095   6.127   2.052
14160SOL    HW254543   3.979   6.178   2.155
14161SOL     OW54544   4.138   7.361   2.581
14161SOL    HW154545   4.062   7.327   2.526
14161SOL    HW254546   4.224   7.324   2.546
14162SOL     OW54547   4.063   6.870   3.026
14162SOL    HW154548   4.075   6.886   3.123
14162SOL    HW254549   3.976   6.910   2.996
14163SOL     OW54550   4.947   7.074   3.672
14163SOL    HW154551   4.906   6.989   3.638
14163SOL    HW254552   4.927   7.148   3.608
14164SOL     OW54553   4.437   6.794   2.362
14164SOL    HW154554   4.480   6.725   2.304
14164SOL    HW254555   4.401   6.751   2.445
14165SOL     OW54556   4.069   6.345   2.564
14165SOL    HW154557   4.061   6.443   2.582
14165SOL    HW254558   4.153   6.311   2.605
14166SOL     OW54559   3.915   5.825   2.079
14166SOL    HW154560   3.959   5.794   1.996
14166SOL    HW254561   3.916   5.925   2.083
14167SOL     OW54562   3.768   6.077   2.690
14167SOL    HW154563   3.732   6.170   2.682
14167SOL    HW254564   3.851   6.078   2.746
14168SOL     OW54565   4.203   6.664   2.076
14168SOL    HW154566   4.303   6.664   2.087
14168SOL    HW254567   4.172   6.757   2.055
14169SOL     OW54568   4.829   6.256   1.892
14169SOL    HW154569   4.760   6.313   1.848
14169SOL    HW254570   4.910   6.250   1.833
14170SOL     OW54571   4.564   6.175   2.035
14170SOL    HW154572   4.654   6.176   1.990
14170SOL    HW254573   4.541   6.081   2.060
14171SOL     OW54574   5.015   5.692   2.329
14171SOL    HW154575   4.925   5.676   2.370
14171SOL    HW254576   5.023   5.788   2.303
14172SOL     OW54577   3.764   5.607   1.989
14172SOL    HW154578   3.827   5.530   1.997
14172SOL    HW254579   3.784   5.675   2.060
14173SOL     OW54580   4.037   6.582   2.990
14173SOL    HW154581   4.048   6.537   3.079
14173SOL    HW254582   4.064   6.678   2.997
14174SOL     OW54583   5.336   6.594   2.090
14174SOL    HW154584   5.407   6.664   2.092
14174SOL    HW254585   5.323   6.564   1.995
14175SOL     OW54586   4.461   6.564   3.329
14175SOL    HW154587   4.530   6.616   3.279
14175SOL    HW254588   4.456   6.597   3.424
14176SOL     OW54589   4.782   5.767   2.485
14176SOL    HW154590   4.841   5.827   2.540
14176SOL    HW254591   4.709   5.731   2.542
14177SOL     OW54592   4.892   7.299   3.525
14177SOL    HW154593   4.797   7.297   3.493
14177SOL    HW254594   4.913   7.390   3.562
14178SOL     OW54595   4.310   5.644   2.756
14178SOL    HW154596   4.238   5.577   2.742
14178SOL    HW254597   4.392   5.598   2.791
14179SOL     OW54598   4.010   7.309   3.123
14179SOL    HW154599   3.990   7.291   3.027
14179SOL    HW254600   3.937   7.271   3.180
14180SOL     OW54601   4.703   6.773   2.668
14180SOL    HW154602   4.742   6.816   2.587
14180SOL    HW254603   4.776   6.756   2.735
14181SOL     OW54604   4.397   6.501   2.870
14181SOL    HW154605   4.395   6.417   2.815
14181SOL    HW254606   4.346   6.487   2.955
14182SOL     OW54607   3.736   6.511   2.996
14182SOL    HW154608   3.825   6.489   3.036
14182SOL    HW254609   3.681   6.427   2.992
14183SOL     OW54610   3.964   5.556   2.276
14183SOL    HW154611   4.002   5.644   2.303
14183SOL    HW254612   3.887   5.532   2.336
14184SOL     OW54613   3.786   6.643   2.096
14184SOL    HW154614   3.776   6.546   2.075
14184SOL    HW254615   3.839   6.688   2.024
14185SOL     OW54616   4.531   6.731   2.949
14185SOL    HW154617   4.482   6.646   2.930
14185SOL    HW254618   4.601   6.746   2.880
14186SOL     OW54619   4.869   6.154   2.158
14186SOL    HW154620   4.921   6.226   2.204
14186SOL    HW254621   4.882   6.161   2.060
14187SOL     OW54622   5.230   6.969   3.485
14187SOL    HW154623   5.215   6.871   3.499
14187SOL    HW254624   5.147   7.011   3.449
14188SOL     OW54625   3.987   6.411   3.225
14188SOL    HW154626   3.951   6.321   3.251
14188SOL    HW254627   3.948   6.481   3.285
14189SOL     OW54628   4.489   7.037   1.883
14189SOL    HW154629   4.464   7.114   1.942
14189SOL    HW254630   4.553   6.977   1.931
14190SOL     OW54631   4.307   7.244   2.917
14190SOL    HW154632   4.327   7.214   2.824
14190SOL    HW254633   4.232   7.189   2.954
14191SOL     OW54634   4.450   6.655   2.634
14191SOL    HW154635   4.539   6.701   2.634
14191SOL    HW254636   4.443   6.595   2.713
14192SOL     OW54637   3.818   6.349   2.703
14192SOL    HW154638   3.913   6.340   2.671
14192SOL    HW254639   3.784   6.441   2.682
14193SOL     OW54640   3.755   6.466   3.630
14193SOL    HW154641   3.670   6.417   3.611
14193SOL    HW254642   3.782   6.453   3.725
14194SOL     OW54643   4.881   6.722   2.866
14194SOL    HW154644   4.865   6.816   2.897
14194SOL    HW254645   4.884   6.661   2.946
14195SOL     OW54646   4.155   5.993   3.630
14195SOL    HW154647   4.191   5.940   3.553
14195SOL    HW254648   4.216   6.070   3.648
14196SOL     OW54649   4.219   6.410   2.202
14196SOL    HW154650   4.169   6.475   2.146
14196SOL    HW254651   4.161   6.331   2.221
14197SOL     OW54652   5.300   6.441   2.900
14197SOL    HW154653   5.319   6.480   2.809
14197SOL    HW254654   5.254   6.510   2.956
14198SOL     OW54655   3.693   5.583   2.397
14198SOL    HW154656   3.606   5.570   2.350
14198SOL    HW254657   3.701   5.678   2.427
14199SOL     OW54658   4.914   5.684   3.638
14199SOL    HW154659   4.973   5.700   3.718
14199SOL    HW254660   4.861   5.767   3.619
14200SOL     OW54661   4.130   7.103   3.463
14200SOL    HW154662   4.072   7.168   3.512
14200SOL    HW254663   4.192   7.153   3.403
14201SOL     OW54664   5.486   6.990   3.404
14201SOL    HW154665   5.514   7.083   3.426
14201SOL    HW254666   5.393   6.974   3.437
14202SOL     OW54667   4.736   6.103   2.954
14202SOL    HW154668   4.822   6.154   2.953
14202SOL    HW254669   4.742   6.029   3.021
14203SOL     OW54670   4.140   7.049   2.526
14203SOL    HW154671   4.138   6.950   2.539
14203SOL    HW254672   4.049   7.082   2.503
14204SOL     OW54673   3.990   7.296   3.613
14204SOL    HW154674   4.033   7.380   3.579
14204SOL    HW254675   4.015   7.283   3.709
14205SOL     OW54676   3.850   6.832   3.484
14205SOL    HW154677   3.829   6.737   3.457
14205SOL    HW254678   3.781   6.893   3.446
14206SOL     OW54679   3.939   7.197   2.888
14206SOL    HW154680   3.881   7.117   2.902
14206SOL    HW254681   3.963   7.204   2.791
14207SOL     OW54682   4.685   5.718   2.743
14207SOL    HW154683   4.781   5.719   2.771
14207SOL    HW254684   4.630   5.675   2.815
14208SOL     OW54685   5.338   5.991   2.623
14208SOL    HW154686   5.357   6.077   2.670
14208SOL    HW254687   5.406   5.922   2.651
14209SOL     OW54688   4.481   6.663   2.109
14209SOL    HW154689   4.553   6.722   2.074
14209SOL    HW254690   4.521   6.579   2.145
14210SOL     OW54691   4.552   5.639   1.961
14210SOL    HW154692   4.627   5.573   1.973
14210SOL    HW254693   4.583   5.730   1.989
14211SOL     OW54694   4.231   6.068   2.573
14211SOL    HW154695   4.269   5.979   2.599
14211SOL    HW254696   4.298   6.118   2.518
14212SOL     OW54697   4.219   6.626   3.227
14212SOL    HW154698   4.315   6.606   3.247
14212SOL    HW254699   4.208   6.724   3.209
14213SOL     OW54700   5.441   6.669   3.196
14213SOL    HW154701   5.455   6.767   3.210
14213SOL    HW254702   5.498   6.638   3.120
14214SOL     OW54703   3.924   6.778   1.888
14214SOL    HW154704   3.916   6.790   1.789
14214SOL    HW254705   3.983   6.849   1.926
14215SOL     OW54706   4.351   7.217   2.048
14215SOL    HW154707   4.326   7.312   2.032
14215SOL    HW254708   4.318   7.189   2.138
14216SOL     OW54709   4.268   7.256   3.272
14216SOL    HW154710   4.317   7.336   3.236
14216SOL    HW254711   4.176   7.254   3.233
14217SOL     OW54712   3.911   6.137   3.634
14217SOL    HW154713   3.928   6.038   3.639
14217SOL    HW254714   3.975   6.185   3.695
14218SOL     OW54715   5.350   7.098   2.873
14218SOL    HW154716   5.322   7.191   2.897
14218SOL    HW254717   5.400   7.057   2.949
14219SOL     OW54718   3.746   6.471   2.434
14219SOL    HW154719   3.753   6.570   2.421
14219SOL    HW254720   3.655   6.448   2.468
14220SOL     OW54721   4.255   6.269   3.372
14220SOL    HW154722   4.161   6.239   3.353
14220SOL    HW254723   4.264   6.366   3.349
14221SOL     OW54724   5.322   6.645   2.684
14221SOL    HW154725   5.284   6.734   2.657
14221SOL    HW254726   5.322   6.583   2.606
14222SOL     OW54727   4.480   6.051   2.853
14222SOL    HW154728   4.572   6.079   2.880
14222SOL    HW254729   4.412   6.102   2.907
14223SOL     OW54730   4.333   6.902   3.080
14223SOL    HW154731   4.246   6.901   3.031
14223SOL    HW254732   4.399   6.842   3.033
14224SOL     OW54733   3.899   6.244   2.994
14224SOL    HW154734   3.937   6.303   3.065
14224SOL    HW254735   3.882   6.297   2.912
14225SOL     OW54736   4.070   6.890   3.292
14225SOL    HW154737   4.089   6.978   3.336
14225SOL    HW254738   3.975   6.864   3.310
14226SOL     OW54739   5.313   7.206   3.640
14226SOL    HW154740   5.282   7.128   3.585
14226SOL    HW254741   5.282   7.291   3.598
14227SOL     OW54742   4.374   5.910   2.309
14227SOL    HW154743   4.276   5.904   2.289
14227SOL    HW254744   4.393   5.867   2.397
14228SOL     OW54745   5.294   5.593   2.568
14228SOL    HW154746   5.289   5.634   2.477
14228SOL    HW254747   5.375   5.627   2.615
14229SOL     OW54748   4.391   6.309   2.663
14229SOL    HW154749   4.413   6.231   2.721
14229SOL    HW254750   4.400   6.283   2.567
14230SOL     OW54751   5.056   7.016   2.875
14230SOL    HW154752   4.970   6.973   2.904
14230SOL    HW254753   5.045   7.056   2.784
14231SOL     OW54754   5.059   6.001   2.550
14231SOL    HW154755   5.058   5.993   2.451
14231SOL    HW254756   5.148   5.973   2.585
14232SOL     OW54757   4.786   7.017   4.383
14232SOL    HW154758   4.877   7.051   4.406
14232SOL    HW254759   4.758   7.055   4.295
14233SOL     OW54760   5.297   6.813   4.241
14233SOL    HW154761   5.308   6.897   4.295
14233SOL    HW254762   5.387   6.776   4.218
14234SOL     OW54763   5.377   6.095   5.105
14234SOL    HW154764   5.279   6.087   5.127
14234SOL    HW254765   5.430   6.084   5.189
14235SOL     OW54766   4.044   5.732   3.710
14235SOL    HW154767   3.957   5.729   3.661
14235SOL    HW254768   4.095   5.814   3.682
14236SOL     OW54769   5.031   7.121   4.485
14236SOL    HW154770   5.020   7.218   4.508
14236SOL    HW254771   5.124   7.104   4.455
14237SOL     OW54772   4.909   5.632   5.043
14237SOL    HW154773   4.833   5.587   5.090
14237SOL    HW254774   4.938   5.577   4.965
14238SOL     OW54775   4.647   6.412   5.420
14238SOL    HW154776   4.612   6.387   5.330
14238SOL    HW254777   4.571   6.433   5.481
14239SOL     OW54778   4.254   7.086   4.114
14239SOL    HW154779   4.210   7.095   4.203
14239SOL    HW254780   4.325   7.016   4.118
14240SOL     OW54781   4.272   5.619   3.836
14240SOL    HW154782   4.360   5.647   3.797
14240SOL    HW254783   4.200   5.682   3.806
14241SOL     OW54784   5.242   6.604   5.219
14241SOL    HW154785   5.150   6.609   5.181
14241SOL    HW254786   5.307   6.642   5.153
14242SOL     OW54787   5.142   6.611   4.900
14242SOL    HW154788   5.067   6.600   4.965
14242SOL    HW254789   5.179   6.704   4.906
14243SOL     OW54790   4.638   6.866   5.200
14243SOL    HW154791   4.581   6.929   5.146
14243SOL    HW254792   4.671   6.792   5.141
14244SOL     OW54793   4.181   6.759   4.409
14244SOL    HW154794   4.114   6.713   4.468
14244SOL    HW254795   4.273   6.727   4.432
14245SOL     OW54796   5.028   6.073   5.449
14245SOL    HW154797   5.124   6.077   5.475
14245SOL    HW254798   4.984   5.997   5.496
14246SOL     OW54799   4.111   6.928   3.893
14246SOL    HW154800   4.175   6.944   3.818
14246SOL    HW254801   4.135   6.986   3.971
14247SOL     OW54802   4.262   5.884   4.703
14247SOL    HW154803   4.338   5.949   4.699
14247SOL    HW254804   4.292   5.795   4.670
14248SOL     OW54805   4.545   7.255   4.298
14248SOL    HW154806   4.610   7.188   4.262
14248SOL    HW254807   4.535   7.331   4.234
14249SOL     OW54808   5.437   7.137   4.040
14249SOL    HW154809   5.533   7.111   4.033
14249SOL    HW254810   5.413   7.197   3.964
14250SOL     OW54811   5.349   5.830   4.811
14250SOL    HW154812   5.400   5.902   4.764
14250SOL    HW254813   5.254   5.857   4.820
14251SOL     OW54814   4.749   5.859   4.080
14251SOL    HW154815   4.774   5.953   4.101
14251SOL    HW254816   4.750   5.805   4.164
14252SOL     OW54817   3.873   6.572   5.265
14252SOL    HW154818   3.969   6.587   5.283
14252SOL    HW254819   3.835   6.510   5.334
14253SOL     OW54820   4.199   6.217   3.808
14253SOL    HW154821   4.159   6.296   3.761
14253SOL    HW254822   4.288   6.196   3.768
14254SOL     OW54823   4.372   7.141   4.506
14254SOL    HW154824   4.445   7.164   4.442
14254SOL    HW254825   4.301   7.088   4.460
14255SOL     OW54826   4.714   6.173   5.260
14255SOL    HW154827   4.747   6.090   5.307
14255SOL    HW254828   4.787   6.241   5.259
14256SOL     OW54829   5.318   6.973   4.482
14256SOL    HW154830   5.314   7.008   4.575
14256SOL    HW254831   5.377   7.032   4.426
14257SOL     OW54832   4.049   6.794   4.158
14257SOL    HW154833   4.095   6.768   4.243
14257SOL    HW254834   4.069   6.726   4.087
14258SOL     OW54835   4.907   5.849   3.869
14258SOL    HW154836   5.001   5.819   3.887
14258SOL    HW254837   4.855   5.849   3.955
14259SOL     OW54838   4.059   6.054   4.964
14259SOL    HW154839   4.049   5.967   4.916
14259SOL    HW254840   3.995   6.121   4.927
14260SOL     OW54841   5.141   6.334   5.002
14260SOL    HW154842   5.145   6.428   4.967
14260SOL    HW254843   5.234   6.303   5.024
14261SOL     OW54844   5.222   7.353   5.035
14261SOL    HW154845   5.165   7.304   4.969
14261SOL    HW254846   5.308   7.380   4.992
14262SOL     OW54847   5.534   7.297   4.803
14262SOL    HW154848   5.580   7.307   4.891
14262SOL    HW254849   5.601   7.300   4.730
14263SOL     OW54850   4.647   6.037   4.365
14263SOL    HW154851   4.723   6.065   4.424
14263SOL    HW254852   4.603   6.117   4.326
14264SOL     OW54853   4.882   6.501   3.882
14264SOL    HW154854   4.919   6.451   3.960
14264SOL    HW254855   4.812   6.446   3.837
14265SOL     OW54856   4.724   5.923   5.503
14265SOL    HW154857   4.787   5.928   5.580
14265SOL    HW254858   4.632   5.901   5.536
14266SOL     OW54859   5.465   6.170   3.961
14266SOL    HW154860   5.486   6.089   3.907
14266SOL    HW254861   5.482   6.151   4.058
14267SOL     OW54862   4.759   7.308   3.869
14267SOL    HW154863   4.793   7.221   3.834
14267SOL    HW254864   4.727   7.296   3.963
14268SOL     OW54865   4.440   5.575   5.401
14268SOL    HW154866   4.447   5.481   5.368
14268SOL    HW254867   4.497   5.585   5.483
14269SOL     OW54868   5.363   6.176   4.669
14269SOL    HW154869   5.348   6.267   4.706
14269SOL    HW254870   5.433   6.129   4.723
14270SOL     OW54871   4.773   6.842   5.435
14270SOL    HW154872   4.795   6.752   5.397
14270SOL    HW254873   4.708   6.889   5.376
14271SOL     OW54874   4.428   6.684   5.439
14271SOL    HW154875   4.399   6.761   5.496
14271SOL    HW254876   4.438   6.603   5.497
14272SOL     OW54877   5.063   5.548   4.545
14272SOL    HW154878   5.012   5.632   4.527
14272SOL    HW254879   5.149   5.550   4.494
14273SOL     OW54880   5.418   5.754   5.474
14273SOL    HW154881   5.395   5.775   5.569
14273SOL    HW254882   5.394   5.659   5.454
14274SOL     OW54883   4.042   5.746   4.539
14274SOL    HW154884   4.094   5.786   4.614
14274SOL    HW254885   4.095   5.673   4.496
14275SOL     OW54886   4.026   5.794   4.873
14275SOL    HW154887   3.991   5.701   4.873
14275SOL    HW254888   4.113   5.797   4.824
14276SOL     OW54889   4.693   6.416   4.613
14276SOL    HW154890   4.719   6.496   4.559
14276SOL    HW254891   4.687   6.336   4.553
14277SOL     OW54892   3.894   7.043   4.072
14277SOL    HW154893   3.921   6.949   4.092
14277SOL    HW254894   3.919   7.065   3.978
14278SOL     OW54895   5.176   6.912   4.946
14278SOL    HW154896   5.147   6.949   4.857
14278SOL    HW254897   5.098   6.912   5.008
14279SOL     OW54898   3.908   7.186   4.309
14279SOL    HW154899   3.824   7.237   4.327
14279SOL    HW254900   3.899   7.135   4.224
14280SOL     OW54901   5.429   6.983   4.984
14280SOL    HW154902   5.460   6.997   5.078
14280SOL    HW254903   5.330   6.970   4.983
14281SOL     OW54904   4.698   6.670   5.010
14281SOL    HW154905   4.748   6.585   4.994
14281SOL    HW254906   4.652   6.697   4.925
14282SOL     OW54907   5.305   6.373   4.084
14282SOL    HW154908   5.373   6.307   4.051
14282SOL    HW254909   5.320   6.461   4.040
14283SOL     OW54910   4.553   7.360   4.732
14283SOL    HW154911   4.599   7.293   4.674
14283SOL    HW254912   4.479   7.316   4.782
14284SOL     OW54913   5.056   5.961   4.114
14284SOL    HW154914   4.993   6.019   4.062
14284SOL    HW254915   5.149   5.995   4.102
14285SOL     OW54916   3.953   6.162   5.214
14285SOL    HW154917   3.973   6.067   5.189
14285SOL    HW254918   3.916   6.165   5.307
14286SOL     OW54919   3.835   5.817   5.104
14286SOL    HW154920   3.907   5.827   5.035
14286SOL    HW254921   3.746   5.816   5.059
14287SOL     OW54922   4.733   6.438   4.869
14287SOL    HW154923   4.727   6.424   4.770
14287SOL    HW254924   4.652   6.399   4.913
14288SOL     OW54925   5.324   5.972   4.184
14288SOL    HW154926   5.420   5.943   4.181
14288SOL    HW254927   5.285   5.950   4.273
14289SOL     OW54928   4.608   7.047   4.621
14289SOL    HW154929   4.666   7.058   4.540
14289SOL    HW254930   4.514   7.071   4.599
14290SOL     OW54931   4.558   5.913   3.906
14290SOL    HW154932   4.467   5.926   3.944
14290SOL    HW254933   4.618   5.873   3.976
14291SOL     OW54934   4.669   6.858   3.841
14291SOL    HW154935   4.722   6.798   3.901
14291SOL    HW254936   4.708   6.859   3.750
14292SOL     OW54937   5.420   7.153   4.326
14292SOL    HW154938   5.387   7.246   4.345
14292SOL    HW254939   5.418   7.137   4.227
14293SOL     OW54940   4.835   6.426   4.315
14293SOL    HW154941   4.900   6.454   4.386
14293SOL    HW254942   4.756   6.487   4.317
14294SOL     OW54943   4.583   7.152   5.339
14294SOL    HW154944   4.571   7.083   5.268
14294SOL    HW254945   4.546   7.117   5.426
14295SOL     OW54946   5.027   6.466   4.518
14295SOL    HW154947   5.048   6.408   4.596
14295SOL    HW254948   5.036   6.562   4.544
14296SOL     OW54949   3.983   6.595   4.564
14296SOL    HW154950   3.906   6.657   4.557
14296SOL    HW254951   4.020   6.596   4.657
14297SOL     OW54952   4.616   6.543   4.263
14297SOL    HW154953   4.603   6.454   4.220
14297SOL    HW254954   4.547   6.557   4.334
14298SOL     OW54955   4.920   6.931   5.102
14298SOL    HW154956   4.953   7.016   5.143
14298SOL    HW254957   4.821   6.927   5.109
14299SOL     OW54958   3.727   5.848   4.166
14299SOL    HW154959   3.787   5.799   4.104
14299SOL    HW254960   3.782   5.900   4.231
14300SOL     OW54961   5.350   7.346   3.857
14300SOL    HW154962   5.440   7.390   3.859
14300SOL    HW254963   5.349   7.277   3.785
14301SOL     OW54964   4.514   6.313   5.015
14301SOL    HW154965   4.516   6.399   5.066
14301SOL    HW254966   4.571   6.245   5.062
14302SOL     OW54967   3.751   7.340   5.086
14302SOL    HW154968   3.759   7.440   5.084
14302SOL    HW254969   3.727   7.311   5.179
14303SOL     OW54970   4.054   6.077   4.619
14303SOL    HW154971   4.110   6.070   4.536
14303SOL    HW254972   4.111   6.055   4.699
14304SOL     OW54973   4.051   7.275   3.890
14304SOL    HW154974   4.143   7.305   3.865
14304SOL    HW254975   4.026   7.314   3.979
14305SOL     OW54976   5.027   7.297   4.827
14305SOL    HW154977   5.046   7.360   4.753
14305SOL    HW254978   5.035   7.203   4.794
14306SOL     OW54979   3.732   6.692   4.639
14306SOL    HW154980   3.642   6.708   4.600
14306SOL    HW254981   3.730   6.608   4.694
14307SOL     OW54982   4.483   5.597   4.089
14307SOL    HW154983   4.444   5.586   3.998
14307SOL    HW254984   4.439   5.673   4.136
14308SOL     OW54985   3.728   6.733   4.183
14308SOL    HW154986   3.806   6.791   4.207
14308SOL    HW254987   3.747   6.684   4.098
14309SOL     OW54988   5.258   5.861   5.267
14309SOL    HW154989   5.197   5.939   5.264
14309SOL    HW254990   5.313   5.865   5.350
14310SOL     OW54991   4.974   5.807   4.558
14310SOL    HW154992   4.973   5.885   4.495
14310SOL    HW254993   5.017   5.834   4.644
14311SOL     OW54994   5.094   5.613   3.854
14311SOL    HW154995   5.174   5.553   3.851
14311SOL    HW254996   5.020   5.566   3.902
14312SOL     OW54997   5.307   5.585   5.288
14312SOL    HW154998   5.333   5.542   5.202
14312SOL    HW254999   5.257   5.669   5.270
14313SOL     OW55000   4.409   5.844   4.420
14313SOL    HW155001   4.398   5.786   4.501
14313SOL    HW255002   4.494   5.896   4.428
14314SOL     OW55003   4.989   6.195   4.812
14314SOL    HW155004   5.043   6.235   4.738
14314SOL    HW255005   5.027   6.224   4.900
14315SOL     OW55006   5.282   5.601   4.128
14315SOL    HW155007   5.289   5.555   4.040
14315SOL    HW255008   5.186   5.611   4.153
14316SOL     OW55009   4.258   6.916   5.491
14316SOL    HW155010   4.219   6.979   5.424
14316SOL    HW255011   4.341   6.956   5.531
14317SOL     OW55012   4.134   6.648   5.323
14317SOL    HW155013   4.153   6.672   5.228
14317SOL    HW255014   4.127   6.731   5.378
14318SOL     OW55015   3.795   6.938   4.797
14318SOL    HW155016   3.764   6.864   4.738
14318SOL    HW255017   3.727   6.956   4.868
14319SOL     OW55018   4.881   6.139   4.530
14319SOL    HW155019   4.963   6.116   4.478
14319SOL    HW255020   4.876   6.080   4.611
14320SOL     OW55021   5.481   6.166   5.366
14320SOL    HW155022   5.470   6.252   5.315
14320SOL    HW255023   5.575   6.157   5.396
14321SOL     OW55024   5.052   5.939   4.785
14321SOL    HW155025   5.026   6.036   4.791
14321SOL    HW255026   5.052   5.899   4.877
14322SOL     OW55027   5.282   6.071   5.536
14322SOL    HW155028   5.362   6.096   5.480
14322SOL    HW255029   5.313   6.036   5.624
14323SOL     OW55030   4.993   6.374   4.116
14323SOL    HW155031   4.939   6.372   4.200
14323SOL    HW255032   5.070   6.437   4.127
14324SOL     OW55033   5.290   6.470   4.336
14324SOL    HW155034   5.304   6.433   4.243
14324SOL    HW255035   5.201   6.440   4.370
14325SOL     OW55036   5.446   6.407   5.231
14325SOL    HW155037   5.348   6.428   5.233
14325SOL    HW255038   5.495   6.483   5.190
14326SOL     OW55039   5.300   5.827   3.910
14326SOL    HW155040   5.305   5.869   4.001
14326SOL    HW255041   5.233   5.752   3.912
14327SOL     OW55042   4.447   7.042   5.130
14327SOL    HW155043   4.384   7.120   5.137
14327SOL    HW255044   4.415   6.980   5.058
14328SOL     OW55045   3.838   5.837   5.395
14328SOL    HW155046   3.856   5.826   5.297
14328SOL    HW255047   3.740   5.833   5.412
14329SOL     OW55048   3.718   7.251   5.339
14329SOL    HW155049   3.790   7.237   5.407
14329SOL    HW255050   3.629   7.254   5.384
14330SOL     OW55051   3.886   5.907   4.363
14330SOL    HW155052   3.829   5.962   4.424
14330SOL    HW255053   3.956   5.859   4.416
14331SOL     OW55054   5.058   7.139   5.226
14331SOL    HW155055   5.011   7.207   5.281
14331SOL    HW255056   5.125   7.185   5.167
14332SOL     OW55057   5.409   5.760   5.064
14332SOL    HW155058   5.365   5.808   5.140
14332SOL    HW255059   5.387   5.806   4.978
14333SOL     OW55060   4.138   7.361   4.427
14333SOL    HW155061   4.062   7.327   4.372
14333SOL    HW255062   4.224   7.324   4.392
14334SOL     OW55063   4.063   6.870   4.872
14334SOL    HW155064   4.075   6.886   4.969
14334SOL    HW255065   3.976   6.910   4.842
14335SOL     OW55066   4.947   7.074   5.518
14335SOL    HW155067   4.906   6.989   5.484
14335SOL    HW255068   4.927   7.148   5.454
14336SOL     OW55069   4.437   6.794   4.208
14336SOL    HW155070   4.480   6.725   4.150
14336SOL    HW255071   4.401   6.751   4.291
14337SOL     OW55072   3.915   5.825   3.925
14337SOL    HW155073   3.959   5.794   3.842
14337SOL    HW255074   3.916   5.925   3.929
14338SOL     OW55075   4.203   6.664   3.922
14338SOL    HW155076   4.303   6.664   3.933
14338SOL    HW255077   4.172   6.757   3.901
14339SOL     OW55078   5.015   5.692   4.175
14339SOL    HW155079   4.925   5.676   4.216
14339SOL    HW255080   5.023   5.788   4.149
14340SOL     OW55081   5.129   6.092   5.191
14340SOL    HW155082   5.081   6.115   5.275
14340SOL    HW255083   5.063   6.062   5.122
14341SOL     OW55084   3.764   5.607   3.835
14341SOL    HW155085   3.827   5.530   3.843
14341SOL    HW255086   3.784   5.675   3.906
14342SOL     OW55087   4.037   6.582   4.836
14342SOL    HW155088   4.048   6.537   4.925
14342SOL    HW255089   4.064   6.678   4.843
14343SOL     OW55090   5.336   6.594   3.936
14343SOL    HW155091   5.407   6.664   3.938
14343SOL    HW255092   5.323   6.564   3.841
14344SOL     OW55093   4.318   6.195   4.858
14344SOL    HW155094   4.393   6.238   4.907
14344SOL    HW255095   4.251   6.160   4.924
14345SOL     OW55096   4.461   6.564   5.175
14345SOL    HW155097   4.530   6.616   5.125
14345SOL    HW255098   4.456   6.597   5.270
14346SOL     OW55099   4.853   6.585   5.335
14346SOL    HW155100   4.775   6.531   5.368
14346SOL    HW255101   4.934   6.563   5.390
14347SOL     OW55102   4.782   5.767   4.331
14347SOL    HW155103   4.841   5.827   4.386
14347SOL    HW255104   4.709   5.731   4.388
14348SOL     OW55105   4.892   7.299   5.371
14348SOL    HW155106   4.797   7.297   5.339
14348SOL    HW255107   4.913   7.390   5.408
14349SOL     OW55108   4.310   5.644   4.602
14349SOL    HW155109   4.238   5.577   4.588
14349SOL    HW255110   4.392   5.598   4.637
14350SOL     OW55111   4.010   7.309   4.969
14350SOL    HW155112   3.990   7.291   4.873
14350SOL    HW255113   3.937   7.271   5.026
14351SOL     OW55114   4.703   6.773   4.514
14351SOL    HW155115   4.742   6.816   4.433
14351SOL    HW255116   4.776   6.756   4.581
14352SOL     OW55117   4.397   6.501   4.716
14352SOL    HW155118   4.395   6.417   4.661
14352SOL    HW255119   4.346   6.487   4.801
14353SOL     OW55120   3.964   5.556   4.122
14353SOL    HW155121   4.002   5.644   4.149
14353SOL    HW255122   3.887   5.532   4.182
14354SOL     OW55123   4.380   6.173   5.450
14354SOL    HW155124   4.332   6.224   5.379
14354SOL    HW255125   4.473   6.152   5.420
14355SOL     OW55126   3.786   6.643   3.942
14355SOL    HW155127   3.776   6.546   3.921
14355SOL    HW255128   3.839   6.688   3.870
14356SOL     OW55129   5.483   5.755   4.543
14356SOL    HW155130   5.438   5.737   4.630
14356SOL    HW255131   5.581   5.772   4.559
14357SOL     OW55132   4.531   6.731   4.795
14357SOL    HW155133   4.482   6.646   4.776
14357SOL    HW255134   4.601   6.746   4.726
14358SOL     OW55135   5.230   6.969   5.331
14358SOL    HW155136   5.215   6.871   5.345
14358SOL    HW255137   5.147   7.011   5.295
14359SOL     OW55138   3.987   6.411   5.071
14359SOL    HW155139   3.951   6.321   5.097
14359SOL    HW255140   3.948   6.481   5.131
14360SOL     OW55141   4.489   7.037   3.729
14360SOL    HW155142   4.464   7.114   3.788
14360SOL    HW255143   4.553   6.977   3.777
14361SOL     OW55144   4.307   7.244   4.763
14361SOL    HW155145   4.327   7.214   4.670
14361SOL    HW255146   4.232   7.189   4.800
14362SOL     OW55147   4.450   6.655   4.480
14362SOL    HW155148   4.539   6.701   4.480
14362SOL    HW255149   4.443   6.595   4.559
14363SOL     OW55150   4.628   7.002   4.149
14363SOL    HW155151   4.678   6.990   4.064
14363SOL    HW255152   4.574   6.919   4.168
14364SOL     OW55153   3.755   6.466   5.476
14364SOL    HW155154   3.670   6.417   5.457
14364SOL    HW255155   3.782   6.453   5.571
14365SOL     OW55156   4.652   7.375   5.182
14365SOL    HW155157   4.624   7.288   5.223
14365SOL    HW255158   4.596   7.449   5.219
14366SOL     OW55159   4.881   6.722   4.712
14366SOL    HW155160   4.865   6.816   4.743
14366SOL    HW255161   4.884   6.661   4.792
14367SOL     OW55162   4.155   5.993   5.476
14367SOL    HW155163   4.191   5.940   5.399
14367SOL    HW255164   4.216   6.070   5.494
14368SOL     OW55165   5.300   6.441   4.746
14368SOL    HW155166   5.319   6.480   4.655
14368SOL    HW255167   5.254   6.510   4.802
14369SOL     OW55168   4.992   5.884   5.042
14369SOL    HW155169   5.063   5.856   5.106
14369SOL    HW255170   4.939   5.804   5.014
14370SOL     OW55171   3.693   5.583   4.243
14370SOL    HW155172   3.606   5.570   4.196
14370SOL    HW255173   3.701   5.678   4.273
14371SOL     OW55174   4.914   5.684   5.484
14371SOL    HW155175   4.973   5.700   5.564
14371SOL    HW255176   4.861   5.767   5.465
14372SOL     OW55177   4.130   7.103   5.309
14372SOL    HW155178   4.072   7.168   5.358
14372SOL    HW255179   4.192   7.153   5.249
14373SOL     OW55180   4.736   6.103   4.800
14373SOL    HW155181   4.822   6.154   4.799
14373SOL    HW255182   4.742   6.029   4.867
14374SOL     OW55183   4.140   7.049   4.372
14374SOL    HW155184   4.138   6.950   4.385
14374SOL    HW255185   4.049   7.082   4.349
14375SOL     OW55186   4.781   7.166   4.960
14375SOL    HW155187   4.707   7.230   4.978
14375SOL    HW255188   4.860   7.215   4.922
14376SOL     OW55189   3.990   7.296   5.459
14376SOL    HW155190   4.033   7.380   5.425
14376SOL    HW255191   4.015   7.283   5.555
14377SOL     OW55192   3.850   6.832   5.330
14377SOL    HW155193   3.829   6.737   5.303
14377SOL    HW255194   3.781   6.893   5.292
14378SOL     OW55195   3.939   7.197   4.734
14378SOL    HW155196   3.881   7.117   4.748
14378SOL    HW255197   3.963   7.204   4.637
14379SOL     OW55198   4.685   5.718   4.589
14379SOL    HW155199   4.781   5.719   4.617
14379SOL    HW255200   4.630   5.675   4.661
14380SOL     OW55201   4.747   6.724   4.105
14380SOL    HW155202   4.827   6.760   4.153
14380SOL    HW255203   4.705   6.651   4.161
14381SOL     OW55204   5.338   5.991   4.469
14381SOL    HW155205   5.357   6.077   4.516
14381SOL    HW255206   5.406   5.922   4.497
14382SOL     OW55207   4.481   6.663   3.955
14382SOL    HW155208   4.553   6.722   3.920
14382SOL    HW255209   4.521   6.579   3.991
14383SOL     OW55210   4.552   5.639   3.807
14383SOL    HW155211   4.627   5.573   3.819
14383SOL    HW255212   4.583   5.730   3.835
14384SOL     OW55213   4.219   6.626   5.073
14384SOL    HW155214   4.315   6.606   5.093
14384SOL    HW255215   4.208   6.724   5.055
14385SOL     OW55216   3.924   6.778   3.734
14385SOL    HW155217   3.916   6.790   3.635
14385SOL    HW255218   3.983   6.849   3.772
14386SOL     OW55219   4.351   7.217   3.894
14386SOL    HW155220   4.326   7.312   3.878
14386SOL    HW255221   4.318   7.189   3.984
14387SOL     OW55222   5.001   6.640   5.118
14387SOL    HW155223   4.945   6.599   5.189
14387SOL    HW255224   4.981   6.738   5.112
14388SOL     OW55225   4.268   7.256   5.118
14388SOL    HW155226   4.317   7.336   5.082
14388SOL    HW255227   4.176   7.254   5.079
14389SOL     OW55228   3.911   6.137   5.480
14389SOL    HW155229   3.928   6.038   5.485
14389SOL    HW255230   3.975   6.185   5.541
14390SOL     OW55231   5.350   7.098   4.719
14390SOL    HW155232   5.322   7.191   4.743
14390SOL    HW255233   5.400   7.057   4.795
14391SOL     OW55234   3.746   6.471   4.280
14391SOL    HW155235   3.753   6.570   4.267
14391SOL    HW255236   3.655   6.448   4.314
14392SOL     OW55237   4.255   6.269   5.218
14392SOL    HW155238   4.161   6.239   5.199
14392SOL    HW255239   4.264   6.366   5.195
14393SOL     OW55240   5.322   6.645   4.530
14393SOL    HW155241   5.284   6.734   4.503
14393SOL    HW255242   5.322   6.583   4.452
14394SOL     OW55243   4.480   6.051   4.699
14394SOL    HW155244   4.572   6.079   4.726
14394SOL    HW255245   4.412   6.102   4.753
14395SOL     OW55246   4.333   6.902   4.926
14395SOL    HW155247   4.246   6.901   4.877
14395SOL    HW255248   4.399   6.842   4.879
14396SOL     OW55249   3.899   6.244   4.840
14396SOL    HW155250   3.937   6.303   4.911
14396SOL    HW255251   3.882   6.297   4.758
14397SOL     OW55252   4.070   6.890   5.138
14397SOL    HW155253   4.089   6.978   5.182
14397SOL    HW255254   3.975   6.864   5.156
14398SOL     OW55255   5.313   7.206   5.486
14398SOL    HW155256   5.282   7.128   5.431
14398SOL    HW255257   5.282   7.291   5.444
14399SOL     OW55258   5.021   6.744   4.207
14399SOL    HW155259   5.120   6.748   4.223
14399SOL    HW255260   5.004   6.730   4.109
14400SOL     OW55261   5.294   5.593   4.414
14400SOL    HW155262   5.289   5.634   4.323
14400SOL    HW255263   5.375   5.627   4.461
14401SOL     OW55264   4.897   6.349   5.107
14401SOL    HW155265   4.996   6.358   5.097
14401SOL    HW255266   4.853   6.351   5.017
14402SOL     OW55267   4.391   6.309   4.509
14402SOL    HW155268   4.413   6.231   4.567
14402SOL    HW255269   4.400   6.283   4.413
14403SOL     OW55270   5.056   7.016   4.721
14403SOL    HW155271   4.970   6.973   4.750
14403SOL    HW255272   5.045   7.056   4.630
14404SOL     OW55273   5.059   6.001   4.396
14404SOL    HW155274   5.058   5.993   4.297
14404SOL    HW255275   5.148   5.973   4.431
14405SOL     OW55276   4.786   7.017   6.228
14405SOL    HW155277   4.877   7.051   6.251
14405SOL    HW255278   4.758   7.055   6.140
14406SOL     OW55279   5.297   6.813   6.086
14406SOL    HW155280   5.308   6.897   6.140
14406SOL    HW255281   5.387   6.776   6.063
14407SOL     OW55282   5.377   6.095   6.950
14407SOL    HW155283   5.279   6.087   6.972
14407SOL    HW255284   5.430   6.084   7.034
14408SOL     OW55285   4.044   5.732   5.555
14408SOL    HW155286   3.957   5.729   5.506
14408SOL    HW255287   4.095   5.814   5.527
14409SOL     OW55288   5.031   7.121   6.330
14409SOL    HW155289   5.020   7.218   6.353
14409SOL    HW255290   5.124   7.104   6.300
14410SOL     OW55291   4.909   5.632   6.888
14410SOL    HW155292   4.833   5.587   6.935
14410SOL    HW255293   4.938   5.577   6.810
14411SOL     OW55294   4.647   6.412   7.265
14411SOL    HW155295   4.612   6.387   7.175
14411SOL    HW255296   4.571   6.433   7.326
14412SOL     OW55297   4.254   7.086   5.959
14412SOL    HW155298   4.210   7.095   6.048
14412SOL    HW255299   4.325   7.016   5.963
14413SOL     OW55300   4.272   5.619   5.681
14413SOL    HW155301   4.360   5.647   5.642
14413SOL    HW255302   4.200   5.682   5.651
14414SOL     OW55303   5.242   6.604   7.064
14414SOL    HW155304   5.150   6.609   7.026
14414SOL    HW255305   5.307   6.642   6.998
14415SOL     OW55306   4.638   6.866   7.045
14415SOL    HW155307   4.581   6.929   6.991
14415SOL    HW255308   4.671   6.792   6.986
14416SOL     OW55309   4.181   6.759   6.254
14416SOL    HW155310   4.114   6.713   6.313
14416SOL    HW255311   4.273   6.727   6.277
14417SOL     OW55312   4.408   6.165   6.085
14417SOL    HW155313   4.447   6.235   6.026
14417SOL    HW255314   4.382   6.085   6.031
14418SOL     OW55315   5.028   6.073   7.294
14418SOL    HW155316   5.124   6.077   7.320
14418SOL    HW255317   4.984   5.997   7.341
14419SOL     OW55318   4.111   6.928   5.738
14419SOL    HW155319   4.175   6.944   5.663
14419SOL    HW255320   4.135   6.986   5.816
14420SOL     OW55321   4.262   5.884   6.548
14420SOL    HW155322   4.338   5.949   6.544
14420SOL    HW255323   4.292   5.795   6.515
14421SOL     OW55324   3.959   6.310   5.966
14421SOL    HW155325   3.974   6.244   6.040
14421SOL    HW255326   3.909   6.389   6.001
14422SOL     OW55327   4.545   7.255   6.143
14422SOL    HW155328   4.610   7.188   6.107
14422SOL    HW255329   4.535   7.331   6.079
14423SOL     OW55330   5.437   7.137   5.885
14423SOL    HW155331   5.533   7.111   5.878
14423SOL    HW255332   5.413   7.197   5.809
14424SOL     OW55333   5.349   5.830   6.656
14424SOL    HW155334   5.400   5.902   6.609
14424SOL    HW255335   5.254   5.857   6.665
14425SOL     OW55336   4.749   5.859   5.925
14425SOL    HW155337   4.774   5.953   5.946
14425SOL    HW255338   4.750   5.805   6.009
14426SOL     OW55339   3.873   6.572   7.110
14426SOL    HW155340   3.969   6.587   7.128
14426SOL    HW255341   3.835   6.510   7.179
14427SOL     OW55342   4.199   6.217   5.653
14427SOL    HW155343   4.159   6.296   5.606
14427SOL    HW255344   4.288   6.196   5.613
14428SOL     OW55345   4.372   7.141   6.351
14428SOL    HW155346   4.445   7.164   6.287
14428SOL    HW255347   4.301   7.088   6.305
14429SOL     OW55348   4.714   6.173   7.105
14429SOL    HW155349   4.747   6.090   7.152
14429SOL    HW255350   4.787   6.241   7.104
14430SOL     OW55351   4.049   6.794   6.003
14430SOL    HW155352   4.095   6.768   6.088
14430SOL    HW255353   4.069   6.726   5.932
14431SOL     OW55354   4.907   5.849   5.714
14431SOL    HW155355   5.001   5.819   5.732
14431SOL    HW255356   4.855   5.849   5.800
14432SOL     OW55357   4.094   5.826   5.968
14432SOL    HW155358   4.048   5.866   6.047
14432SOL    HW255359   4.042   5.845   5.886
14433SOL     OW55360   5.517   6.071   6.735
14433SOL    HW155361   5.574   6.153   6.737
14433SOL    HW255362   5.458   6.070   6.815
14434SOL     OW55363   4.647   6.037   6.210
14434SOL    HW155364   4.723   6.065   6.269
14434SOL    HW255365   4.603   6.117   6.171
14435SOL     OW55366   4.882   6.501   5.727
14435SOL    HW155367   4.919   6.451   5.805
14435SOL    HW255368   4.812   6.446   5.682
14436SOL     OW55369   4.724   5.923   7.348
14436SOL    HW155370   4.787   5.928   7.425
14436SOL    HW255371   4.632   5.901   7.381
14437SOL     OW55372   5.465   6.170   5.806
14437SOL    HW155373   5.486   6.089   5.752
14437SOL    HW255374   5.482   6.151   5.903
14438SOL     OW55375   4.759   7.308   5.714
14438SOL    HW155376   4.793   7.221   5.679
14438SOL    HW255377   4.727   7.296   5.808
14439SOL     OW55378   4.440   5.575   7.246
14439SOL    HW155379   4.447   5.481   7.213
14439SOL    HW255380   4.497   5.585   7.328
14440SOL     OW55381   5.363   6.176   6.514
14440SOL    HW155382   5.348   6.267   6.551
14440SOL    HW255383   5.433   6.129   6.568
14441SOL     OW55384   4.773   6.842   7.280
14441SOL    HW155385   4.795   6.752   7.242
14441SOL    HW255386   4.708   6.889   7.221
14442SOL     OW55387   4.428   6.684   7.284
14442SOL    HW155388   4.399   6.761   7.341
14442SOL    HW255389   4.438   6.603   7.342
14443SOL     OW55390   5.063   5.548   6.390
14443SOL    HW155391   5.012   5.632   6.372
14443SOL    HW255392   5.149   5.550   6.339
14444SOL     OW55393   5.418   5.754   7.319
14444SOL    HW155394   5.395   5.775   7.414
14444SOL    HW255395   5.394   5.659   7.299
14445SOL     OW55396   3.721   6.158   6.063
14445SOL    HW155397   3.723   6.109   6.150
14445SOL    HW255398   3.723   6.257   6.081
14446SOL     OW55399   4.042   5.746   6.384
14446SOL    HW155400   4.094   5.786   6.459
14446SOL    HW255401   4.095   5.673   6.341
14447SOL     OW55402   4.026   5.794   6.718
14447SOL    HW155403   3.991   5.701   6.718
14447SOL    HW255404   4.113   5.797   6.669
14448SOL     OW55405   3.894   7.043   5.917
14448SOL    HW155406   3.921   6.949   5.937
14448SOL    HW255407   3.919   7.065   5.823
14449SOL     OW55408   3.908   7.186   6.154
14449SOL    HW155409   3.824   7.237   6.172
14449SOL    HW255410   3.899   7.135   6.069
14450SOL     OW55411   4.181   6.483   5.556
14450SOL    HW155412   4.150   6.517   5.468
14450SOL    HW255413   4.185   6.558   5.622
14451SOL     OW55414   3.785   6.375   5.729
14451SOL    HW155415   3.845   6.322   5.789
14451SOL    HW255416   3.691   6.343   5.741
14452SOL     OW55417   5.305   6.373   5.929
14452SOL    HW155418   5.373   6.307   5.896
14452SOL    HW255419   5.320   6.461   5.885
14453SOL     OW55420   4.553   7.360   6.577
14453SOL    HW155421   4.599   7.293   6.519
14453SOL    HW255422   4.479   7.316   6.627
14454SOL     OW55423   4.460   6.429   5.613
14454SOL    HW155424   4.489   6.348   5.664
14454SOL    HW255425   4.360   6.428   5.604
14455SOL     OW55426   5.056   5.961   5.959
14455SOL    HW155427   4.993   6.019   5.907
14455SOL    HW255428   5.149   5.995   5.947
14456SOL     OW55429   3.835   5.817   6.949
14456SOL    HW155430   3.907   5.827   6.880
14456SOL    HW255431   3.746   5.816   6.904
14457SOL     OW55432   5.324   5.972   6.029
14457SOL    HW155433   5.420   5.943   6.026
14457SOL    HW255434   5.285   5.950   6.118
14458SOL     OW55435   4.608   7.047   6.466
14458SOL    HW155436   4.666   7.058   6.385
14458SOL    HW255437   4.514   7.071   6.444
14459SOL     OW55438   4.558   5.913   5.751
14459SOL    HW155439   4.467   5.926   5.789
14459SOL    HW255440   4.618   5.873   5.821
14460SOL     OW55441   4.669   6.858   5.686
14460SOL    HW155442   4.722   6.798   5.746
14460SOL    HW255443   4.708   6.859   5.595
14461SOL     OW55444   5.420   7.153   6.171
14461SOL    HW155445   5.387   7.246   6.190
14461SOL    HW255446   5.418   7.137   6.072
14462SOL     OW55447   4.583   7.152   7.184
14462SOL    HW155448   4.571   7.083   7.113
14462SOL    HW255449   4.546   7.117   7.271
14463SOL     OW55450   3.983   6.595   6.409
14463SOL    HW155451   3.906   6.657   6.402
14463SOL    HW255452   4.020   6.596   6.502
14464SOL     OW55453   3.727   5.848   6.011
14464SOL    HW155454   3.787   5.799   5.949
14464SOL    HW255455   3.782   5.900   6.076
14465SOL     OW55456   5.350   7.346   5.702
14465SOL    HW155457   5.440   7.390   5.704
14465SOL    HW255458   5.349   7.277   5.630
14466SOL     OW55459   4.514   6.313   6.860
14466SOL    HW155460   4.516   6.399   6.911
14466SOL    HW255461   4.571   6.245   6.907
14467SOL     OW55462   3.751   7.340   6.931
14467SOL    HW155463   3.759   7.440   6.929
14467SOL    HW255464   3.727   7.311   7.024
14468SOL     OW55465   4.532   6.359   5.925
14468SOL    HW155466   4.443   6.387   5.890
14468SOL    HW255467   4.573   6.293   5.861
14469SOL     OW55468   4.051   7.275   5.735
14469SOL    HW155469   4.143   7.305   5.710
14469SOL    HW255470   4.026   7.314   5.824
14470SOL     OW55471   5.027   7.297   6.672
14470SOL    HW155472   5.046   7.360   6.598
14470SOL    HW255473   5.035   7.203   6.639
14471SOL     OW55474   3.732   6.692   6.484
14471SOL    HW155475   3.642   6.708   6.445
14471SOL    HW255476   3.730   6.608   6.539
14472SOL     OW55477   4.483   5.597   5.934
14472SOL    HW155478   4.444   5.586   5.843
14472SOL    HW255479   4.439   5.673   5.981
14473SOL     OW55480   3.728   6.733   6.028
14473SOL    HW155481   3.806   6.791   6.052
14473SOL    HW255482   3.747   6.684   5.943
14474SOL     OW55483   5.258   5.861   7.112
14474SOL    HW155484   5.197   5.939   7.109
14474SOL    HW255485   5.313   5.865   7.195
14475SOL     OW55486   4.974   5.807   6.403
14475SOL    HW155487   4.973   5.885   6.340
14475SOL    HW255488   5.017   5.834   6.489
14476SOL     OW55489   5.094   5.613   5.699
14476SOL    HW155490   5.174   5.553   5.696
14476SOL    HW255491   5.020   5.566   5.747
14477SOL     OW55492   5.307   5.585   7.133
14477SOL    HW155493   5.333   5.542   7.047
14477SOL    HW255494   5.257   5.669   7.115
14478SOL     OW55495   4.409   5.844   6.265
14478SOL    HW155496   4.398   5.786   6.346
14478SOL    HW255497   4.494   5.896   6.273
14479SOL     OW55498   5.282   5.601   5.973
14479SOL    HW155499   5.289   5.555   5.885
14479SOL    HW255500   5.186   5.611   5.998
14480SOL     OW55501   4.258   6.916   7.336
14480SOL    HW155502   4.219   6.979   7.269
14480SOL    HW255503   4.341   6.956   7.376
14481SOL     OW55504   4.134   6.648   7.168
14481SOL    HW155505   4.153   6.672   7.073
14481SOL    HW255506   4.127   6.731   7.223
14482SOL     OW55507   3.795   6.938   6.642
14482SOL    HW155508   3.764   6.864   6.583
14482SOL    HW255509   3.727   6.956   6.713
14483SOL     OW55510   4.881   6.139   6.375
14483SOL    HW155511   4.963   6.116   6.323
14483SOL    HW255512   4.876   6.080   6.456
14484SOL     OW55513   5.481   6.166   7.211
14484SOL    HW155514   5.470   6.252   7.160
14484SOL    HW255515   5.575   6.157   7.241
14485SOL     OW55516   5.052   5.939   6.630
14485SOL    HW155517   5.026   6.036   6.636
14485SOL    HW255518   5.052   5.899   6.722
14486SOL     OW55519   5.282   6.071   7.381
14486SOL    HW155520   5.362   6.096   7.325
14486SOL    HW255521   5.313   6.036   7.469
14487SOL     OW55522   4.993   6.374   5.961
14487SOL    HW155523   4.939   6.372   6.045
14487SOL    HW255524   5.070   6.437   5.972
14488SOL     OW55525   5.290   6.470   6.181
14488SOL    HW155526   5.304   6.433   6.088
14488SOL    HW255527   5.201   6.440   6.215
14489SOL     OW55528   5.446   6.407   7.076
14489SOL    HW155529   5.348   6.428   7.078
14489SOL    HW255530   5.495   6.483   7.035
14490SOL     OW55531   5.300   5.827   5.755
14490SOL    HW155532   5.305   5.869   5.846
14490SOL    HW255533   5.233   5.752   5.757
14491SOL     OW55534   4.447   7.042   6.975
14491SOL    HW155535   4.384   7.120   6.982
14491SOL    HW255536   4.415   6.980   6.903
14492SOL     OW55537   3.838   5.837   7.240
14492SOL    HW155538   3.856   5.826   7.142
14492SOL    HW255539   3.740   5.833   7.257
14493SOL     OW55540   3.718   7.251   7.184
14493SOL    HW155541   3.790   7.237   7.252
14493SOL    HW255542   3.629   7.254   7.229
14494SOL     OW55543   3.886   5.907   6.208
14494SOL    HW155544   3.829   5.962   6.269
14494SOL    HW255545   3.956   5.859   6.261
14495SOL     OW55546   5.058   7.139   7.071
14495SOL    HW155547   5.011   7.207   7.126
14495SOL    HW255548   5.125   7.185   7.012
14496SOL     OW55549   4.023   6.098   5.806
14496SOL    HW155550   4.095   6.127   5.743
14496SOL    HW255551   3.979   6.178   5.846
14497SOL     OW55552   5.409   5.760   6.909
14497SOL    HW155553   5.365   5.808   6.985
14497SOL    HW255554   5.387   5.806   6.823
14498SOL     OW55555   4.138   7.361   6.272
14498SOL    HW155556   4.062   7.327   6.217
14498SOL    HW255557   4.224   7.324   6.237
14499SOL     OW55558   4.063   6.870   6.717
14499SOL    HW155559   4.075   6.886   6.814
14499SOL    HW255560   3.976   6.910   6.687
14500SOL     OW55561   4.947   7.074   7.363
14500SOL    HW155562   4.906   6.989   7.329
14500SOL    HW255563   4.927   7.148   7.299
14501SOL     OW55564   4.437   6.794   6.053
14501SOL    HW155565   4.480   6.725   5.995
14501SOL    HW255566   4.401   6.751   6.136
14502SOL     OW55567   4.069   6.345   6.255
14502SOL    HW155568   4.061   6.443   6.273
14502SOL    HW255569   4.153   6.311   6.296
14503SOL     OW55570   3.915   5.825   5.770
14503SOL    HW155571   3.959   5.794   5.687
14503SOL    HW255572   3.916   5.925   5.774
14504SOL     OW55573   4.203   6.664   5.767
14504SOL    HW155574   4.303   6.664   5.778
14504SOL    HW255575   4.172   6.757   5.746
14505SOL     OW55576   4.829   6.256   5.583
14505SOL    HW155577   4.760   6.313   5.539
14505SOL    HW255578   4.910   6.250   5.524
14506SOL     OW55579   4.564   6.175   5.726
14506SOL    HW155580   4.654   6.176   5.681
14506SOL    HW255581   4.541   6.081   5.751
14507SOL     OW55582   5.015   5.692   6.020
14507SOL    HW155583   4.925   5.676   6.061
14507SOL    HW255584   5.023   5.788   5.994
14508SOL     OW55585   5.129   6.092   7.036
14508SOL    HW155586   5.081   6.115   7.120
14508SOL    HW255587   5.063   6.062   6.967
14509SOL     OW55588   3.764   5.607   5.680
14509SOL    HW155589   3.827   5.530   5.688
14509SOL    HW255590   3.784   5.675   5.751
14510SOL     OW55591   5.336   6.594   5.781
14510SOL    HW155592   5.407   6.664   5.783
14510SOL    HW255593   5.323   6.564   5.686
14511SOL     OW55594   4.461   6.564   7.020
14511SOL    HW155595   4.530   6.616   6.970
14511SOL    HW255596   4.456   6.597   7.115
14512SOL     OW55597   4.853   6.585   7.180
14512SOL    HW155598   4.775   6.531   7.213
14512SOL    HW255599   4.934   6.563   7.235
14513SOL     OW55600   4.782   5.767   6.176
14513SOL    HW155601   4.841   5.827   6.231
14513SOL    HW255602   4.709   5.731   6.233
14514SOL     OW55603   4.892   7.299   7.216
14514SOL    HW155604   4.797   7.297   7.184
14514SOL    HW255605   4.913   7.390   7.253
14515SOL     OW55606   4.310   5.644   6.447
14515SOL    HW155607   4.238   5.577   6.433
14515SOL    HW255608   4.392   5.598   6.482
14516SOL     OW55609   4.010   7.309   6.814
14516SOL    HW155610   3.990   7.291   6.718
14516SOL    HW255611   3.937   7.271   6.871
14517SOL     OW55612   4.703   6.773   6.359
14517SOL    HW155613   4.742   6.816   6.278
14517SOL    HW255614   4.776   6.756   6.426
14518SOL     OW55615   3.964   5.556   5.967
14518SOL    HW155616   4.002   5.644   5.994
14518SOL    HW255617   3.887   5.532   6.027
14519SOL     OW55618   4.380   6.173   7.295
14519SOL    HW155619   4.332   6.224   7.224
14519SOL    HW255620   4.473   6.152   7.265
14520SOL     OW55621   3.786   6.643   5.787
14520SOL    HW155622   3.776   6.546   5.766
14520SOL    HW255623   3.839   6.688   5.715
14521SOL     OW55624   5.483   5.755   6.388
14521SOL    HW155625   5.438   5.737   6.475
14521SOL    HW255626   5.581   5.772   6.404
14522SOL     OW55627   4.531   6.731   6.640
14522SOL    HW155628   4.482   6.646   6.621
14522SOL    HW255629   4.601   6.746   6.571
14523SOL     OW55630   4.869   6.154   5.849
14523SOL    HW155631   4.921   6.226   5.895
14523SOL    HW255632   4.882   6.161   5.751
14524SOL     OW55633   5.230   6.969   7.176
14524SOL    HW155634   5.215   6.871   7.190
14524SOL    HW255635   5.147   7.011   7.140
14525SOL     OW55636   3.987   6.411   6.916
14525SOL    HW155637   3.951   6.321   6.942
14525SOL    HW255638   3.948   6.481   6.976
14526SOL     OW55639   4.489   7.037   5.574
14526SOL    HW155640   4.464   7.114   5.633
14526SOL    HW255641   4.553   6.977   5.622
14527SOL     OW55642   4.307   7.244   6.608
14527SOL    HW155643   4.327   7.214   6.515
14527SOL    HW255644   4.232   7.189   6.645
14528SOL     OW55645   4.628   7.002   5.994
14528SOL    HW155646   4.678   6.990   5.909
14528SOL    HW255647   4.574   6.919   6.013
14529SOL     OW55648   3.818   6.349   6.394
14529SOL    HW155649   3.913   6.340   6.362
14529SOL    HW255650   3.784   6.441   6.373
14530SOL     OW55651   3.755   6.466   7.321
14530SOL    HW155652   3.670   6.417   7.302
14530SOL    HW255653   3.782   6.453   7.416
14531SOL     OW55654   4.652   7.375   7.027
14531SOL    HW155655   4.624   7.288   7.068
14531SOL    HW255656   4.596   7.449   7.064
14532SOL     OW55657   4.881   6.722   6.557
14532SOL    HW155658   4.865   6.816   6.588
14532SOL    HW255659   4.884   6.661   6.637
14533SOL     OW55660   4.155   5.993   7.321
14533SOL    HW155661   4.191   5.940   7.244
14533SOL    HW255662   4.216   6.070   7.339
14534SOL     OW55663   4.219   6.410   5.893
14534SOL    HW155664   4.169   6.475   5.837
14534SOL    HW255665   4.161   6.331   5.912
14535SOL     OW55666   5.300   6.441   6.591
14535SOL    HW155667   5.319   6.480   6.500
14535SOL    HW255668   5.254   6.510   6.647
14536SOL     OW55669   4.992   5.884   6.887
14536SOL    HW155670   5.063   5.856   6.951
14536SOL    HW255671   4.939   5.804   6.859
14537SOL     OW55672   3.693   5.583   6.088
14537SOL    HW155673   3.606   5.570   6.041
14537SOL    HW255674   3.701   5.678   6.118
14538SOL     OW55675   4.914   5.684   7.329
14538SOL    HW155676   4.973   5.700   7.409
14538SOL    HW255677   4.861   5.767   7.310
14539SOL     OW55678   4.130   7.103   7.154
14539SOL    HW155679   4.072   7.168   7.203
14539SOL    HW255680   4.192   7.153   7.094
14540SOL     OW55681   5.486   6.990   7.095
14540SOL    HW155682   5.514   7.083   7.117
14540SOL    HW255683   5.393   6.974   7.128
14541SOL     OW55684   4.140   7.049   6.217
14541SOL    HW155685   4.138   6.950   6.230
14541SOL    HW255686   4.049   7.082   6.194
14542SOL     OW55687   4.781   7.166   6.805
14542SOL    HW155688   4.707   7.230   6.823
14542SOL    HW255689   4.860   7.215   6.767
14543SOL     OW55690   3.990   7.296   7.304
14543SOL    HW155691   4.033   7.380   7.270
14543SOL    HW255692   4.015   7.283   7.400
14544SOL     OW55693   3.850   6.832   7.175
14544SOL    HW155694   3.829   6.737   7.148
14544SOL    HW255695   3.781   6.893   7.137
14545SOL     OW55696   3.939   7.197   6.579
14545SOL    HW155697   3.881   7.117   6.593
14545SOL    HW255698   3.963   7.204   6.482
14546SOL     OW55699   4.685   5.718   6.434
14546SOL    HW155700   4.781   5.719   6.462
14546SOL    HW255701   4.630   5.675   6.506
14547SOL     OW55702   4.747   6.724   5.950
14547SOL    HW155703   4.827   6.760   5.998
14547SOL    HW255704   4.705   6.651   6.006
14548SOL     OW55705   5.338   5.991   6.314
14548SOL    HW155706   5.357   6.077   6.361
14548SOL    HW255707   5.406   5.922   6.342
14549SOL     OW55708   4.481   6.663   5.800
14549SOL    HW155709   4.553   6.722   5.765
14549SOL    HW255710   4.521   6.579   5.836
14550SOL     OW55711   4.552   5.639   5.652
14550SOL    HW155712   4.627   5.573   5.664
14550SOL    HW255713   4.583   5.730   5.680
14551SOL     OW55714   4.219   6.626   6.918
14551SOL    HW155715   4.315   6.606   6.938
14551SOL    HW255716   4.208   6.724   6.900
14552SOL     OW55717   5.441   6.669   6.887
14552SOL    HW155718   5.455   6.767   6.901
14552SOL    HW255719   5.498   6.638   6.811
14553SOL     OW55720   3.924   6.778   5.579
14553SOL    HW155721   3.916   6.790   5.480
14553SOL    HW255722   3.983   6.849   5.617
14554SOL     OW55723   4.351   7.217   5.739
14554SOL    HW155724   4.326   7.312   5.723
14554SOL    HW255725   4.318   7.189   5.829
14555SOL     OW55726   5.001   6.640   6.963
14555SOL    HW155727   4.945   6.599   7.034
14555SOL    HW255728   4.981   6.738   6.957
14556SOL     OW55729   4.268   7.256   6.963
14556SOL    HW155730   4.317   7.336   6.927
14556SOL    HW255731   4.176   7.254   6.924
14557SOL     OW55732   3.911   6.137   7.325
14557SOL    HW155733   3.928   6.038   7.330
14557SOL    HW255734   3.975   6.185   7.386
14558SOL     OW55735   3.746   6.471   6.125
14558SOL    HW155736   3.753   6.570   6.112
14558SOL    HW255737   3.655   6.448   6.159
14559SOL     OW55738   4.333   6.902   6.771
14559SOL    HW155739   4.246   6.901   6.722
14559SOL    HW255740   4.399   6.842   6.724
14560SOL     OW55741   4.070   6.890   6.983
14560SOL    HW155742   4.089   6.978   7.027
14560SOL    HW255743   3.975   6.864   7.001
14561SOL     OW55744   5.313   7.206   7.331
14561SOL    HW155745   5.282   7.128   7.276
14561SOL    HW255746   5.282   7.291   7.289
14562SOL     OW55747   5.021   6.744   6.052
14562SOL    HW155748   5.120   6.748   6.068
14562SOL    HW255749   5.004   6.730   5.954
14563SOL     OW55750   4.374   5.910   6.000
14563SOL    HW155751   4.276   5.904   5.980
14563SOL    HW255752   4.393   5.867   6.088
14564SOL     OW55753   5.294   5.593   6.259
14564SOL    HW155754   5.289   5.634   6.168
14564SOL    HW255755   5.375   5.627   6.306
14565SOL     OW55756   4.897   6.349   6.952
14565SOL    HW155757   4.996   6.358   6.942
14565SOL    HW255758   4.853   6.351   6.862
14566SOL     OW55759   5.056   7.016   6.566
14566SOL    HW155760   4.970   6.973   6.595
14566SOL    HW255761   5.045   7.056   6.475
14567SOL     OW55762   5.059   6.001   6.241
14567SOL    HW155763   5.058   5.993   6.142
14567SOL    HW255764   5.148   5.973   6.276
14568SOL     OW55765   4.786   7.017   8.074
14568SOL    HW155766   4.877   7.051   8.097
14568SOL    HW255767   4.758   7.055   7.986
14569SOL     OW55768   5.297   6.813   7.932
14569SOL    HW155769   5.308   6.897   7.986
14569SOL    HW255770   5.387   6.776   7.909
14570SOL     OW55771   5.377   6.095   8.796
14570SOL    HW155772   5.279   6.087   8.818
14570SOL    HW255773   5.430   6.084   8.880
14571SOL     OW55774   4.044   5.732   7.401
14571SOL    HW155775   3.957   5.729   7.352
14571SOL    HW255776   4.095   5.814   7.373
14572SOL     OW55777   5.031   7.121   8.176
14572SOL    HW155778   5.020   7.218   8.199
14572SOL    HW255779   5.124   7.104   8.146
14573SOL     OW55780   4.909   5.632   8.734
14573SOL    HW155781   4.833   5.587   8.781
14573SOL    HW255782   4.938   5.577   8.656
14574SOL     OW55783   4.647   6.412   9.111
14574SOL    HW155784   4.612   6.387   9.021
14574SOL    HW255785   4.571   6.433   9.172
14575SOL     OW55786   4.254   7.086   7.805
14575SOL    HW155787   4.210   7.095   7.894
14575SOL    HW255788   4.325   7.016   7.809
14576SOL     OW55789   4.272   5.619   7.527
14576SOL    HW155790   4.360   5.647   7.488
14576SOL    HW255791   4.200   5.682   7.497
14577SOL     OW55792   5.242   6.604   8.910
14577SOL    HW155793   5.150   6.609   8.872
14577SOL    HW255794   5.307   6.642   8.844
14578SOL     OW55795   5.142   6.611   8.591
14578SOL    HW155796   5.067   6.600   8.656
14578SOL    HW255797   5.179   6.704   8.597
14579SOL     OW55798   4.638   6.866   8.891
14579SOL    HW155799   4.581   6.929   8.837
14579SOL    HW255800   4.671   6.792   8.832
14580SOL     OW55801   4.181   6.759   8.100
14580SOL    HW155802   4.114   6.713   8.159
14580SOL    HW255803   4.273   6.727   8.123
14581SOL     OW55804   4.408   6.165   7.931
14581SOL    HW155805   4.447   6.235   7.872
14581SOL    HW255806   4.382   6.085   7.877
14582SOL     OW55807   5.028   6.073   9.140
14582SOL    HW155808   5.124   6.077   9.166
14582SOL    HW255809   4.984   5.997   9.187
14583SOL     OW55810   4.111   6.928   7.584
14583SOL    HW155811   4.175   6.944   7.509
14583SOL    HW255812   4.135   6.986   7.662
14584SOL     OW55813   4.262   5.884   8.394
14584SOL    HW155814   4.338   5.949   8.390
14584SOL    HW255815   4.292   5.795   8.361
14585SOL     OW55816   3.959   6.310   7.812
14585SOL    HW155817   3.974   6.244   7.886
14585SOL    HW255818   3.909   6.389   7.847
14586SOL     OW55819   4.545   7.255   7.989
14586SOL    HW155820   4.610   7.188   7.953
14586SOL    HW255821   4.535   7.331   7.925
14587SOL     OW55822   5.437   7.137   7.731
14587SOL    HW155823   5.533   7.111   7.724
14587SOL    HW255824   5.413   7.197   7.655
14588SOL     OW55825   5.349   5.830   8.502
14588SOL    HW155826   5.400   5.902   8.455
14588SOL    HW255827   5.254   5.857   8.511
14589SOL     OW55828   4.749   5.859   7.771
14589SOL    HW155829   4.774   5.953   7.792
14589SOL    HW255830   4.750   5.805   7.855
14590SOL     OW55831   3.873   6.572   8.956
14590SOL    HW155832   3.969   6.587   8.974
14590SOL    HW255833   3.835   6.510   9.025
14591SOL     OW55834   4.199   6.217   7.499
14591SOL    HW155835   4.159   6.296   7.452
14591SOL    HW255836   4.288   6.196   7.459
14592SOL     OW55837   4.372   7.141   8.197
14592SOL    HW155838   4.445   7.164   8.133
14592SOL    HW255839   4.301   7.088   8.151
14593SOL     OW55840   4.714   6.173   8.951
14593SOL    HW155841   4.747   6.090   8.998
14593SOL    HW255842   4.787   6.241   8.950
14594SOL     OW55843   5.318   6.973   8.173
14594SOL    HW155844   5.314   7.008   8.266
14594SOL    HW255845   5.377   7.032   8.117
14595SOL     OW55846   4.049   6.794   7.849
14595SOL    HW155847   4.095   6.768   7.934
14595SOL    HW255848   4.069   6.726   7.778
14596SOL     OW55849   4.907   5.849   7.560
14596SOL    HW155850   5.001   5.819   7.578
14596SOL    HW255851   4.855   5.849   7.646
14597SOL     OW55852   4.059   6.054   8.655
14597SOL    HW155853   4.049   5.967   8.607
14597SOL    HW255854   3.995   6.121   8.618
14598SOL     OW55855   5.141   6.334   8.693
14598SOL    HW155856   5.145   6.428   8.658
14598SOL    HW255857   5.234   6.303   8.715
14599SOL     OW55858   4.094   5.826   7.814
14599SOL    HW155859   4.048   5.866   7.893
14599SOL    HW255860   4.042   5.845   7.732
14600SOL     OW55861   5.517   6.071   8.581
14600SOL    HW155862   5.574   6.153   8.583
14600SOL    HW255863   5.458   6.070   8.661
14601SOL     OW55864   5.534   7.297   8.494
14601SOL    HW155865   5.580   7.307   8.582
14601SOL    HW255866   5.601   7.300   8.421
14602SOL     OW55867   4.647   6.037   8.056
14602SOL    HW155868   4.723   6.065   8.115
14602SOL    HW255869   4.603   6.117   8.017
14603SOL     OW55870   4.882   6.501   7.573
14603SOL    HW155871   4.919   6.451   7.651
14603SOL    HW255872   4.812   6.446   7.528
14604SOL     OW55873   4.724   5.923   9.194
14604SOL    HW155874   4.787   5.928   9.271
14604SOL    HW255875   4.632   5.901   9.227
14605SOL     OW55876   5.465   6.170   7.652
14605SOL    HW155877   5.486   6.089   7.598
14605SOL    HW255878   5.482   6.151   7.749
14606SOL     OW55879   4.759   7.308   7.560
14606SOL    HW155880   4.793   7.221   7.525
14606SOL    HW255881   4.727   7.296   7.654
14607SOL     OW55882   4.440   5.575   9.092
14607SOL    HW155883   4.447   5.481   9.059
14607SOL    HW255884   4.497   5.585   9.174
14608SOL     OW55885   5.363   6.176   8.360
14608SOL    HW155886   5.348   6.267   8.397
14608SOL    HW255887   5.433   6.129   8.414
14609SOL     OW55888   4.773   6.842   9.126
14609SOL    HW155889   4.795   6.752   9.088
14609SOL    HW255890   4.708   6.889   9.067
14610SOL     OW55891   4.428   6.684   9.130
14610SOL    HW155892   4.399   6.761   9.187
14610SOL    HW255893   4.438   6.603   9.188
14611SOL     OW55894   5.063   5.548   8.236
14611SOL    HW155895   5.012   5.632   8.218
14611SOL    HW255896   5.149   5.550   8.185
14612SOL     OW55897   5.418   5.754   9.165
14612SOL    HW155898   5.395   5.775   9.260
14612SOL    HW255899   5.394   5.659   9.145
14613SOL     OW55900   3.721   6.158   7.909
14613SOL    HW155901   3.723   6.109   7.996
14613SOL    HW255902   3.723   6.257   7.927
14614SOL     OW55903   4.042   5.746   8.230
14614SOL    HW155904   4.094   5.786   8.305
14614SOL    HW255905   4.095   5.673   8.187
14615SOL     OW55906   4.026   5.794   8.564
14615SOL    HW155907   3.991   5.701   8.564
14615SOL    HW255908   4.113   5.797   8.515
14616SOL     OW55909   4.693   6.416   8.304
14616SOL    HW155910   4.719   6.496   8.250
14616SOL    HW255911   4.687   6.336   8.244
14617SOL     OW55912   3.894   7.043   7.763
14617SOL    HW155913   3.921   6.949   7.783
14617SOL    HW255914   3.919   7.065   7.669
14618SOL     OW55915   5.176   6.912   8.637
14618SOL    HW155916   5.147   6.949   8.548
14618SOL    HW255917   5.098   6.912   8.699
14619SOL     OW55918   3.908   7.186   8.000
14619SOL    HW155919   3.824   7.237   8.018
14619SOL    HW255920   3.899   7.135   7.915
14620SOL     OW55921   5.429   6.983   8.675
14620SOL    HW155922   5.460   6.997   8.769
14620SOL    HW255923   5.330   6.970   8.674
14621SOL     OW55924   4.181   6.483   7.402
14621SOL    HW155925   4.150   6.517   7.314
14621SOL    HW255926   4.185   6.558   7.468
14622SOL     OW55927   4.698   6.670   8.701
14622SOL    HW155928   4.748   6.585   8.685
14622SOL    HW255929   4.652   6.697   8.616
14623SOL     OW55930   3.785   6.375   7.575
14623SOL    HW155931   3.845   6.322   7.635
14623SOL    HW255932   3.691   6.343   7.587
14624SOL     OW55933   5.305   6.373   7.775
14624SOL    HW155934   5.373   6.307   7.742
14624SOL    HW255935   5.320   6.461   7.731
14625SOL     OW55936   4.553   7.360   8.423
14625SOL    HW155937   4.599   7.293   8.365
14625SOL    HW255938   4.479   7.316   8.473
14626SOL     OW55939   4.460   6.429   7.459
14626SOL    HW155940   4.489   6.348   7.510
14626SOL    HW255941   4.360   6.428   7.450
14627SOL     OW55942   5.056   5.961   7.805
14627SOL    HW155943   4.993   6.019   7.753
14627SOL    HW255944   5.149   5.995   7.793
14628SOL     OW55945   3.953   6.162   8.905
14628SOL    HW155946   3.973   6.067   8.880
14628SOL    HW255947   3.916   6.165   8.998
14629SOL     OW55948   3.835   5.817   8.795
14629SOL    HW155949   3.907   5.827   8.726
14629SOL    HW255950   3.746   5.816   8.750
14630SOL     OW55951   4.733   6.438   8.560
14630SOL    HW155952   4.727   6.424   8.461
14630SOL    HW255953   4.652   6.399   8.604
14631SOL     OW55954   5.324   5.972   7.875
14631SOL    HW155955   5.420   5.943   7.872
14631SOL    HW255956   5.285   5.950   7.964
14632SOL     OW55957   4.608   7.047   8.312
14632SOL    HW155958   4.666   7.058   8.231
14632SOL    HW255959   4.514   7.071   8.290
14633SOL     OW55960   4.558   5.913   7.597
14633SOL    HW155961   4.467   5.926   7.635
14633SOL    HW255962   4.618   5.873   7.667
14634SOL     OW55963   4.669   6.858   7.532
14634SOL    HW155964   4.722   6.798   7.592
14634SOL    HW255965   4.708   6.859   7.441
14635SOL     OW55966   5.420   7.153   8.017
14635SOL    HW155967   5.387   7.246   8.036
14635SOL    HW255968   5.418   7.137   7.918
14636SOL     OW55969   4.835   6.426   8.006
14636SOL    HW155970   4.900   6.454   8.077
14636SOL    HW255971   4.756   6.487   8.008
14637SOL     OW55972   4.583   7.152   9.030
14637SOL    HW155973   4.571   7.083   8.959
14637SOL    HW255974   4.546   7.117   9.117
14638SOL     OW55975   5.027   6.466   8.209
14638SOL    HW155976   5.048   6.408   8.287
14638SOL    HW255977   5.036   6.562   8.235
14639SOL     OW55978   3.983   6.595   8.255
14639SOL    HW155979   3.906   6.657   8.248
14639SOL    HW255980   4.020   6.596   8.348
14640SOL     OW55981   4.616   6.543   7.954
14640SOL    HW155982   4.603   6.454   7.911
14640SOL    HW255983   4.547   6.557   8.025
14641SOL     OW55984   4.920   6.931   8.793
14641SOL    HW155985   4.953   7.016   8.834
14641SOL    HW255986   4.821   6.927   8.800
14642SOL     OW55987   3.727   5.848   7.857
14642SOL    HW155988   3.787   5.799   7.795
14642SOL    HW255989   3.782   5.900   7.922
14643SOL     OW55990   5.350   7.346   7.548
14643SOL    HW155991   5.440   7.390   7.550
14643SOL    HW255992   5.349   7.277   7.476
14644SOL     OW55993   4.514   6.313   8.706
14644SOL    HW155994   4.516   6.399   8.757
14644SOL    HW255995   4.571   6.245   8.753
14645SOL     OW55996   3.751   7.340   8.777
14645SOL    HW155997   3.759   7.440   8.775
14645SOL    HW255998   3.727   7.311   8.870
14646SOL     OW55999   4.532   6.359   7.771
14646SOL    HW156000   4.443   6.387   7.736
14646SOL    HW256001   4.573   6.293   7.707
14647SOL     OW56002   4.054   6.077   8.310
14647SOL    HW156003   4.110   6.070   8.227
14647SOL    HW256004   4.111   6.055   8.390
14648SOL     OW56005   4.051   7.275   7.581
14648SOL    HW156006   4.143   7.305   7.556
14648SOL    HW256007   4.026   7.314   7.670
14649SOL     OW56008   5.027   7.297   8.518
14649SOL    HW156009   5.046   7.360   8.444
14649SOL    HW256010   5.035   7.203   8.485
14650SOL     OW56011   3.732   6.692   8.330
14650SOL    HW156012   3.642   6.708   8.291
14650SOL    HW256013   3.730   6.608   8.385
14651SOL     OW56014   4.483   5.597   7.780
14651SOL    HW156015   4.444   5.586   7.689
14651SOL    HW256016   4.439   5.673   7.827
14652SOL     OW56017   3.728   6.733   7.874
14652SOL    HW156018   3.806   6.791   7.898
14652SOL    HW256019   3.747   6.684   7.789
14653SOL     OW56020   5.258   5.861   8.958
14653SOL    HW156021   5.197   5.939   8.955
14653SOL    HW256022   5.313   5.865   9.041
14654SOL     OW56023   4.974   5.807   8.249
14654SOL    HW156024   4.973   5.885   8.186
14654SOL    HW256025   5.017   5.834   8.335
14655SOL     OW56026   5.094   5.613   7.545
14655SOL    HW156027   5.174   5.553   7.542
14655SOL    HW256028   5.020   5.566   7.593
14656SOL     OW56029   5.307   5.585   8.979
14656SOL    HW156030   5.333   5.542   8.893
14656SOL    HW256031   5.257   5.669   8.961
14657SOL     OW56032   4.409   5.844   8.111
14657SOL    HW156033   4.398   5.786   8.192
14657SOL    HW256034   4.494   5.896   8.119
14658SOL     OW56035   4.989   6.195   8.503
14658SOL    HW156036   5.043   6.235   8.429
14658SOL    HW256037   5.027   6.224   8.591
14659SOL     OW56038   5.282   5.601   7.819
14659SOL    HW156039   5.289   5.555   7.731
14659SOL    HW256040   5.186   5.611   7.844
14660SOL     OW56041   4.258   6.916   9.182
14660SOL    HW156042   4.219   6.979   9.115
14660SOL    HW256043   4.341   6.956   9.222
14661SOL     OW56044   4.134   6.648   9.014
14661SOL    HW156045   4.153   6.672   8.919
14661SOL    HW256046   4.127   6.731   9.069
14662SOL     OW56047   3.795   6.938   8.488
14662SOL    HW156048   3.764   6.864   8.429
14662SOL    HW256049   3.727   6.956   8.559
14663SOL     OW56050   4.881   6.139   8.221
14663SOL    HW156051   4.963   6.116   8.169
14663SOL    HW256052   4.876   6.080   8.302
14664SOL     OW56053   5.481   6.166   9.057
14664SOL    HW156054   5.470   6.252   9.006
14664SOL    HW256055   5.575   6.157   9.087
14665SOL     OW56056   5.052   5.939   8.476
14665SOL    HW156057   5.026   6.036   8.482
14665SOL    HW256058   5.052   5.899   8.568
14666SOL     OW56059   5.282   6.071   9.227
14666SOL    HW156060   5.362   6.096   9.171
14666SOL    HW256061   5.313   6.036   9.315
14667SOL     OW56062   4.993   6.374   7.807
14667SOL    HW156063   4.939   6.372   7.891
14667SOL    HW256064   5.070   6.437   7.818
14668SOL     OW56065   5.290   6.470   8.027
14668SOL    HW156066   5.304   6.433   7.934
14668SOL    HW256067   5.201   6.440   8.061
14669SOL     OW56068   5.446   6.407   8.922
14669SOL    HW156069   5.348   6.428   8.924
14669SOL    HW256070   5.495   6.483   8.881
14670SOL     OW56071   5.300   5.827   7.601
14670SOL    HW156072   5.305   5.869   7.692
14670SOL    HW256073   5.233   5.752   7.603
14671SOL     OW56074   4.447   7.042   8.821
14671SOL    HW156075   4.384   7.120   8.828
14671SOL    HW256076   4.415   6.980   8.749
14672SOL     OW56077   3.838   5.837   9.086
14672SOL    HW156078   3.856   5.826   8.988
14672SOL    HW256079   3.740   5.833   9.103
14673SOL     OW56080   3.718   7.251   9.030
14673SOL    HW156081   3.790   7.237   9.098
14673SOL    HW256082   3.629   7.254   9.075
14674SOL     OW56083   3.886   5.907   8.054
14674SOL    HW156084   3.829   5.962   8.115
14674SOL    HW256085   3.956   5.859   8.107
14675SOL     OW56086   5.058   7.139   8.917
14675SOL    HW156087   5.011   7.207   8.972
14675SOL    HW256088   5.125   7.185   8.858
14676SOL     OW56089   4.023   6.098   7.652
14676SOL    HW156090   4.095   6.127   7.589
14676SOL    HW256091   3.979   6.178   7.692
14677SOL     OW56092   5.409   5.760   8.755
14677SOL    HW156093   5.365   5.808   8.831
14677SOL    HW256094   5.387   5.806   8.669
14678SOL     OW56095   4.138   7.361   8.118
14678SOL    HW156096   4.062   7.327   8.063
14678SOL    HW256097   4.224   7.324   8.083
14679SOL     OW56098   4.063   6.870   8.563
14679SOL    HW156099   4.075   6.886   8.660
14679SOL    HW256100   3.976   6.910   8.533
14680SOL     OW56101   4.947   7.074   9.209
14680SOL    HW156102   4.906   6.989   9.175
14680SOL    HW256103   4.927   7.148   9.145
14681SOL     OW56104   4.437   6.794   7.899
14681SOL    HW156105   4.480   6.725   7.841
14681SOL    HW256106   4.401   6.751   7.982
14682SOL     OW56107   4.069   6.345   8.101
14682SOL    HW156108   4.061   6.443   8.119
14682SOL    HW256109   4.153   6.311   8.142
14683SOL     OW56110   3.915   5.825   7.616
14683SOL    HW156111   3.959   5.794   7.533
14683SOL    HW256112   3.916   5.925   7.620
14684SOL     OW56113   3.768   6.077   8.227
14684SOL    HW156114   3.732   6.170   8.219
14684SOL    HW256115   3.851   6.078   8.283
14685SOL     OW56116   4.203   6.664   7.613
14685SOL    HW156117   4.303   6.664   7.624
14685SOL    HW256118   4.172   6.757   7.592
14686SOL     OW56119   4.829   6.256   7.429
14686SOL    HW156120   4.760   6.313   7.385
14686SOL    HW256121   4.910   6.250   7.370
14687SOL     OW56122   4.564   6.175   7.572
14687SOL    HW156123   4.654   6.176   7.527
14687SOL    HW256124   4.541   6.081   7.597
14688SOL     OW56125   5.015   5.692   7.866
14688SOL    HW156126   4.925   5.676   7.907
14688SOL    HW256127   5.023   5.788   7.840
14689SOL     OW56128   5.129   6.092   8.882
14689SOL    HW156129   5.081   6.115   8.966
14689SOL    HW256130   5.063   6.062   8.813
14690SOL     OW56131   3.764   5.607   7.526
14690SOL    HW156132   3.827   5.530   7.534
14690SOL    HW256133   3.784   5.675   7.597
14691SOL     OW56134   4.037   6.582   8.527
14691SOL    HW156135   4.048   6.537   8.616
14691SOL    HW256136   4.064   6.678   8.534
14692SOL     OW56137   5.336   6.594   7.627
14692SOL    HW156138   5.407   6.664   7.629
14692SOL    HW256139   5.323   6.564   7.532
14693SOL     OW56140   4.318   6.195   8.549
14693SOL    HW156141   4.393   6.238   8.598
14693SOL    HW256142   4.251   6.160   8.615
14694SOL     OW56143   4.461   6.564   8.866
14694SOL    HW156144   4.530   6.616   8.816
14694SOL    HW256145   4.456   6.597   8.961
14695SOL     OW56146   4.853   6.585   9.026
14695SOL    HW156147   4.775   6.531   9.059
14695SOL    HW256148   4.934   6.563   9.081
14696SOL     OW56149   4.782   5.767   8.022
14696SOL    HW156150   4.841   5.827   8.077
14696SOL    HW256151   4.709   5.731   8.079
14697SOL     OW56152   4.892   7.299   9.062
14697SOL    HW156153   4.797   7.297   9.030
14697SOL    HW256154   4.913   7.390   9.099
14698SOL     OW56155   4.310   5.644   8.293
14698SOL    HW156156   4.238   5.577   8.279
14698SOL    HW256157   4.392   5.598   8.328
14699SOL     OW56158   4.010   7.309   8.660
14699SOL    HW156159   3.990   7.291   8.564
14699SOL    HW256160   3.937   7.271   8.717
14700SOL     OW56161   4.703   6.773   8.205
14700SOL    HW156162   4.742   6.816   8.124
14700SOL    HW256163   4.776   6.756   8.272
14701SOL     OW56164   4.397   6.501   8.407
14701SOL    HW156165   4.395   6.417   8.352
14701SOL    HW256166   4.346   6.487   8.492
14702SOL     OW56167   3.736   6.511   8.533
14702SOL    HW156168   3.825   6.489   8.573
14702SOL    HW256169   3.681   6.427   8.529
14703SOL     OW56170   3.964   5.556   7.813
14703SOL    HW156171   4.002   5.644   7.840
14703SOL    HW256172   3.887   5.532   7.873
14704SOL     OW56173   4.380   6.173   9.141
14704SOL    HW156174   4.332   6.224   9.070
14704SOL    HW256175   4.473   6.152   9.111
14705SOL     OW56176   3.786   6.643   7.633
14705SOL    HW156177   3.776   6.546   7.612
14705SOL    HW256178   3.839   6.688   7.561
14706SOL     OW56179   5.483   5.755   8.234
14706SOL    HW156180   5.438   5.737   8.321
14706SOL    HW256181   5.581   5.772   8.250
14707SOL     OW56182   4.531   6.731   8.486
14707SOL    HW156183   4.482   6.646   8.467
14707SOL    HW256184   4.601   6.746   8.417
14708SOL     OW56185   4.869   6.154   7.695
14708SOL    HW156186   4.921   6.226   7.741
14708SOL    HW256187   4.882   6.161   7.597
14709SOL     OW56188   5.230   6.969   9.022
14709SOL    HW156189   5.215   6.871   9.036
14709SOL    HW256190   5.147   7.011   8.986
14710SOL     OW56191   3.987   6.411   8.762
14710SOL    HW156192   3.951   6.321   8.788
14710SOL    HW256193   3.948   6.481   8.822
14711SOL     OW56194   4.489   7.037   7.420
14711SOL    HW156195   4.464   7.114   7.479
14711SOL    HW256196   4.553   6.977   7.468
14712SOL     OW56197   4.307   7.244   8.454
14712SOL    HW156198   4.327   7.214   8.361
14712SOL    HW256199   4.232   7.189   8.491
14713SOL     OW56200   4.450   6.655   8.171
14713SOL    HW156201   4.539   6.701   8.171
14713SOL    HW256202   4.443   6.595   8.250
14714SOL     OW56203   4.628   7.002   7.840
14714SOL    HW156204   4.678   6.990   7.755
14714SOL    HW256205   4.574   6.919   7.859
14715SOL     OW56206   3.818   6.349   8.240
14715SOL    HW156207   3.913   6.340   8.208
14715SOL    HW256208   3.784   6.441   8.219
14716SOL     OW56209   3.755   6.466   9.167
14716SOL    HW156210   3.670   6.417   9.148
14716SOL    HW256211   3.782   6.453   9.262
14717SOL     OW56212   4.652   7.375   8.873
14717SOL    HW156213   4.624   7.288   8.914
14717SOL    HW256214   4.596   7.449   8.910
14718SOL     OW56215   4.881   6.722   8.403
14718SOL    HW156216   4.865   6.816   8.434
14718SOL    HW256217   4.884   6.661   8.483
14719SOL     OW56218   4.155   5.993   9.167
14719SOL    HW156219   4.191   5.940   9.090
14719SOL    HW256220   4.216   6.070   9.185
14720SOL     OW56221   4.219   6.410   7.739
14720SOL    HW156222   4.169   6.475   7.683
14720SOL    HW256223   4.161   6.331   7.758
14721SOL     OW56224   5.300   6.441   8.437
14721SOL    HW156225   5.319   6.480   8.346
14721SOL    HW256226   5.254   6.510   8.493
14722SOL     OW56227   4.992   5.884   8.733
14722SOL    HW156228   5.063   5.856   8.797
14722SOL    HW256229   4.939   5.804   8.705
14723SOL     OW56230   3.693   5.583   7.934
14723SOL    HW156231   3.606   5.570   7.887
14723SOL    HW256232   3.701   5.678   7.964
14724SOL     OW56233   4.914   5.684   9.175
14724SOL    HW156234   4.973   5.700   9.255
14724SOL    HW256235   4.861   5.767   9.156
14725SOL     OW56236   4.130   7.103   9.000
14725SOL    HW156237   4.072   7.168   9.049
14725SOL    HW256238   4.192   7.153   8.940
14726SOL     OW56239   5.486   6.990   8.941
14726SOL    HW156240   5.514   7.083   8.963
14726SOL    HW256241   5.393   6.974   8.974
14727SOL     OW56242   4.736   6.103   8.491
14727SOL    HW156243   4.822   6.154   8.490
14727SOL    HW256244   4.742   6.029   8.558
14728SOL     OW56245   4.140   7.049   8.063
14728SOL    HW156246   4.138   6.950   8.076
14728SOL    HW256247   4.049   7.082   8.040
14729SOL     OW56248   4.781   7.166   8.651
14729SOL    HW156249   4.707   7.230   8.669
14729SOL    HW256250   4.860   7.215   8.613
14730SOL     OW56251   3.990   7.296   9.150
14730SOL    HW156252   4.033   7.380   9.116
14730SOL    HW256253   4.015   7.283   9.246
14731SOL     OW56254   3.850   6.832   9.021
14731SOL    HW156255   3.829   6.737   8.994
14731SOL    HW256256   3.781   6.893   8.983
14732SOL     OW56257   3.939   7.197   8.425
14732SOL    HW156258   3.881   7.117   8.439
14732SOL    HW256259   3.963   7.204   8.328
14733SOL     OW56260   4.685   5.718   8.280
14733SOL    HW156261   4.781   5.719   8.308
14733SOL    HW256262   4.630   5.675   8.352
14734SOL     OW56263   4.747   6.724   7.796
14734SOL    HW156264   4.827   6.760   7.844
14734SOL    HW256265   4.705   6.651   7.852
14735SOL     OW56266   5.338   5.991   8.160
14735SOL    HW156267   5.357   6.077   8.207
14735SOL    HW256268   5.406   5.922   8.188
14736SOL     OW56269   4.481   6.663   7.646
14736SOL    HW156270   4.553   6.722   7.611
14736SOL    HW256271   4.521   6.579   7.682
14737SOL     OW56272   4.552   5.639   7.498
14737SOL    HW156273   4.627   5.573   7.510
14737SOL    HW256274   4.583   5.730   7.526
14738SOL     OW56275   4.231   6.068   8.110
14738SOL    HW156276   4.269   5.979   8.136
14738SOL    HW256277   4.298   6.118   8.055
14739SOL     OW56278   4.219   6.626   8.764
14739SOL    HW156279   4.315   6.606   8.784
14739SOL    HW256280   4.208   6.724   8.746
14740SOL     OW56281   5.441   6.669   8.733
14740SOL    HW156282   5.455   6.767   8.747
14740SOL    HW256283   5.498   6.638   8.657
14741SOL     OW56284   3.924   6.778   7.425
14741SOL    HW156285   3.916   6.790   7.326
14741SOL    HW256286   3.983   6.849   7.463
14742SOL     OW56287   4.351   7.217   7.585
14742SOL    HW156288   4.326   7.312   7.569
14742SOL    HW256289   4.318   7.189   7.675
14743SOL     OW56290   5.001   6.640   8.809
14743SOL    HW156291   4.945   6.599   8.880
14743SOL    HW256292   4.981   6.738   8.803
14744SOL     OW56293   4.268   7.256   8.809
14744SOL    HW156294   4.317   7.336   8.773
14744SOL    HW256295   4.176   7.254   8.770
14745SOL     OW56296   3.911   6.137   9.171
14745SOL    HW156297   3.928   6.038   9.176
14745SOL    HW256298   3.975   6.185   9.232
14746SOL     OW56299   5.350   7.098   8.410
14746SOL    HW156300   5.322   7.191   8.434
14746SOL    HW256301   5.400   7.057   8.486
14747SOL     OW56302   3.746   6.471   7.971
14747SOL    HW156303   3.753   6.570   7.958
14747SOL    HW256304   3.655   6.448   8.005
14748SOL     OW56305   4.255   6.269   8.909
14748SOL    HW156306   4.161   6.239   8.890
14748SOL    HW256307   4.264   6.366   8.886
14749SOL     OW56308   5.322   6.645   8.221
14749SOL    HW156309   5.284   6.734   8.194
14749SOL    HW256310   5.322   6.583   8.143
14750SOL     OW56311   4.480   6.051   8.390
14750SOL    HW156312   4.572   6.079   8.417
14750SOL    HW256313   4.412   6.102   8.444
14751SOL     OW56314   4.333   6.902   8.617
14751SOL    HW156315   4.246   6.901   8.568
14751SOL    HW256316   4.399   6.842   8.570
14752SOL     OW56317   3.899   6.244   8.531
14752SOL    HW156318   3.937   6.303   8.602
14752SOL    HW256319   3.882   6.297   8.449
14753SOL     OW56320   4.070   6.890   8.829
14753SOL    HW156321   4.089   6.978   8.873
14753SOL    HW256322   3.975   6.864   8.847
14754SOL     OW56323   5.021   6.744   7.898
14754SOL    HW156324   5.120   6.748   7.914
14754SOL    HW256325   5.004   6.730   7.800
14755SOL     OW56326   4.374   5.910   7.846
14755SOL    HW156327   4.276   5.904   7.826
14755SOL    HW256328   4.393   5.867   7.934
14756SOL     OW56329   5.294   5.593   8.105
14756SOL    HW156330   5.289   5.634   8.014
14756SOL    HW256331   5.375   5.627   8.152
14757SOL     OW56332   4.897   6.349   8.798
14757SOL    HW156333   4.996   6.358   8.788
14757SOL    HW256334   4.853   6.351   8.708
14758SOL     OW56335   4.391   6.309   8.200
14758SOL    HW156336   4.413   6.231   8.258
14758SOL    HW256337   4.400   6.283   8.104
14759SOL     OW56338   5.056   7.016   8.412
14759SOL    HW156339   4.970   6.973   8.441
14759SOL    HW256340   5.045   7.056   8.321
14760SOL     OW56341   5.059   6.001   8.087
14760SOL    HW156342   5.058   5.993   7.988
14760SOL    HW256343   5.148   5.973   8.122
14761SOL     OW56344   4.044   5.732   9.246
14761SOL    HW156345   3.957   5.729   9.197
14761SOL    HW256346   4.095   5.814   9.218
14762SOL     OW56347   4.254   7.086   9.650
14762SOL    HW156348   4.210   7.095   9.739
14762SOL    HW256349   4.325   7.016   9.654
14763SOL     OW56350   4.272   5.619   9.372
14763SOL    HW156351   4.360   5.647   9.333
14763SOL    HW256352   4.200   5.682   9.342
14764SOL     OW56353   4.181   6.759   9.945
14764SOL    HW156354   4.114   6.713  10.004
14764SOL    HW256355   4.273   6.727   9.968
14765SOL     OW56356   4.408   6.165   9.776
14765SOL    HW156357   4.447   6.235   9.717
14765SOL    HW256358   4.382   6.085   9.722
14766SOL     OW56359   4.111   6.928   9.429
14766SOL    HW156360   4.175   6.944   9.354
14766SOL    HW256361   4.135   6.986   9.507
14767SOL     OW56362   3.959   6.310   9.657
14767SOL    HW156363   3.974   6.244   9.731
14767SOL    HW256364   3.909   6.389   9.692
14768SOL     OW56365   4.749   5.859   9.616
14768SOL    HW156366   4.774   5.953   9.637
14768SOL    HW256367   4.750   5.805   9.700
14769SOL     OW56368   4.199   6.217   9.344
14769SOL    HW156369   4.159   6.296   9.297
14769SOL    HW256370   4.288   6.196   9.304
14770SOL     OW56371   4.049   6.794   9.694
14770SOL    HW156372   4.095   6.768   9.779
14770SOL    HW256373   4.069   6.726   9.623
14771SOL     OW56374   4.907   5.849   9.405
14771SOL    HW156375   5.001   5.819   9.423
14771SOL    HW256376   4.855   5.849   9.491
14772SOL     OW56377   4.094   5.826   9.659
14772SOL    HW156378   4.048   5.866   9.738
14772SOL    HW256379   4.042   5.845   9.577
14773SOL     OW56380   5.534   7.297  10.339
14773SOL    HW156381   5.580   7.307  10.427
14773SOL    HW256382   5.601   7.300  10.266
14774SOL     OW56383   4.647   6.037   9.901
14774SOL    HW156384   4.723   6.065   9.960
14774SOL    HW256385   4.603   6.117   9.862
14775SOL     OW56386   4.882   6.501   9.418
14775SOL    HW156387   4.919   6.451   9.496
14775SOL    HW256388   4.812   6.446   9.373
14776SOL     OW56389   5.465   6.170   9.497
14776SOL    HW156390   5.486   6.089   9.443
14776SOL    HW256391   5.482   6.151   9.594
14777SOL     OW56392   4.759   7.308   9.405
14777SOL    HW156393   4.793   7.221   9.370
14777SOL    HW256394   4.727   7.296   9.499
14778SOL     OW56395   3.721   6.158   9.754
14778SOL    HW156396   3.723   6.109   9.841
14778SOL    HW256397   3.723   6.257   9.772
14779SOL     OW56398   3.894   7.043   9.608
14779SOL    HW156399   3.921   6.949   9.628
14779SOL    HW256400   3.919   7.065   9.514
14780SOL     OW56401   3.908   7.186   9.845
14780SOL    HW156402   3.824   7.237   9.863
14780SOL    HW256403   3.899   7.135   9.760
14781SOL     OW56404   4.181   6.483   9.247
14781SOL    HW156405   4.150   6.517   9.159
14781SOL    HW256406   4.185   6.558   9.313
14782SOL     OW56407   3.785   6.375   9.420
14782SOL    HW156408   3.845   6.322   9.480
14782SOL    HW256409   3.691   6.343   9.432
14783SOL     OW56410   5.305   6.373   9.620
14783SOL    HW156411   5.373   6.307   9.587
14783SOL    HW256412   5.320   6.461   9.576
14784SOL     OW56413   4.460   6.429   9.304
14784SOL    HW156414   4.489   6.348   9.355
14784SOL    HW256415   4.360   6.428   9.295
14785SOL     OW56416   5.056   5.961   9.650
14785SOL    HW156417   4.993   6.019   9.598
14785SOL    HW256418   5.149   5.995   9.638
14786SOL     OW56419   5.324   5.972   9.720
14786SOL    HW156420   5.420   5.943   9.717
14786SOL    HW256421   5.285   5.950   9.809
14787SOL     OW56422   4.558   5.913   9.442
14787SOL    HW156423   4.467   5.926   9.480
14787SOL    HW256424   4.618   5.873   9.512
14788SOL     OW56425   4.669   6.858   9.377
14788SOL    HW156426   4.722   6.798   9.437
14788SOL    HW256427   4.708   6.859   9.286
14789SOL     OW56428   4.835   6.426   9.851
14789SOL    HW156429   4.900   6.454   9.922
14789SOL    HW256430   4.756   6.487   9.853
14790SOL     OW56431   5.027   6.466  10.054
14790SOL    HW156432   5.048   6.408  10.132
14790SOL    HW256433   5.036   6.562  10.080
14791SOL     OW56434   4.616   6.543   9.799
14791SOL    HW156435   4.603   6.454   9.756
14791SOL    HW256436   4.547   6.557   9.870
14792SOL     OW56437   3.727   5.848   9.702
14792SOL    HW156438   3.787   5.799   9.640
14792SOL    HW256439   3.782   5.900   9.767
14793SOL     OW56440   4.532   6.359   9.616
14793SOL    HW156441   4.443   6.387   9.581
14793SOL    HW256442   4.573   6.293   9.552
14794SOL     OW56443   4.051   7.275   9.426
14794SOL    HW156444   4.143   7.305   9.401
14794SOL    HW256445   4.026   7.314   9.515
14795SOL     OW56446   4.483   5.597   9.625
14795SOL    HW156447   4.444   5.586   9.534
14795SOL    HW256448   4.439   5.673   9.672
14796SOL     OW56449   3.728   6.733   9.719
14796SOL    HW156450   3.806   6.791   9.743
14796SOL    HW256451   3.747   6.684   9.634
14797SOL     OW56452   5.094   5.613   9.390
14797SOL    HW156453   5.174   5.553   9.387
14797SOL    HW256454   5.020   5.566   9.438
14798SOL     OW56455   4.409   5.844   9.956
14798SOL    HW156456   4.398   5.786  10.037
14798SOL    HW256457   4.494   5.896   9.964
14799SOL     OW56458   5.282   5.601   9.664
14799SOL    HW156459   5.289   5.555   9.576
14799SOL    HW256460   5.186   5.611   9.689
14800SOL     OW56461   4.993   6.374   9.652
14800SOL    HW156462   4.939   6.372   9.736
14800SOL    HW256463   5.070   6.437   9.663
14801SOL     OW56464   5.290   6.470   9.872
14801SOL    HW156465   5.304   6.433   9.779
14801SOL    HW256466   5.201   6.440   9.906
14802SOL     OW56467   5.300   5.827   9.446
14802SOL    HW156468   5.305   5.869   9.537
14802SOL    HW256469   5.233   5.752   9.448
14803SOL     OW56470   4.023   6.098   9.497
14803SOL    HW156471   4.095   6.127   9.434
14803SOL    HW256472   3.979   6.178   9.537
14804SOL     OW56473   4.437   6.794   9.744
14804SOL    HW156474   4.480   6.725   9.686
14804SOL    HW256475   4.401   6.751   9.827
14805SOL     OW56476   3.915   5.825   9.461
14805SOL    HW156477   3.959   5.794   9.378
14805SOL    HW256478   3.916   5.925   9.465
14806SOL     OW56479   3.768   6.077  10.072
14806SOL    HW156480   3.732   6.170  10.064
14806SOL    HW256481   3.851   6.078  10.128
14807SOL     OW56482   4.203   6.664   9.458
14807SOL    HW156483   4.303   6.664   9.469
14807SOL    HW256484   4.172   6.757   9.437
14808SOL     OW56485   4.829   6.256   9.274
14808SOL    HW156486   4.760   6.313   9.230
14808SOL    HW256487   4.910   6.250   9.215
14809SOL     OW56488   4.564   6.175   9.417
14809SOL    HW156489   4.654   6.176   9.372
14809SOL    HW256490   4.541   6.081   9.442
14810SOL     OW56491   5.015   5.692   9.711
14810SOL    HW156492   4.925   5.676   9.752
14810SOL    HW256493   5.023   5.788   9.685
14811SOL     OW56494   3.764   5.607   9.371
14811SOL    HW156495   3.827   5.530   9.379
14811SOL    HW256496   3.784   5.675   9.442
14812SOL     OW56497   4.782   5.767   9.867
14812SOL    HW156498   4.841   5.827   9.922
14812SOL    HW256499   4.709   5.731   9.924
14813SOL     OW56500   3.964   5.556   9.658
14813SOL    HW156501   4.002   5.644   9.685
14813SOL    HW256502   3.887   5.532   9.718
14814SOL     OW56503   3.786   6.643   9.478
14814SOL    HW156504   3.776   6.546   9.457
14814SOL    HW256505   3.839   6.688   9.406
14815SOL     OW56506   5.483   5.755  10.079
14815SOL    HW156507   5.438   5.737  10.166
14815SOL    HW256508   5.581   5.772  10.095
14816SOL     OW56509   4.869   6.154   9.540
14816SOL    HW156510   4.921   6.226   9.586
14816SOL    HW256511   4.882   6.161   9.442
14817SOL     OW56512   4.489   7.037   9.265
14817SOL    HW156513   4.464   7.114   9.324
14817SOL    HW256514   4.553   6.977   9.313
14818SOL     OW56515   4.450   6.655  10.016
14818SOL    HW156516   4.539   6.701  10.016
14818SOL    HW256517   4.443   6.595  10.095
14819SOL     OW56518   4.219   6.410   9.584
14819SOL    HW156519   4.169   6.475   9.528
14819SOL    HW256520   4.161   6.331   9.603
14820SOL     OW56521   3.693   5.583   9.779
14820SOL    HW156522   3.606   5.570   9.732
14820SOL    HW256523   3.701   5.678   9.809
14821SOL     OW56524   4.140   7.049   9.908
14821SOL    HW156525   4.138   6.950   9.921
14821SOL    HW256526   4.049   7.082   9.885
14822SOL     OW56527   5.338   5.991  10.005
14822SOL    HW156528   5.357   6.077  10.052
14822SOL    HW256529   5.406   5.922  10.033
14823SOL     OW56530   4.481   6.663   9.491
14823SOL    HW156531   4.553   6.722   9.456
14823SOL    HW256532   4.521   6.579   9.527
14824SOL     OW56533   4.552   5.639   9.343
14824SOL    HW156534   4.627   5.573   9.355
14824SOL    HW256535   4.583   5.730   9.371
14825SOL     OW56536   4.231   6.068   9.955
14825SOL    HW156537   4.269   5.979   9.981
14825SOL    HW256538   4.298   6.118   9.900
14826SOL     OW56539   3.924   6.778   9.270
14826SOL    HW156540   3.916   6.790   9.171
14826SOL    HW256541   3.983   6.849   9.308
14827SOL     OW56542   3.746   6.471   9.816
14827SOL    HW156543   3.753   6.570   9.803
14827SOL    HW256544   3.655   6.448   9.850
14828SOL     OW56545   4.374   5.910   9.691
14828SOL    HW156546   4.276   5.904   9.671
14828SOL    HW256547   4.393   5.867   9.779
14829SOL     OW56548   5.294   5.593   9.950
14829SOL    HW156549   5.289   5.634   9.859
14829SOL    HW256550   5.375   5.627   9.997
14830SOL     OW56551   5.059   6.001   9.932
14830SOL    HW156552   5.058   5.993   9.833
14830SOL    HW256553   5.148   5.973   9.967
14831SOL     OW56554   4.786   8.863   0.692
14831SOL    HW156555   4.877   8.897   0.715
14831SOL    HW256556   4.758   8.901   0.604
14832SOL     OW56557   5.297   8.659   0.550
14832SOL    HW156558   5.308   8.743   0.604
14832SOL    HW256559   5.387   8.622   0.527
14833SOL     OW56560   4.044   7.578   0.019
14833SOL    HW156561   3.957   7.575  -0.030
14833SOL    HW256562   4.095   7.660  -0.009
14834SOL     OW56563   5.031   8.967   0.794
14834SOL    HW156564   5.020   9.064   0.817
14834SOL    HW256565   5.124   8.950   0.764
14835SOL     OW56566   4.909   7.478   1.352
14835SOL    HW156567   4.833   7.433   1.399
14835SOL    HW256568   4.938   7.423   1.274
14836SOL     OW56569   4.647   8.258   1.729
14836SOL    HW156570   4.612   8.233   1.639
14836SOL    HW256571   4.571   8.279   1.790
14837SOL     OW56572   4.254   8.932   0.423
14837SOL    HW156573   4.210   8.941   0.512
14837SOL    HW256574   4.325   8.862   0.427
14838SOL     OW56575   5.242   8.450   1.528
14838SOL    HW156576   5.150   8.455   1.490
14838SOL    HW256577   5.307   8.488   1.462
14839SOL     OW56578   4.638   8.712   1.509
14839SOL    HW156579   4.581   8.775   1.455
14839SOL    HW256580   4.671   8.638   1.450
14840SOL     OW56581   4.181   8.605   0.718
14840SOL    HW156582   4.114   8.559   0.777
14840SOL    HW256583   4.273   8.573   0.741
14841SOL     OW56584   4.408   8.011   0.549
14841SOL    HW156585   4.447   8.081   0.490
14841SOL    HW256586   4.382   7.931   0.495
14842SOL     OW56587   5.028   7.919   1.758
14842SOL    HW156588   5.124   7.923   1.784
14842SOL    HW256589   4.984   7.843   1.805
14843SOL     OW56590   4.111   8.774   0.202
14843SOL    HW156591   4.175   8.790   0.127
14843SOL    HW256592   4.135   8.832   0.280
14844SOL     OW56593   4.262   7.730   1.012
14844SOL    HW156594   4.338   7.795   1.008
14844SOL    HW256595   4.292   7.641   0.979
14845SOL     OW56596   3.959   8.156   0.430
14845SOL    HW156597   3.974   8.090   0.504
14845SOL    HW256598   3.909   8.235   0.465
14846SOL     OW56599   4.545   9.101   0.607
14846SOL    HW156600   4.610   9.034   0.571
14846SOL    HW256601   4.535   9.177   0.543
14847SOL     OW56602   5.437   8.983   0.349
14847SOL    HW156603   5.533   8.957   0.342
14847SOL    HW256604   5.413   9.043   0.273
14848SOL     OW56605   5.349   7.676   1.120
14848SOL    HW156606   5.400   7.748   1.073
14848SOL    HW256607   5.254   7.703   1.129
14849SOL     OW56608   3.873   8.418   1.574
14849SOL    HW156609   3.969   8.433   1.592
14849SOL    HW256610   3.835   8.356   1.643
14850SOL     OW56611   4.199   8.063   0.117
14850SOL    HW156612   4.159   8.142   0.070
14850SOL    HW256613   4.288   8.042   0.077
14851SOL     OW56614   4.372   8.987   0.815
14851SOL    HW156615   4.445   9.010   0.751
14851SOL    HW256616   4.301   8.934   0.769
14852SOL     OW56617   4.714   8.019   1.569
14852SOL    HW156618   4.747   7.936   1.616
14852SOL    HW256619   4.787   8.087   1.568
14853SOL     OW56620   5.318   8.819   0.791
14853SOL    HW156621   5.314   8.854   0.884
14853SOL    HW256622   5.377   8.878   0.735
14854SOL     OW56623   4.049   8.640   0.467
14854SOL    HW156624   4.095   8.614   0.552
14854SOL    HW256625   4.069   8.572   0.396
14855SOL     OW56626   4.907   7.695   0.178
14855SOL    HW156627   5.001   7.665   0.196
14855SOL    HW256628   4.855   7.695   0.264
14856SOL     OW56629   4.059   7.900   1.273
14856SOL    HW156630   4.049   7.813   1.225
14856SOL    HW256631   3.995   7.967   1.236
14857SOL     OW56632   4.094   7.672   0.432
14857SOL    HW156633   4.048   7.712   0.511
14857SOL    HW256634   4.042   7.691   0.350
14858SOL     OW56635   5.222   9.199   1.344
14858SOL    HW156636   5.165   9.150   1.278
14858SOL    HW256637   5.308   9.226   1.301
14859SOL     OW56638   5.517   7.917   1.199
14859SOL    HW156639   5.574   7.999   1.201
14859SOL    HW256640   5.458   7.916   1.279
14860SOL     OW56641   5.534   9.143   1.112
14860SOL    HW156642   5.580   9.153   1.200
14860SOL    HW256643   5.601   9.146   1.039
14861SOL     OW56644   4.882   8.347   0.191
14861SOL    HW156645   4.919   8.297   0.269
14861SOL    HW256646   4.812   8.292   0.146
14862SOL     OW56647   4.724   7.769   1.812
14862SOL    HW156648   4.787   7.774   1.889
14862SOL    HW256649   4.632   7.747   1.845
14863SOL     OW56650   5.465   8.016   0.270
14863SOL    HW156651   5.486   7.935   0.216
14863SOL    HW256652   5.482   7.997   0.367
14864SOL     OW56653   4.759   9.154   0.178
14864SOL    HW156654   4.793   9.067   0.143
14864SOL    HW256655   4.727   9.142   0.272
14865SOL     OW56656   4.440   7.421   1.710
14865SOL    HW156657   4.447   7.327   1.677
14865SOL    HW256658   4.497   7.431   1.792
14866SOL     OW56659   5.363   8.022   0.978
14866SOL    HW156660   5.348   8.113   1.015
14866SOL    HW256661   5.433   7.975   1.032
14867SOL     OW56662   5.063   7.394   0.854
14867SOL    HW156663   5.012   7.478   0.836
14867SOL    HW256664   5.149   7.396   0.803
14868SOL     OW56665   3.721   8.004   0.527
14868SOL    HW156666   3.723   7.955   0.614
14868SOL    HW256667   3.723   8.103   0.545
14869SOL     OW56668   4.042   7.592   0.848
14869SOL    HW156669   4.094   7.632   0.923
14869SOL    HW256670   4.095   7.519   0.805
14870SOL     OW56671   4.026   7.640   1.182
14870SOL    HW156672   3.991   7.547   1.182
14870SOL    HW256673   4.113   7.643   1.133
14871SOL     OW56674   3.894   8.889   0.381
14871SOL    HW156675   3.921   8.795   0.401
14871SOL    HW256676   3.919   8.911   0.287
14872SOL     OW56677   5.176   8.758   1.255
14872SOL    HW156678   5.147   8.795   1.166
14872SOL    HW256679   5.098   8.758   1.317
14873SOL     OW56680   3.908   9.032   0.618
14873SOL    HW156681   3.824   9.083   0.636
14873SOL    HW256682   3.899   8.981   0.533
14874SOL     OW56683   5.429   8.829   1.293
14874SOL    HW156684   5.460   8.843   1.387
14874SOL    HW256685   5.330   8.816   1.292
14875SOL     OW56686   4.181   8.329   0.020
14875SOL    HW156687   4.150   8.363  -0.068
14875SOL    HW256688   4.185   8.404   0.086
14876SOL     OW56689   3.785   8.221   0.193
14876SOL    HW156690   3.845   8.168   0.253
14876SOL    HW256691   3.691   8.189   0.205
14877SOL     OW56692   4.553   9.206   1.041
14877SOL    HW156693   4.599   9.139   0.983
14877SOL    HW256694   4.479   9.162   1.091
14878SOL     OW56695   4.460   8.275   0.077
14878SOL    HW156696   4.489   8.194   0.128
14878SOL    HW256697   4.360   8.274   0.068
14879SOL     OW56698   3.953   8.008   1.523
14879SOL    HW156699   3.973   7.913   1.498
14879SOL    HW256700   3.916   8.011   1.616
14880SOL     OW56701   3.835   7.663   1.413
14880SOL    HW156702   3.907   7.673   1.344
14880SOL    HW256703   3.746   7.662   1.368
14881SOL     OW56704   5.324   7.818   0.493
14881SOL    HW156705   5.420   7.789   0.490
14881SOL    HW256706   5.285   7.796   0.582
14882SOL     OW56707   4.608   8.893   0.930
14882SOL    HW156708   4.666   8.904   0.849
14882SOL    HW256709   4.514   8.917   0.908
14883SOL     OW56710   5.420   8.999   0.635
14883SOL    HW156711   5.387   9.092   0.654
14883SOL    HW256712   5.418   8.983   0.536
14884SOL     OW56713   3.983   8.441   0.873
14884SOL    HW156714   3.906   8.503   0.866
14884SOL    HW256715   4.020   8.442   0.966
14885SOL     OW56716   4.920   8.777   1.411
14885SOL    HW156717   4.953   8.862   1.452
14885SOL    HW256718   4.821   8.773   1.418
14886SOL     OW56719   3.727   7.694   0.475
14886SOL    HW156720   3.787   7.645   0.413
14886SOL    HW256721   3.782   7.746   0.540
14887SOL     OW56722   5.350   9.192   0.166
14887SOL    HW156723   5.440   9.236   0.168
14887SOL    HW256724   5.349   9.123   0.094
14888SOL     OW56725   3.751   9.186   1.395
14888SOL    HW156726   3.759   9.286   1.393
14888SOL    HW256727   3.727   9.157   1.488
14889SOL     OW56728   4.532   8.205   0.389
14889SOL    HW156729   4.443   8.233   0.354
14889SOL    HW256730   4.573   8.139   0.325
14890SOL     OW56731   4.054   7.923   0.928
14890SOL    HW156732   4.110   7.916   0.845
14890SOL    HW256733   4.111   7.901   1.008
14891SOL     OW56734   4.051   9.121   0.199
14891SOL    HW156735   4.143   9.151   0.174
14891SOL    HW256736   4.026   9.160   0.288
14892SOL     OW56737   5.027   9.143   1.136
14892SOL    HW156738   5.046   9.206   1.062
14892SOL    HW256739   5.035   9.049   1.103
14893SOL     OW56740   3.732   8.538   0.948
14893SOL    HW156741   3.642   8.554   0.909
14893SOL    HW256742   3.730   8.454   1.003
14894SOL     OW56743   3.728   8.579   0.492
14894SOL    HW156744   3.806   8.637   0.516
14894SOL    HW256745   3.747   8.530   0.407
14895SOL     OW56746   4.974   7.653   0.867
14895SOL    HW156747   4.973   7.731   0.804
14895SOL    HW256748   5.017   7.680   0.953
14896SOL     OW56749   5.094   7.459   0.163
14896SOL    HW156750   5.174   7.399   0.160
14896SOL    HW256751   5.020   7.412   0.211
14897SOL     OW56752   5.282   7.447   0.437
14897SOL    HW156753   5.289   7.401   0.349
14897SOL    HW256754   5.186   7.457   0.462
14898SOL     OW56755   3.795   8.784   1.106
14898SOL    HW156756   3.764   8.710   1.047
14898SOL    HW256757   3.727   8.802   1.177
14899SOL     OW56758   4.881   7.985   0.839
14899SOL    HW156759   4.963   7.962   0.787
14899SOL    HW256760   4.876   7.926   0.920
14900SOL     OW56761   5.052   7.785   1.094
14900SOL    HW156762   5.026   7.882   1.100
14900SOL    HW256763   5.052   7.745   1.186
14901SOL     OW56764   5.282   7.917   1.845
14901SOL    HW156765   5.362   7.942   1.789
14901SOL    HW256766   5.313   7.882   1.933
14902SOL     OW56767   5.300   7.673   0.219
14902SOL    HW156768   5.305   7.715   0.310
14902SOL    HW256769   5.233   7.598   0.221
14903SOL     OW56770   4.447   8.888   1.439
14903SOL    HW156771   4.384   8.966   1.446
14903SOL    HW256772   4.415   8.826   1.367
14904SOL     OW56773   3.838   7.683   1.704
14904SOL    HW156774   3.856   7.672   1.606
14904SOL    HW256775   3.740   7.679   1.721
14905SOL     OW56776   3.718   9.097   1.648
14905SOL    HW156777   3.790   9.083   1.716
14905SOL    HW256778   3.629   9.100   1.693
14906SOL     OW56779   3.886   7.753   0.672
14906SOL    HW156780   3.829   7.808   0.733
14906SOL    HW256781   3.956   7.705   0.725
14907SOL     OW56782   5.058   8.985   1.535
14907SOL    HW156783   5.011   9.053   1.590
14907SOL    HW256784   5.125   9.031   1.476
14908SOL     OW56785   4.023   7.944   0.270
14908SOL    HW156786   4.095   7.973   0.207
14908SOL    HW256787   3.979   8.024   0.310
14909SOL     OW56788   4.138   9.207   0.736
14909SOL    HW156789   4.062   9.173   0.681
14909SOL    HW256790   4.224   9.170   0.701
14910SOL     OW56791   4.063   8.716   1.181
14910SOL    HW156792   4.075   8.732   1.278
14910SOL    HW256793   3.976   8.756   1.151
14911SOL     OW56794   4.947   8.920   1.827
14911SOL    HW156795   4.906   8.835   1.793
14911SOL    HW256796   4.927   8.994   1.763
14912SOL     OW56797   4.437   8.640   0.517
14912SOL    HW156798   4.480   8.571   0.459
14912SOL    HW256799   4.401   8.597   0.600
14913SOL     OW56800   4.069   8.191   0.719
14913SOL    HW156801   4.061   8.289   0.737
14913SOL    HW256802   4.153   8.157   0.760
14914SOL     OW56803   3.915   7.671   0.234
14914SOL    HW156804   3.959   7.640   0.151
14914SOL    HW256805   3.916   7.771   0.238
14915SOL     OW56806   3.768   7.923   0.845
14915SOL    HW156807   3.732   8.016   0.837
14915SOL    HW256808   3.851   7.924   0.901
14916SOL     OW56809   4.203   8.510   0.231
14916SOL    HW156810   4.303   8.510   0.242
14916SOL    HW256811   4.172   8.603   0.210
14917SOL     OW56812   4.829   8.102   0.047
14917SOL    HW156813   4.760   8.159   0.003
14917SOL    HW256814   4.910   8.096  -0.012
14918SOL     OW56815   3.764   7.453   0.144
14918SOL    HW156816   3.827   7.376   0.152
14918SOL    HW256817   3.784   7.521   0.215
14919SOL     OW56818   4.037   8.428   1.145
14919SOL    HW156819   4.048   8.383   1.234
14919SOL    HW256820   4.064   8.524   1.152
14920SOL     OW56821   4.853   8.431   1.644
14920SOL    HW156822   4.775   8.377   1.677
14920SOL    HW256823   4.934   8.409   1.699
14921SOL     OW56824   4.782   7.613   0.640
14921SOL    HW156825   4.841   7.673   0.695
14921SOL    HW256826   4.709   7.577   0.697
14922SOL     OW56827   4.892   9.145   1.680
14922SOL    HW156828   4.797   9.143   1.648
14922SOL    HW256829   4.913   9.236   1.717
14923SOL     OW56830   4.310   7.490   0.911
14923SOL    HW156831   4.238   7.423   0.897
14923SOL    HW256832   4.392   7.444   0.946
14924SOL     OW56833   4.010   9.155   1.278
14924SOL    HW156834   3.990   9.137   1.182
14924SOL    HW256835   3.937   9.117   1.335
14925SOL     OW56836   4.703   8.619   0.823
14925SOL    HW156837   4.742   8.662   0.742
14925SOL    HW256838   4.776   8.602   0.890
14926SOL     OW56839   3.736   8.357   1.151
14926SOL    HW156840   3.825   8.335   1.191
14926SOL    HW256841   3.681   8.273   1.147
14927SOL     OW56842   3.964   7.402   0.431
14927SOL    HW156843   4.002   7.490   0.458
14927SOL    HW256844   3.887   7.378   0.491
14928SOL     OW56845   4.380   8.019   1.759
14928SOL    HW156846   4.332   8.070   1.688
14928SOL    HW256847   4.473   7.998   1.729
14929SOL     OW56848   3.786   8.489   0.251
14929SOL    HW156849   3.776   8.392   0.230
14929SOL    HW256850   3.839   8.534   0.179
14930SOL     OW56851   5.483   7.601   0.852
14930SOL    HW156852   5.438   7.583   0.939
14930SOL    HW256853   5.581   7.618   0.868
14931SOL     OW56854   5.230   8.815   1.640
14931SOL    HW156855   5.215   8.717   1.654
14931SOL    HW256856   5.147   8.857   1.604
14932SOL     OW56857   3.987   8.257   1.380
14932SOL    HW156858   3.951   8.167   1.406
14932SOL    HW256859   3.948   8.327   1.440
14933SOL     OW56860   4.307   9.090   1.072
14933SOL    HW156861   4.327   9.060   0.979
14933SOL    HW256862   4.232   9.035   1.109
14934SOL     OW56863   4.450   8.501   0.789
14934SOL    HW156864   4.539   8.547   0.789
14934SOL    HW256865   4.443   8.441   0.868
14935SOL     OW56866   4.628   8.848   0.458
14935SOL    HW156867   4.678   8.836   0.373
14935SOL    HW256868   4.574   8.765   0.477
14936SOL     OW56869   3.818   8.195   0.858
14936SOL    HW156870   3.913   8.186   0.826
14936SOL    HW256871   3.784   8.287   0.837
14937SOL     OW56872   3.755   8.312   1.785
14937SOL    HW156873   3.670   8.263   1.766
14937SOL    HW256874   3.782   8.299   1.880
14938SOL     OW56875   4.652   9.221   1.491
14938SOL    HW156876   4.624   9.134   1.532
14938SOL    HW256877   4.596   9.295   1.528
14939SOL     OW56878   4.881   8.568   1.021
14939SOL    HW156879   4.865   8.662   1.052
14939SOL    HW256880   4.884   8.507   1.101
14940SOL     OW56881   4.155   7.839   1.785
14940SOL    HW156882   4.191   7.786   1.708
14940SOL    HW256883   4.216   7.916   1.803
14941SOL     OW56884   4.219   8.256   0.357
14941SOL    HW156885   4.169   8.321   0.301
14941SOL    HW256886   4.161   8.177   0.376
14942SOL     OW56887   5.300   8.287   1.055
14942SOL    HW156888   5.319   8.326   0.964
14942SOL    HW256889   5.254   8.356   1.111
14943SOL     OW56890   3.693   7.429   0.552
14943SOL    HW156891   3.606   7.416   0.505
14943SOL    HW256892   3.701   7.524   0.582
14944SOL     OW56893   4.914   7.530   1.793
14944SOL    HW156894   4.973   7.546   1.873
14944SOL    HW256895   4.861   7.613   1.774
14945SOL     OW56896   4.130   8.949   1.618
14945SOL    HW156897   4.072   9.014   1.667
14945SOL    HW256898   4.192   8.999   1.558
14946SOL     OW56899   5.486   8.836   1.559
14946SOL    HW156900   5.514   8.929   1.581
14946SOL    HW256901   5.393   8.820   1.592
14947SOL     OW56902   4.140   8.895   0.681
14947SOL    HW156903   4.138   8.796   0.694
14947SOL    HW256904   4.049   8.928   0.658
14948SOL     OW56905   4.781   9.012   1.269
14948SOL    HW156906   4.707   9.076   1.287
14948SOL    HW256907   4.860   9.061   1.231
14949SOL     OW56908   3.850   8.678   1.639
14949SOL    HW156909   3.829   8.583   1.612
14949SOL    HW256910   3.781   8.739   1.601
14950SOL     OW56911   3.939   9.043   1.043
14950SOL    HW156912   3.881   8.963   1.057
14950SOL    HW256913   3.963   9.050   0.946
14951SOL     OW56914   4.685   7.564   0.898
14951SOL    HW156915   4.781   7.565   0.926
14951SOL    HW256916   4.630   7.521   0.970
14952SOL     OW56917   5.338   7.837   0.778
14952SOL    HW156918   5.357   7.923   0.825
14952SOL    HW256919   5.406   7.768   0.806
14953SOL     OW56920   4.481   8.509   0.264
14953SOL    HW156921   4.553   8.568   0.229
14953SOL    HW256922   4.521   8.425   0.300
14954SOL     OW56923   5.441   8.515   1.351
14954SOL    HW156924   5.455   8.613   1.365
14954SOL    HW256925   5.498   8.484   1.275
14955SOL     OW56926   3.924   8.624   0.043
14955SOL    HW156927   3.916   8.636  -0.056
14955SOL    HW256928   3.983   8.695   0.081
14956SOL     OW56929   4.351   9.063   0.203
14956SOL    HW156930   4.326   9.158   0.187
14956SOL    HW256931   4.318   9.035   0.293
14957SOL     OW56932   5.001   8.486   1.427
14957SOL    HW156933   4.945   8.445   1.498
14957SOL    HW256934   4.981   8.584   1.421
14958SOL     OW56935   4.268   9.102   1.427
14958SOL    HW156936   4.317   9.182   1.391
14958SOL    HW256937   4.176   9.100   1.388
14959SOL     OW56938   3.911   7.983   1.789
14959SOL    HW156939   3.928   7.884   1.794
14959SOL    HW256940   3.975   8.031   1.850
14960SOL     OW56941   5.350   8.944   1.028
14960SOL    HW156942   5.322   9.037   1.052
14960SOL    HW256943   5.400   8.903   1.104
14961SOL     OW56944   3.746   8.317   0.589
14961SOL    HW156945   3.753   8.416   0.576
14961SOL    HW256946   3.655   8.294   0.623
14962SOL     OW56947   5.322   8.491   0.839
14962SOL    HW156948   5.284   8.580   0.812
14962SOL    HW256949   5.322   8.429   0.761
14963SOL     OW56950   4.480   7.897   1.008
14963SOL    HW156951   4.572   7.925   1.035
14963SOL    HW256952   4.412   7.948   1.062
14964SOL     OW56953   4.333   8.748   1.235
14964SOL    HW156954   4.246   8.747   1.186
14964SOL    HW256955   4.399   8.688   1.188
14965SOL     OW56956   3.899   8.090   1.149
14965SOL    HW156957   3.937   8.149   1.220
14965SOL    HW256958   3.882   8.143   1.067
14966SOL     OW56959   5.313   9.052   1.795
14966SOL    HW156960   5.282   8.974   1.740
14966SOL    HW256961   5.282   9.137   1.753
14967SOL     OW56962   5.294   7.439   0.723
14967SOL    HW156963   5.289   7.480   0.632
14967SOL    HW256964   5.375   7.473   0.770
14968SOL     OW56965   4.897   8.195   1.416
14968SOL    HW156966   4.996   8.204   1.406
14968SOL    HW256967   4.853   8.197   1.326
14969SOL     OW56968   5.056   8.862   1.030
14969SOL    HW156969   4.970   8.819   1.059
14969SOL    HW256970   5.045   8.902   0.939
14970SOL     OW56971   4.786   8.863   2.537
14970SOL    HW156972   4.877   8.897   2.560
14970SOL    HW256973   4.758   8.901   2.449
14971SOL     OW56974   5.297   8.659   2.395
14971SOL    HW156975   5.308   8.743   2.449
14971SOL    HW256976   5.387   8.622   2.372
14972SOL     OW56977   4.044   7.578   1.864
14972SOL    HW156978   3.957   7.575   1.815
14972SOL    HW256979   4.095   7.660   1.836
14973SOL     OW56980   5.031   8.967   2.639
14973SOL    HW156981   5.020   9.064   2.662
14973SOL    HW256982   5.124   8.950   2.609
14974SOL     OW56983   4.647   8.258   3.574
14974SOL    HW156984   4.612   8.233   3.484
14974SOL    HW256985   4.571   8.279   3.635
14975SOL     OW56986   4.254   8.932   2.268
14975SOL    HW156987   4.210   8.941   2.357
14975SOL    HW256988   4.325   8.862   2.272
14976SOL     OW56989   4.272   7.465   1.990
14976SOL    HW156990   4.360   7.493   1.951
14976SOL    HW256991   4.200   7.528   1.960
14977SOL     OW56992   5.242   8.450   3.373
14977SOL    HW156993   5.150   8.455   3.335
14977SOL    HW256994   5.307   8.488   3.307
14978SOL     OW56995   5.142   8.457   3.054
14978SOL    HW156996   5.067   8.446   3.119
14978SOL    HW256997   5.179   8.550   3.060
14979SOL     OW56998   4.638   8.712   3.354
14979SOL    HW156999   4.581   8.775   3.300
14979SOL    HW257000   4.671   8.638   3.295
14980SOL     OW57001   4.181   8.605   2.563
14980SOL    HW157002   4.114   8.559   2.622
14980SOL    HW257003   4.273   8.573   2.586
14981SOL     OW57004   4.408   8.011   2.394
14981SOL    HW157005   4.447   8.081   2.335
14981SOL    HW257006   4.382   7.931   2.340
14982SOL     OW57007   4.111   8.774   2.047
14982SOL    HW157008   4.175   8.790   1.972
14982SOL    HW257009   4.135   8.832   2.125
14983SOL     OW57010   4.262   7.730   2.857
14983SOL    HW157011   4.338   7.795   2.853
14983SOL    HW257012   4.292   7.641   2.824
14984SOL     OW57013   3.959   8.156   2.275
14984SOL    HW157014   3.974   8.090   2.349
14984SOL    HW257015   3.909   8.235   2.310
14985SOL     OW57016   4.545   9.101   2.452
14985SOL    HW157017   4.610   9.034   2.416
14985SOL    HW257018   4.535   9.177   2.388
14986SOL     OW57019   5.437   8.983   2.194
14986SOL    HW157020   5.533   8.957   2.187
14986SOL    HW257021   5.413   9.043   2.118
14987SOL     OW57022   4.749   7.705   2.234
14987SOL    HW157023   4.774   7.799   2.255
14987SOL    HW257024   4.750   7.651   2.318
14988SOL     OW57025   3.873   8.418   3.419
14988SOL    HW157026   3.969   8.433   3.437
14988SOL    HW257027   3.835   8.356   3.488
14989SOL     OW57028   4.199   8.063   1.962
14989SOL    HW157029   4.159   8.142   1.915
14989SOL    HW257030   4.288   8.042   1.922
14990SOL     OW57031   4.372   8.987   2.660
14990SOL    HW157032   4.445   9.010   2.596
14990SOL    HW257033   4.301   8.934   2.614
14991SOL     OW57034   4.714   8.019   3.414
14991SOL    HW157035   4.747   7.936   3.461
14991SOL    HW257036   4.787   8.087   3.413
14992SOL     OW57037   5.318   8.819   2.636
14992SOL    HW157038   5.314   8.854   2.729
14992SOL    HW257039   5.377   8.878   2.580
14993SOL     OW57040   4.049   8.640   2.312
14993SOL    HW157041   4.095   8.614   2.397
14993SOL    HW257042   4.069   8.572   2.241
14994SOL     OW57043   4.907   7.695   2.023
14994SOL    HW157044   5.001   7.665   2.041
14994SOL    HW257045   4.855   7.695   2.109
14995SOL     OW57046   4.059   7.900   3.118
14995SOL    HW157047   4.049   7.813   3.070
14995SOL    HW257048   3.995   7.967   3.081
14996SOL     OW57049   5.141   8.180   3.156
14996SOL    HW157050   5.145   8.274   3.121
14996SOL    HW257051   5.234   8.149   3.178
14997SOL     OW57052   4.094   7.672   2.277
14997SOL    HW157053   4.048   7.712   2.356
14997SOL    HW257054   4.042   7.691   2.195
14998SOL     OW57055   5.222   9.199   3.189
14998SOL    HW157056   5.165   9.150   3.123
14998SOL    HW257057   5.308   9.226   3.146
14999SOL     OW57058   5.517   7.917   3.044
14999SOL    HW157059   5.574   7.999   3.046
14999SOL    HW257060   5.458   7.916   3.124
15000SOL     OW57061   5.534   9.143   2.957
15000SOL    HW157062   5.580   9.153   3.045
15000SOL    HW257063   5.601   9.146   2.884
15001SOL     OW57064   4.647   7.883   2.519
15001SOL    HW157065   4.723   7.911   2.578
15001SOL    HW257066   4.603   7.963   2.480
15002SOL     OW57067   4.882   8.347   2.036
15002SOL    HW157068   4.919   8.297   2.114
15002SOL    HW257069   4.812   8.292   1.991
15003SOL     OW57070   5.465   8.016   2.115
15003SOL    HW157071   5.486   7.935   2.061
15003SOL    HW257072   5.482   7.997   2.212
15004SOL     OW57073   4.440   7.421   3.555
15004SOL    HW157074   4.447   7.327   3.522
15004SOL    HW257075   4.497   7.431   3.637
15005SOL     OW57076   5.363   8.022   2.823
15005SOL    HW157077   5.348   8.113   2.860
15005SOL    HW257078   5.433   7.975   2.877
15006SOL     OW57079   4.773   8.688   3.589
15006SOL    HW157080   4.795   8.598   3.551
15006SOL    HW257081   4.708   8.735   3.530
15007SOL     OW57082   4.428   8.530   3.593
15007SOL    HW157083   4.399   8.607   3.650
15007SOL    HW257084   4.438   8.449   3.651
15008SOL     OW57085   5.418   7.600   3.628
15008SOL    HW157086   5.395   7.621   3.723
15008SOL    HW257087   5.394   7.505   3.608
15009SOL     OW57088   3.721   8.004   2.372
15009SOL    HW157089   3.723   7.955   2.459
15009SOL    HW257090   3.723   8.103   2.390
15010SOL     OW57091   4.042   7.592   2.693
15010SOL    HW157092   4.094   7.632   2.768
15010SOL    HW257093   4.095   7.519   2.650
15011SOL     OW57094   4.026   7.640   3.027
15011SOL    HW157095   3.991   7.547   3.027
15011SOL    HW257096   4.113   7.643   2.978
15012SOL     OW57097   4.693   8.262   2.767
15012SOL    HW157098   4.719   8.342   2.713
15012SOL    HW257099   4.687   8.182   2.707
15013SOL     OW57100   3.894   8.889   2.226
15013SOL    HW157101   3.921   8.795   2.246
15013SOL    HW257102   3.919   8.911   2.132
15014SOL     OW57103   5.176   8.758   3.100
15014SOL    HW157104   5.147   8.795   3.011
15014SOL    HW257105   5.098   8.758   3.162
15015SOL     OW57106   3.908   9.032   2.463
15015SOL    HW157107   3.824   9.083   2.481
15015SOL    HW257108   3.899   8.981   2.378
15016SOL     OW57109   5.429   8.829   3.138
15016SOL    HW157110   5.460   8.843   3.232
15016SOL    HW257111   5.330   8.816   3.137
15017SOL     OW57112   4.698   8.516   3.164
15017SOL    HW157113   4.748   8.431   3.148
15017SOL    HW257114   4.652   8.543   3.079
15018SOL     OW57115   3.785   8.221   2.038
15018SOL    HW157116   3.845   8.168   2.098
15018SOL    HW257117   3.691   8.189   2.050
15019SOL     OW57118   5.305   8.219   2.238
15019SOL    HW157119   5.373   8.153   2.205
15019SOL    HW257120   5.320   8.307   2.194
15020SOL     OW57121   4.553   9.206   2.886
15020SOL    HW157122   4.599   9.139   2.828
15020SOL    HW257123   4.479   9.162   2.936
15021SOL     OW57124   5.056   7.807   2.268
15021SOL    HW157125   4.993   7.865   2.216
15021SOL    HW257126   5.149   7.841   2.256
15022SOL     OW57127   3.953   8.008   3.368
15022SOL    HW157128   3.973   7.913   3.343
15022SOL    HW257129   3.916   8.011   3.461
15023SOL     OW57130   3.835   7.663   3.258
15023SOL    HW157131   3.907   7.673   3.189
15023SOL    HW257132   3.746   7.662   3.213
15024SOL     OW57133   4.733   8.284   3.023
15024SOL    HW157134   4.727   8.270   2.924
15024SOL    HW257135   4.652   8.245   3.067
15025SOL     OW57136   5.324   7.818   2.338
15025SOL    HW157137   5.420   7.789   2.335
15025SOL    HW257138   5.285   7.796   2.427
15026SOL     OW57139   4.608   8.893   2.775
15026SOL    HW157140   4.666   8.904   2.694
15026SOL    HW257141   4.514   8.917   2.753
15027SOL     OW57142   4.558   7.759   2.060
15027SOL    HW157143   4.467   7.772   2.098
15027SOL    HW257144   4.618   7.719   2.130
15028SOL     OW57145   5.420   8.999   2.480
15028SOL    HW157146   5.387   9.092   2.499
15028SOL    HW257147   5.418   8.983   2.381
15029SOL     OW57148   4.835   8.272   2.469
15029SOL    HW157149   4.900   8.300   2.540
15029SOL    HW257150   4.756   8.333   2.471
15030SOL     OW57151   4.583   8.998   3.493
15030SOL    HW157152   4.571   8.929   3.422
15030SOL    HW257153   4.546   8.963   3.580
15031SOL     OW57154   5.027   8.312   2.672
15031SOL    HW157155   5.048   8.254   2.750
15031SOL    HW257156   5.036   8.408   2.698
15032SOL     OW57157   3.983   8.441   2.718
15032SOL    HW157158   3.906   8.503   2.711
15032SOL    HW257159   4.020   8.442   2.811
15033SOL     OW57160   4.616   8.389   2.417
15033SOL    HW157161   4.603   8.300   2.374
15033SOL    HW257162   4.547   8.403   2.488
15034SOL     OW57163   4.920   8.777   3.256
15034SOL    HW157164   4.953   8.862   3.297
15034SOL    HW257165   4.821   8.773   3.263
15035SOL     OW57166   3.727   7.694   2.320
15035SOL    HW157167   3.787   7.645   2.258
15035SOL    HW257168   3.782   7.746   2.385
15036SOL     OW57169   5.350   9.192   2.011
15036SOL    HW157170   5.440   9.236   2.013
15036SOL    HW257171   5.349   9.123   1.939
15037SOL     OW57172   4.514   8.159   3.169
15037SOL    HW157173   4.516   8.245   3.220
15037SOL    HW257174   4.571   8.091   3.216
15038SOL     OW57175   3.751   9.186   3.240
15038SOL    HW157176   3.759   9.286   3.238
15038SOL    HW257177   3.727   9.157   3.333
15039SOL     OW57178   4.532   8.205   2.234
15039SOL    HW157179   4.443   8.233   2.199
15039SOL    HW257180   4.573   8.139   2.170
15040SOL     OW57181   4.054   7.923   2.773
15040SOL    HW157182   4.110   7.916   2.690
15040SOL    HW257183   4.111   7.901   2.853
15041SOL     OW57184   4.051   9.121   2.044
15041SOL    HW157185   4.143   9.151   2.019
15041SOL    HW257186   4.026   9.160   2.133
15042SOL     OW57187   5.027   9.143   2.981
15042SOL    HW157188   5.046   9.206   2.907
15042SOL    HW257189   5.035   9.049   2.948
15043SOL     OW57190   3.732   8.538   2.793
15043SOL    HW157191   3.642   8.554   2.754
15043SOL    HW257192   3.730   8.454   2.848
15044SOL     OW57193   4.483   7.443   2.243
15044SOL    HW157194   4.444   7.432   2.152
15044SOL    HW257195   4.439   7.519   2.290
15045SOL     OW57196   3.728   8.579   2.337
15045SOL    HW157197   3.806   8.637   2.361
15045SOL    HW257198   3.747   8.530   2.252
15046SOL     OW57199   4.974   7.653   2.712
15046SOL    HW157200   4.973   7.731   2.649
15046SOL    HW257201   5.017   7.680   2.798
15047SOL     OW57202   5.307   7.431   3.442
15047SOL    HW157203   5.333   7.388   3.356
15047SOL    HW257204   5.257   7.515   3.424
15048SOL     OW57205   4.409   7.690   2.574
15048SOL    HW157206   4.398   7.632   2.655
15048SOL    HW257207   4.494   7.742   2.582
15049SOL     OW57208   4.989   8.041   2.966
15049SOL    HW157209   5.043   8.081   2.892
15049SOL    HW257210   5.027   8.070   3.054
15050SOL     OW57211   5.282   7.447   2.282
15050SOL    HW157212   5.289   7.401   2.194
15050SOL    HW257213   5.186   7.457   2.307
15051SOL     OW57214   4.258   8.762   3.645
15051SOL    HW157215   4.219   8.825   3.578
15051SOL    HW257216   4.341   8.802   3.685
15052SOL     OW57217   4.134   8.494   3.477
15052SOL    HW157218   4.153   8.518   3.382
15052SOL    HW257219   4.127   8.577   3.532
15053SOL     OW57220   3.795   8.784   2.951
15053SOL    HW157221   3.764   8.710   2.892
15053SOL    HW257222   3.727   8.802   3.022
15054SOL     OW57223   4.993   8.220   2.270
15054SOL    HW157224   4.939   8.218   2.354
15054SOL    HW257225   5.070   8.283   2.281
15055SOL     OW57226   5.290   8.316   2.490
15055SOL    HW157227   5.304   8.279   2.397
15055SOL    HW257228   5.201   8.286   2.524
15056SOL     OW57229   5.446   8.253   3.385
15056SOL    HW157230   5.348   8.274   3.387
15056SOL    HW257231   5.495   8.329   3.344
15057SOL     OW57232   4.447   8.888   3.284
15057SOL    HW157233   4.384   8.966   3.291
15057SOL    HW257234   4.415   8.826   3.212
15058SOL     OW57235   3.838   7.683   3.549
15058SOL    HW157236   3.856   7.672   3.451
15058SOL    HW257237   3.740   7.679   3.566
15059SOL     OW57238   3.718   9.097   3.493
15059SOL    HW157239   3.790   9.083   3.561
15059SOL    HW257240   3.629   9.100   3.538
15060SOL     OW57241   3.886   7.753   2.517
15060SOL    HW157242   3.829   7.808   2.578
15060SOL    HW257243   3.956   7.705   2.570
15061SOL     OW57244   5.058   8.985   3.380
15061SOL    HW157245   5.011   9.053   3.435
15061SOL    HW257246   5.125   9.031   3.321
15062SOL     OW57247   4.023   7.944   2.115
15062SOL    HW157248   4.095   7.973   2.052
15062SOL    HW257249   3.979   8.024   2.155
15063SOL     OW57250   4.138   9.207   2.581
15063SOL    HW157251   4.062   9.173   2.526
15063SOL    HW257252   4.224   9.170   2.546
15064SOL     OW57253   4.063   8.716   3.026
15064SOL    HW157254   4.075   8.732   3.123
15064SOL    HW257255   3.976   8.756   2.996
15065SOL     OW57256   4.947   8.920   3.672
15065SOL    HW157257   4.906   8.835   3.638
15065SOL    HW257258   4.927   8.994   3.608
15066SOL     OW57259   4.437   8.640   2.362
15066SOL    HW157260   4.480   8.571   2.304
15066SOL    HW257261   4.401   8.597   2.445
15067SOL     OW57262   4.069   8.191   2.564
15067SOL    HW157263   4.061   8.289   2.582
15067SOL    HW257264   4.153   8.157   2.605
15068SOL     OW57265   3.915   7.671   2.079
15068SOL    HW157266   3.959   7.640   1.996
15068SOL    HW257267   3.916   7.771   2.083
15069SOL     OW57268   3.768   7.923   2.690
15069SOL    HW157269   3.732   8.016   2.682
15069SOL    HW257270   3.851   7.924   2.746
15070SOL     OW57271   4.829   8.102   1.892
15070SOL    HW157272   4.760   8.159   1.848
15070SOL    HW257273   4.910   8.096   1.833
15071SOL     OW57274   4.564   8.021   2.035
15071SOL    HW157275   4.654   8.022   1.990
15071SOL    HW257276   4.541   7.927   2.060
15072SOL     OW57277   3.764   7.453   1.989
15072SOL    HW157278   3.827   7.376   1.997
15072SOL    HW257279   3.784   7.521   2.060
15073SOL     OW57280   4.037   8.428   2.990
15073SOL    HW157281   4.048   8.383   3.079
15073SOL    HW257282   4.064   8.524   2.997
15074SOL     OW57283   5.336   8.440   2.090
15074SOL    HW157284   5.407   8.510   2.092
15074SOL    HW257285   5.323   8.410   1.995
15075SOL     OW57286   4.318   8.041   3.012
15075SOL    HW157287   4.393   8.084   3.061
15075SOL    HW257288   4.251   8.006   3.078
15076SOL     OW57289   4.461   8.410   3.329
15076SOL    HW157290   4.530   8.462   3.279
15076SOL    HW257291   4.456   8.443   3.424
15077SOL     OW57292   4.853   8.431   3.489
15077SOL    HW157293   4.775   8.377   3.522
15077SOL    HW257294   4.934   8.409   3.544
15078SOL     OW57295   4.782   7.613   2.485
15078SOL    HW157296   4.841   7.673   2.540
15078SOL    HW257297   4.709   7.577   2.542
15079SOL     OW57298   4.892   9.145   3.525
15079SOL    HW157299   4.797   9.143   3.493
15079SOL    HW257300   4.913   9.236   3.562
15080SOL     OW57301   4.310   7.490   2.756
15080SOL    HW157302   4.238   7.423   2.742
15080SOL    HW257303   4.392   7.444   2.791
15081SOL     OW57304   4.010   9.155   3.123
15081SOL    HW157305   3.990   9.137   3.027
15081SOL    HW257306   3.937   9.117   3.180
15082SOL     OW57307   4.703   8.619   2.668
15082SOL    HW157308   4.742   8.662   2.587
15082SOL    HW257309   4.776   8.602   2.735
15083SOL     OW57310   4.397   8.347   2.870
15083SOL    HW157311   4.395   8.263   2.815
15083SOL    HW257312   4.346   8.333   2.955
15084SOL     OW57313   3.736   8.357   2.996
15084SOL    HW157314   3.825   8.335   3.036
15084SOL    HW257315   3.681   8.273   2.992
15085SOL     OW57316   3.964   7.402   2.276
15085SOL    HW157317   4.002   7.490   2.303
15085SOL    HW257318   3.887   7.378   2.336
15086SOL     OW57319   4.380   8.019   3.604
15086SOL    HW157320   4.332   8.070   3.533
15086SOL    HW257321   4.473   7.998   3.574
15087SOL     OW57322   3.786   8.489   2.096
15087SOL    HW157323   3.776   8.392   2.075
15087SOL    HW257324   3.839   8.534   2.024
15088SOL     OW57325   5.483   7.601   2.697
15088SOL    HW157326   5.438   7.583   2.784
15088SOL    HW257327   5.581   7.618   2.713
15089SOL     OW57328   4.531   8.577   2.949
15089SOL    HW157329   4.482   8.492   2.930
15089SOL    HW257330   4.601   8.592   2.880
15090SOL     OW57331   4.869   8.000   2.158
15090SOL    HW157332   4.921   8.072   2.204
15090SOL    HW257333   4.882   8.007   2.060
15091SOL     OW57334   5.230   8.815   3.485
15091SOL    HW157335   5.215   8.717   3.499
15091SOL    HW257336   5.147   8.857   3.449
15092SOL     OW57337   3.987   8.257   3.225
15092SOL    HW157338   3.951   8.167   3.251
15092SOL    HW257339   3.948   8.327   3.285
15093SOL     OW57340   4.307   9.090   2.917
15093SOL    HW157341   4.327   9.060   2.824
15093SOL    HW257342   4.232   9.035   2.954
15094SOL     OW57343   4.450   8.501   2.634
15094SOL    HW157344   4.539   8.547   2.634
15094SOL    HW257345   4.443   8.441   2.713
15095SOL     OW57346   4.628   8.848   2.303
15095SOL    HW157347   4.678   8.836   2.218
15095SOL    HW257348   4.574   8.765   2.322
15096SOL     OW57349   3.818   8.195   2.703
15096SOL    HW157350   3.913   8.186   2.671
15096SOL    HW257351   3.784   8.287   2.682
15097SOL     OW57352   3.755   8.312   3.630
15097SOL    HW157353   3.670   8.263   3.611
15097SOL    HW257354   3.782   8.299   3.725
15098SOL     OW57355   4.652   9.221   3.336
15098SOL    HW157356   4.624   9.134   3.377
15098SOL    HW257357   4.596   9.295   3.373
15099SOL     OW57358   4.881   8.568   2.866
15099SOL    HW157359   4.865   8.662   2.897
15099SOL    HW257360   4.884   8.507   2.946
15100SOL     OW57361   4.155   7.839   3.630
15100SOL    HW157362   4.191   7.786   3.553
15100SOL    HW257363   4.216   7.916   3.648
15101SOL     OW57364   4.219   8.256   2.202
15101SOL    HW157365   4.169   8.321   2.146
15101SOL    HW257366   4.161   8.177   2.221
15102SOL     OW57367   5.300   8.287   2.900
15102SOL    HW157368   5.319   8.326   2.809
15102SOL    HW257369   5.254   8.356   2.956
15103SOL     OW57370   3.693   7.429   2.397
15103SOL    HW157371   3.606   7.416   2.350
15103SOL    HW257372   3.701   7.524   2.427
15104SOL     OW57373   4.914   7.530   3.638
15104SOL    HW157374   4.973   7.546   3.718
15104SOL    HW257375   4.861   7.613   3.619
15105SOL     OW57376   4.130   8.949   3.463
15105SOL    HW157377   4.072   9.014   3.512
15105SOL    HW257378   4.192   8.999   3.403
15106SOL     OW57379   5.486   8.836   3.404
15106SOL    HW157380   5.514   8.929   3.426
15106SOL    HW257381   5.393   8.820   3.437
15107SOL     OW57382   4.736   7.949   2.954
15107SOL    HW157383   4.822   8.000   2.953
15107SOL    HW257384   4.742   7.875   3.021
15108SOL     OW57385   4.140   8.895   2.526
15108SOL    HW157386   4.138   8.796   2.539
15108SOL    HW257387   4.049   8.928   2.503
15109SOL     OW57388   4.781   9.012   3.114
15109SOL    HW157389   4.707   9.076   3.132
15109SOL    HW257390   4.860   9.061   3.076
15110SOL     OW57391   3.990   9.142   3.613
15110SOL    HW157392   4.033   9.226   3.579
15110SOL    HW257393   4.015   9.129   3.709
15111SOL     OW57394   3.850   8.678   3.484
15111SOL    HW157395   3.829   8.583   3.457
15111SOL    HW257396   3.781   8.739   3.446
15112SOL     OW57397   3.939   9.043   2.888
15112SOL    HW157398   3.881   8.963   2.902
15112SOL    HW257399   3.963   9.050   2.791
15113SOL     OW57400   4.747   8.570   2.259
15113SOL    HW157401   4.827   8.606   2.307
15113SOL    HW257402   4.705   8.497   2.315
15114SOL     OW57403   5.338   7.837   2.623
15114SOL    HW157404   5.357   7.923   2.670
15114SOL    HW257405   5.406   7.768   2.651
15115SOL     OW57406   4.481   8.509   2.109
15115SOL    HW157407   4.553   8.568   2.074
15115SOL    HW257408   4.521   8.425   2.145
15116SOL     OW57409   4.552   7.485   1.961
15116SOL    HW157410   4.627   7.419   1.973
15116SOL    HW257411   4.583   7.576   1.989
15117SOL     OW57412   4.231   7.914   2.573
15117SOL    HW157413   4.269   7.825   2.599
15117SOL    HW257414   4.298   7.964   2.518
15118SOL     OW57415   4.219   8.472   3.227
15118SOL    HW157416   4.315   8.452   3.247
15118SOL    HW257417   4.208   8.570   3.209
15119SOL     OW57418   5.441   8.515   3.196
15119SOL    HW157419   5.455   8.613   3.210
15119SOL    HW257420   5.498   8.484   3.120
15120SOL     OW57421   3.924   8.624   1.888
15120SOL    HW157422   3.916   8.636   1.789
15120SOL    HW257423   3.983   8.695   1.926
15121SOL     OW57424   5.001   8.486   3.272
15121SOL    HW157425   4.945   8.445   3.343
15121SOL    HW257426   4.981   8.584   3.266
15122SOL     OW57427   4.268   9.102   3.272
15122SOL    HW157428   4.317   9.182   3.236
15122SOL    HW257429   4.176   9.100   3.233
15123SOL     OW57430   3.911   7.983   3.634
15123SOL    HW157431   3.928   7.884   3.639
15123SOL    HW257432   3.975   8.031   3.695
15124SOL     OW57433   5.350   8.944   2.873
15124SOL    HW157434   5.322   9.037   2.897
15124SOL    HW257435   5.400   8.903   2.949
15125SOL     OW57436   3.746   8.317   2.434
15125SOL    HW157437   3.753   8.416   2.421
15125SOL    HW257438   3.655   8.294   2.468
15126SOL     OW57439   4.255   8.115   3.372
15126SOL    HW157440   4.161   8.085   3.353
15126SOL    HW257441   4.264   8.212   3.349
15127SOL     OW57442   5.322   8.491   2.684
15127SOL    HW157443   5.284   8.580   2.657
15127SOL    HW257444   5.322   8.429   2.606
15128SOL     OW57445   4.480   7.897   2.853
15128SOL    HW157446   4.572   7.925   2.880
15128SOL    HW257447   4.412   7.948   2.907
15129SOL     OW57448   4.333   8.748   3.080
15129SOL    HW157449   4.246   8.747   3.031
15129SOL    HW257450   4.399   8.688   3.033
15130SOL     OW57451   3.899   8.090   2.994
15130SOL    HW157452   3.937   8.149   3.065
15130SOL    HW257453   3.882   8.143   2.912
15131SOL     OW57454   4.070   8.736   3.292
15131SOL    HW157455   4.089   8.824   3.336
15131SOL    HW257456   3.975   8.710   3.310
15132SOL     OW57457   5.313   9.052   3.640
15132SOL    HW157458   5.282   8.974   3.585
15132SOL    HW257459   5.282   9.137   3.598
15133SOL     OW57460   5.021   8.590   2.361
15133SOL    HW157461   5.120   8.594   2.377
15133SOL    HW257462   5.004   8.576   2.263
15134SOL     OW57463   4.374   7.756   2.309
15134SOL    HW157464   4.276   7.750   2.289
15134SOL    HW257465   4.393   7.713   2.397
15135SOL     OW57466   5.294   7.439   2.568
15135SOL    HW157467   5.289   7.480   2.477
15135SOL    HW257468   5.375   7.473   2.615
15136SOL     OW57469   4.897   8.195   3.261
15136SOL    HW157470   4.996   8.204   3.251
15136SOL    HW257471   4.853   8.197   3.171
15137SOL     OW57472   4.391   8.155   2.663
15137SOL    HW157473   4.413   8.077   2.721
15137SOL    HW257474   4.400   8.129   2.567
15138SOL     OW57475   5.056   8.862   2.875
15138SOL    HW157476   4.970   8.819   2.904
15138SOL    HW257477   5.045   8.902   2.784
15139SOL     OW57478   5.059   7.847   2.550
15139SOL    HW157479   5.058   7.839   2.451
15139SOL    HW257480   5.148   7.819   2.585
15140SOL     OW57481   4.786   8.863   4.383
15140SOL    HW157482   4.877   8.897   4.406
15140SOL    HW257483   4.758   8.901   4.295
15141SOL     OW57484   5.377   7.941   5.105
15141SOL    HW157485   5.279   7.933   5.127
15141SOL    HW257486   5.430   7.930   5.189
15142SOL     OW57487   4.044   7.578   3.710
15142SOL    HW157488   3.957   7.575   3.661
15142SOL    HW257489   4.095   7.660   3.682
15143SOL     OW57490   5.031   8.967   4.485
15143SOL    HW157491   5.020   9.064   4.508
15143SOL    HW257492   5.124   8.950   4.455
15144SOL     OW57493   4.909   7.478   5.043
15144SOL    HW157494   4.833   7.433   5.090
15144SOL    HW257495   4.938   7.423   4.965
15145SOL     OW57496   4.647   8.258   5.420
15145SOL    HW157497   4.612   8.233   5.330
15145SOL    HW257498   4.571   8.279   5.481
15146SOL     OW57499   4.272   7.465   3.836
15146SOL    HW157500   4.360   7.493   3.797
15146SOL    HW257501   4.200   7.528   3.806
15147SOL     OW57502   5.242   8.450   5.219
15147SOL    HW157503   5.150   8.455   5.181
15147SOL    HW257504   5.307   8.488   5.153
15148SOL     OW57505   5.142   8.457   4.900
15148SOL    HW157506   5.067   8.446   4.965
15148SOL    HW257507   5.179   8.550   4.906
15149SOL     OW57508   4.638   8.712   5.200
15149SOL    HW157509   4.581   8.775   5.146
15149SOL    HW257510   4.671   8.638   5.141
15150SOL     OW57511   4.181   8.605   4.409
15150SOL    HW157512   4.114   8.559   4.468
15150SOL    HW257513   4.273   8.573   4.432
15151SOL     OW57514   4.408   8.011   4.240
15151SOL    HW157515   4.447   8.081   4.181
15151SOL    HW257516   4.382   7.931   4.186
15152SOL     OW57517   5.028   7.919   5.449
15152SOL    HW157518   5.124   7.923   5.475
15152SOL    HW257519   4.984   7.843   5.496
15153SOL     OW57520   4.111   8.774   3.893
15153SOL    HW157521   4.175   8.790   3.818
15153SOL    HW257522   4.135   8.832   3.971
15154SOL     OW57523   4.262   7.730   4.703
15154SOL    HW157524   4.338   7.795   4.699
15154SOL    HW257525   4.292   7.641   4.670
15155SOL     OW57526   3.959   8.156   4.121
15155SOL    HW157527   3.974   8.090   4.195
15155SOL    HW257528   3.909   8.235   4.156
15156SOL     OW57529   4.545   9.101   4.298
15156SOL    HW157530   4.610   9.034   4.262
15156SOL    HW257531   4.535   9.177   4.234
15157SOL     OW57532   5.437   8.983   4.040
15157SOL    HW157533   5.533   8.957   4.033
15157SOL    HW257534   5.413   9.043   3.964
15158SOL     OW57535   5.349   7.676   4.811
15158SOL    HW157536   5.400   7.748   4.764
15158SOL    HW257537   5.254   7.703   4.820
15159SOL     OW57538   4.749   7.705   4.080
15159SOL    HW157539   4.774   7.799   4.101
15159SOL    HW257540   4.750   7.651   4.164
15160SOL     OW57541   3.873   8.418   5.265
15160SOL    HW157542   3.969   8.433   5.283
15160SOL    HW257543   3.835   8.356   5.334
15161SOL     OW57544   4.199   8.063   3.808
15161SOL    HW157545   4.159   8.142   3.761
15161SOL    HW257546   4.288   8.042   3.768
15162SOL     OW57547   4.372   8.987   4.506
15162SOL    HW157548   4.445   9.010   4.442
15162SOL    HW257549   4.301   8.934   4.460
15163SOL     OW57550   4.714   8.019   5.260
15163SOL    HW157551   4.747   7.936   5.307
15163SOL    HW257552   4.787   8.087   5.259
15164SOL     OW57553   4.049   8.640   4.158
15164SOL    HW157554   4.095   8.614   4.243
15164SOL    HW257555   4.069   8.572   4.087
15165SOL     OW57556   4.907   7.695   3.869
15165SOL    HW157557   5.001   7.665   3.887
15165SOL    HW257558   4.855   7.695   3.955
15166SOL     OW57559   4.059   7.900   4.964
15166SOL    HW157560   4.049   7.813   4.916
15166SOL    HW257561   3.995   7.967   4.927
15167SOL     OW57562   5.141   8.180   5.002
15167SOL    HW157563   5.145   8.274   4.967
15167SOL    HW257564   5.234   8.149   5.024
15168SOL     OW57565   4.094   7.672   4.123
15168SOL    HW157566   4.048   7.712   4.202
15168SOL    HW257567   4.042   7.691   4.041
15169SOL     OW57568   5.222   9.199   5.035
15169SOL    HW157569   5.165   9.150   4.969
15169SOL    HW257570   5.308   9.226   4.992
15170SOL     OW57571   5.517   7.917   4.890
15170SOL    HW157572   5.574   7.999   4.892
15170SOL    HW257573   5.458   7.916   4.970
15171SOL     OW57574   4.647   7.883   4.365
15171SOL    HW157575   4.723   7.911   4.424
15171SOL    HW257576   4.603   7.963   4.326
15172SOL     OW57577   4.882   8.347   3.882
15172SOL    HW157578   4.919   8.297   3.960
15172SOL    HW257579   4.812   8.292   3.837
15173SOL     OW57580   4.724   7.769   5.503
15173SOL    HW157581   4.787   7.774   5.580
15173SOL    HW257582   4.632   7.747   5.536
15174SOL     OW57583   4.440   7.421   5.401
15174SOL    HW157584   4.447   7.327   5.368
15174SOL    HW257585   4.497   7.431   5.483
15175SOL     OW57586   5.363   8.022   4.669
15175SOL    HW157587   5.348   8.113   4.706
15175SOL    HW257588   5.433   7.975   4.723
15176SOL     OW57589   4.773   8.688   5.435
15176SOL    HW157590   4.795   8.598   5.397
15176SOL    HW257591   4.708   8.735   5.376
15177SOL     OW57592   4.428   8.530   5.439
15177SOL    HW157593   4.399   8.607   5.496
15177SOL    HW257594   4.438   8.449   5.497
15178SOL     OW57595   5.063   7.394   4.545
15178SOL    HW157596   5.012   7.478   4.527
15178SOL    HW257597   5.149   7.396   4.494
15179SOL     OW57598   5.418   7.600   5.474
15179SOL    HW157599   5.395   7.621   5.569
15179SOL    HW257600   5.394   7.505   5.454
15180SOL     OW57601   3.721   8.004   4.218
15180SOL    HW157602   3.723   7.955   4.305
15180SOL    HW257603   3.723   8.103   4.236
15181SOL     OW57604   4.042   7.592   4.539
15181SOL    HW157605   4.094   7.632   4.614
15181SOL    HW257606   4.095   7.519   4.496
15182SOL     OW57607   4.026   7.640   4.873
15182SOL    HW157608   3.991   7.547   4.873
15182SOL    HW257609   4.113   7.643   4.824
15183SOL     OW57610   4.693   8.262   4.613
15183SOL    HW157611   4.719   8.342   4.559
15183SOL    HW257612   4.687   8.182   4.553
15184SOL     OW57613   3.894   8.889   4.072
15184SOL    HW157614   3.921   8.795   4.092
15184SOL    HW257615   3.919   8.911   3.978
15185SOL     OW57616   5.176   8.758   4.946
15185SOL    HW157617   5.147   8.795   4.857
15185SOL    HW257618   5.098   8.758   5.008
15186SOL     OW57619   4.181   8.329   3.711
15186SOL    HW157620   4.150   8.363   3.623
15186SOL    HW257621   4.185   8.404   3.777
15187SOL     OW57622   4.698   8.516   5.010
15187SOL    HW157623   4.748   8.431   4.994
15187SOL    HW257624   4.652   8.543   4.925
15188SOL     OW57625   3.785   8.221   3.884
15188SOL    HW157626   3.845   8.168   3.944
15188SOL    HW257627   3.691   8.189   3.896
15189SOL     OW57628   4.553   9.206   4.732
15189SOL    HW157629   4.599   9.139   4.674
15189SOL    HW257630   4.479   9.162   4.782
15190SOL     OW57631   4.460   8.275   3.768
15190SOL    HW157632   4.489   8.194   3.819
15190SOL    HW257633   4.360   8.274   3.759
15191SOL     OW57634   5.056   7.807   4.114
15191SOL    HW157635   4.993   7.865   4.062
15191SOL    HW257636   5.149   7.841   4.102
15192SOL     OW57637   3.953   8.008   5.214
15192SOL    HW157638   3.973   7.913   5.189
15192SOL    HW257639   3.916   8.011   5.307
15193SOL     OW57640   3.835   7.663   5.104
15193SOL    HW157641   3.907   7.673   5.035
15193SOL    HW257642   3.746   7.662   5.059
15194SOL     OW57643   4.733   8.284   4.869
15194SOL    HW157644   4.727   8.270   4.770
15194SOL    HW257645   4.652   8.245   4.913
15195SOL     OW57646   5.324   7.818   4.184
15195SOL    HW157647   5.420   7.789   4.181
15195SOL    HW257648   5.285   7.796   4.273
15196SOL     OW57649   4.608   8.893   4.621
15196SOL    HW157650   4.666   8.904   4.540
15196SOL    HW257651   4.514   8.917   4.599
15197SOL     OW57652   4.558   7.759   3.906
15197SOL    HW157653   4.467   7.772   3.944
15197SOL    HW257654   4.618   7.719   3.976
15198SOL     OW57655   4.669   8.704   3.841
15198SOL    HW157656   4.722   8.644   3.901
15198SOL    HW257657   4.708   8.705   3.750
15199SOL     OW57658   5.420   8.999   4.326
15199SOL    HW157659   5.387   9.092   4.345
15199SOL    HW257660   5.418   8.983   4.227
15200SOL     OW57661   4.835   8.272   4.315
15200SOL    HW157662   4.900   8.300   4.386
15200SOL    HW257663   4.756   8.333   4.317
15201SOL     OW57664   4.583   8.998   5.339
15201SOL    HW157665   4.571   8.929   5.268
15201SOL    HW257666   4.546   8.963   5.426
15202SOL     OW57667   5.027   8.312   4.518
15202SOL    HW157668   5.048   8.254   4.596
15202SOL    HW257669   5.036   8.408   4.544
15203SOL     OW57670   3.983   8.441   4.564
15203SOL    HW157671   3.906   8.503   4.557
15203SOL    HW257672   4.020   8.442   4.657
15204SOL     OW57673   4.616   8.389   4.263
15204SOL    HW157674   4.603   8.300   4.220
15204SOL    HW257675   4.547   8.403   4.334
15205SOL     OW57676   4.920   8.777   5.102
15205SOL    HW157677   4.953   8.862   5.143
15205SOL    HW257678   4.821   8.773   5.109
15206SOL     OW57679   3.727   7.694   4.166
15206SOL    HW157680   3.787   7.645   4.104
15206SOL    HW257681   3.782   7.746   4.231
15207SOL     OW57682   5.350   9.192   3.857
15207SOL    HW157683   5.440   9.236   3.859
15207SOL    HW257684   5.349   9.123   3.785
15208SOL     OW57685   4.514   8.159   5.015
15208SOL    HW157686   4.516   8.245   5.066
15208SOL    HW257687   4.571   8.091   5.062
15209SOL     OW57688   4.532   8.205   4.080
15209SOL    HW157689   4.443   8.233   4.045
15209SOL    HW257690   4.573   8.139   4.016
15210SOL     OW57691   4.054   7.923   4.619
15210SOL    HW157692   4.110   7.916   4.536
15210SOL    HW257693   4.111   7.901   4.699
15211SOL     OW57694   5.027   9.143   4.827
15211SOL    HW157695   5.046   9.206   4.753
15211SOL    HW257696   5.035   9.049   4.794
15212SOL     OW57697   3.732   8.538   4.639
15212SOL    HW157698   3.642   8.554   4.600
15212SOL    HW257699   3.730   8.454   4.694
15213SOL     OW57700   4.483   7.443   4.089
15213SOL    HW157701   4.444   7.432   3.998
15213SOL    HW257702   4.439   7.519   4.136
15214SOL     OW57703   3.728   8.579   4.183
15214SOL    HW157704   3.806   8.637   4.207
15214SOL    HW257705   3.747   8.530   4.098
15215SOL     OW57706   5.258   7.707   5.267
15215SOL    HW157707   5.197   7.785   5.264
15215SOL    HW257708   5.313   7.711   5.350
15216SOL     OW57709   4.974   7.653   4.558
15216SOL    HW157710   4.973   7.731   4.495
15216SOL    HW257711   5.017   7.680   4.644
15217SOL     OW57712   5.094   7.459   3.854
15217SOL    HW157713   5.174   7.399   3.851
15217SOL    HW257714   5.020   7.412   3.902
15218SOL     OW57715   5.307   7.431   5.288
15218SOL    HW157716   5.333   7.388   5.202
15218SOL    HW257717   5.257   7.515   5.270
15219SOL     OW57718   4.409   7.690   4.420
15219SOL    HW157719   4.398   7.632   4.501
15219SOL    HW257720   4.494   7.742   4.428
15220SOL     OW57721   4.989   8.041   4.812
15220SOL    HW157722   5.043   8.081   4.738
15220SOL    HW257723   5.027   8.070   4.900
15221SOL     OW57724   5.282   7.447   4.128
15221SOL    HW157725   5.289   7.401   4.040
15221SOL    HW257726   5.186   7.457   4.153
15222SOL     OW57727   4.258   8.762   5.491
15222SOL    HW157728   4.219   8.825   5.424
15222SOL    HW257729   4.341   8.802   5.531
15223SOL     OW57730   4.134   8.494   5.323
15223SOL    HW157731   4.153   8.518   5.228
15223SOL    HW257732   4.127   8.577   5.378
15224SOL     OW57733   3.795   8.784   4.797
15224SOL    HW157734   3.764   8.710   4.738
15224SOL    HW257735   3.727   8.802   4.868
15225SOL     OW57736   4.881   7.985   4.530
15225SOL    HW157737   4.963   7.962   4.478
15225SOL    HW257738   4.876   7.926   4.611
15226SOL     OW57739   5.481   8.012   5.366
15226SOL    HW157740   5.470   8.098   5.315
15226SOL    HW257741   5.575   8.003   5.396
15227SOL     OW57742   5.052   7.785   4.785
15227SOL    HW157743   5.026   7.882   4.791
15227SOL    HW257744   5.052   7.745   4.877
15228SOL     OW57745   5.282   7.917   5.536
15228SOL    HW157746   5.362   7.942   5.480
15228SOL    HW257747   5.313   7.882   5.624
15229SOL     OW57748   5.446   8.253   5.231
15229SOL    HW157749   5.348   8.274   5.233
15229SOL    HW257750   5.495   8.329   5.190
15230SOL     OW57751   4.447   8.888   5.130
15230SOL    HW157752   4.384   8.966   5.137
15230SOL    HW257753   4.415   8.826   5.058
15231SOL     OW57754   3.838   7.683   5.395
15231SOL    HW157755   3.856   7.672   5.297
15231SOL    HW257756   3.740   7.679   5.412
15232SOL     OW57757   3.718   9.097   5.339
15232SOL    HW157758   3.790   9.083   5.407
15232SOL    HW257759   3.629   9.100   5.384
15233SOL     OW57760   3.886   7.753   4.363
15233SOL    HW157761   3.829   7.808   4.424
15233SOL    HW257762   3.956   7.705   4.416
15234SOL     OW57763   4.023   7.944   3.961
15234SOL    HW157764   4.095   7.973   3.898
15234SOL    HW257765   3.979   8.024   4.001
15235SOL     OW57766   5.409   7.606   5.064
15235SOL    HW157767   5.365   7.654   5.140
15235SOL    HW257768   5.387   7.652   4.978
15236SOL     OW57769   4.063   8.716   4.872
15236SOL    HW157770   4.075   8.732   4.969
15236SOL    HW257771   3.976   8.756   4.842
15237SOL     OW57772   4.947   8.920   5.518
15237SOL    HW157773   4.906   8.835   5.484
15237SOL    HW257774   4.927   8.994   5.454
15238SOL     OW57775   4.437   8.640   4.208
15238SOL    HW157776   4.480   8.571   4.150
15238SOL    HW257777   4.401   8.597   4.291
15239SOL     OW57778   4.069   8.191   4.410
15239SOL    HW157779   4.061   8.289   4.428
15239SOL    HW257780   4.153   8.157   4.451
15240SOL     OW57781   3.915   7.671   3.925
15240SOL    HW157782   3.959   7.640   3.842
15240SOL    HW257783   3.916   7.771   3.929
15241SOL     OW57784   3.768   7.923   4.536
15241SOL    HW157785   3.732   8.016   4.528
15241SOL    HW257786   3.851   7.924   4.592
15242SOL     OW57787   4.203   8.510   3.922
15242SOL    HW157788   4.303   8.510   3.933
15242SOL    HW257789   4.172   8.603   3.901
15243SOL     OW57790   4.829   8.102   3.738
15243SOL    HW157791   4.760   8.159   3.694
15243SOL    HW257792   4.910   8.096   3.679
15244SOL     OW57793   4.564   8.021   3.881
15244SOL    HW157794   4.654   8.022   3.836
15244SOL    HW257795   4.541   7.927   3.906
15245SOL     OW57796   5.015   7.538   4.175
15245SOL    HW157797   4.925   7.522   4.216
15245SOL    HW257798   5.023   7.634   4.149
15246SOL     OW57799   5.129   7.938   5.191
15246SOL    HW157800   5.081   7.961   5.275
15246SOL    HW257801   5.063   7.908   5.122
15247SOL     OW57802   3.764   7.453   3.835
15247SOL    HW157803   3.827   7.376   3.843
15247SOL    HW257804   3.784   7.521   3.906
15248SOL     OW57805   4.037   8.428   4.836
15248SOL    HW157806   4.048   8.383   4.925
15248SOL    HW257807   4.064   8.524   4.843
15249SOL     OW57808   4.318   8.041   4.858
15249SOL    HW157809   4.393   8.084   4.907
15249SOL    HW257810   4.251   8.006   4.924
15250SOL     OW57811   4.461   8.410   5.175
15250SOL    HW157812   4.530   8.462   5.125
15250SOL    HW257813   4.456   8.443   5.270
15251SOL     OW57814   4.853   8.431   5.335
15251SOL    HW157815   4.775   8.377   5.368
15251SOL    HW257816   4.934   8.409   5.390
15252SOL     OW57817   4.782   7.613   4.331
15252SOL    HW157818   4.841   7.673   4.386
15252SOL    HW257819   4.709   7.577   4.388
15253SOL     OW57820   4.310   7.490   4.602
15253SOL    HW157821   4.238   7.423   4.588
15253SOL    HW257822   4.392   7.444   4.637
15254SOL     OW57823   4.703   8.619   4.514
15254SOL    HW157824   4.742   8.662   4.433
15254SOL    HW257825   4.776   8.602   4.581
15255SOL     OW57826   4.397   8.347   4.716
15255SOL    HW157827   4.395   8.263   4.661
15255SOL    HW257828   4.346   8.333   4.801
15256SOL     OW57829   3.736   8.357   4.842
15256SOL    HW157830   3.825   8.335   4.882
15256SOL    HW257831   3.681   8.273   4.838
15257SOL     OW57832   3.964   7.402   4.122
15257SOL    HW157833   4.002   7.490   4.149
15257SOL    HW257834   3.887   7.378   4.182
15258SOL     OW57835   4.380   8.019   5.450
15258SOL    HW157836   4.332   8.070   5.379
15258SOL    HW257837   4.473   7.998   5.420
15259SOL     OW57838   3.786   8.489   3.942
15259SOL    HW157839   3.776   8.392   3.921
15259SOL    HW257840   3.839   8.534   3.870
15260SOL     OW57841   5.483   7.601   4.543
15260SOL    HW157842   5.438   7.583   4.630
15260SOL    HW257843   5.581   7.618   4.559
15261SOL     OW57844   4.531   8.577   4.795
15261SOL    HW157845   4.482   8.492   4.776
15261SOL    HW257846   4.601   8.592   4.726
15262SOL     OW57847   4.869   8.000   4.004
15262SOL    HW157848   4.921   8.072   4.050
15262SOL    HW257849   4.882   8.007   3.906
15263SOL     OW57850   5.230   8.815   5.331
15263SOL    HW157851   5.215   8.717   5.345
15263SOL    HW257852   5.147   8.857   5.295
15264SOL     OW57853   3.987   8.257   5.071
15264SOL    HW157854   3.951   8.167   5.097
15264SOL    HW257855   3.948   8.327   5.131
15265SOL     OW57856   4.489   8.883   3.729
15265SOL    HW157857   4.464   8.960   3.788
15265SOL    HW257858   4.553   8.823   3.777
15266SOL     OW57859   4.307   9.090   4.763
15266SOL    HW157860   4.327   9.060   4.670
15266SOL    HW257861   4.232   9.035   4.800
15267SOL     OW57862   4.450   8.501   4.480
15267SOL    HW157863   4.539   8.547   4.480
15267SOL    HW257864   4.443   8.441   4.559
15268SOL     OW57865   4.628   8.848   4.149
15268SOL    HW157866   4.678   8.836   4.064
15268SOL    HW257867   4.574   8.765   4.168
15269SOL     OW57868   3.818   8.195   4.549
15269SOL    HW157869   3.913   8.186   4.517
15269SOL    HW257870   3.784   8.287   4.528
15270SOL     OW57871   3.755   8.312   5.476
15270SOL    HW157872   3.670   8.263   5.457
15270SOL    HW257873   3.782   8.299   5.571
15271SOL     OW57874   4.652   9.221   5.182
15271SOL    HW157875   4.624   9.134   5.223
15271SOL    HW257876   4.596   9.295   5.219
15272SOL     OW57877   4.881   8.568   4.712
15272SOL    HW157878   4.865   8.662   4.743
15272SOL    HW257879   4.884   8.507   4.792
15273SOL     OW57880   4.155   7.839   5.476
15273SOL    HW157881   4.191   7.786   5.399
15273SOL    HW257882   4.216   7.916   5.494
15274SOL     OW57883   4.219   8.256   4.048
15274SOL    HW157884   4.169   8.321   3.992
15274SOL    HW257885   4.161   8.177   4.067
15275SOL     OW57886   5.300   8.287   4.746
15275SOL    HW157887   5.319   8.326   4.655
15275SOL    HW257888   5.254   8.356   4.802
15276SOL     OW57889   4.992   7.730   5.042
15276SOL    HW157890   5.063   7.702   5.106
15276SOL    HW257891   4.939   7.650   5.014
15277SOL     OW57892   3.693   7.429   4.243
15277SOL    HW157893   3.606   7.416   4.196
15277SOL    HW257894   3.701   7.524   4.273
15278SOL     OW57895   4.914   7.530   5.484
15278SOL    HW157896   4.973   7.546   5.564
15278SOL    HW257897   4.861   7.613   5.465
15279SOL     OW57898   4.130   8.949   5.309
15279SOL    HW157899   4.072   9.014   5.358
15279SOL    HW257900   4.192   8.999   5.249
15280SOL     OW57901   4.736   7.949   4.800
15280SOL    HW157902   4.822   8.000   4.799
15280SOL    HW257903   4.742   7.875   4.867
15281SOL     OW57904   4.781   9.012   4.960
15281SOL    HW157905   4.707   9.076   4.978
15281SOL    HW257906   4.860   9.061   4.922
15282SOL     OW57907   3.990   9.142   5.459
15282SOL    HW157908   4.033   9.226   5.425
15282SOL    HW257909   4.015   9.129   5.555
15283SOL     OW57910   3.850   8.678   5.330
15283SOL    HW157911   3.829   8.583   5.303
15283SOL    HW257912   3.781   8.739   5.292
15284SOL     OW57913   3.939   9.043   4.734
15284SOL    HW157914   3.881   8.963   4.748
15284SOL    HW257915   3.963   9.050   4.637
15285SOL     OW57916   4.685   7.564   4.589
15285SOL    HW157917   4.781   7.565   4.617
15285SOL    HW257918   4.630   7.521   4.661
15286SOL     OW57919   4.747   8.570   4.105
15286SOL    HW157920   4.827   8.606   4.153
15286SOL    HW257921   4.705   8.497   4.161
15287SOL     OW57922   5.338   7.837   4.469
15287SOL    HW157923   5.357   7.923   4.516
15287SOL    HW257924   5.406   7.768   4.497
15288SOL     OW57925   4.481   8.509   3.955
15288SOL    HW157926   4.553   8.568   3.920
15288SOL    HW257927   4.521   8.425   3.991
15289SOL     OW57928   4.552   7.485   3.807
15289SOL    HW157929   4.627   7.419   3.819
15289SOL    HW257930   4.583   7.576   3.835
15290SOL     OW57931   4.231   7.914   4.419
15290SOL    HW157932   4.269   7.825   4.445
15290SOL    HW257933   4.298   7.964   4.364
15291SOL     OW57934   4.219   8.472   5.073
15291SOL    HW157935   4.315   8.452   5.093
15291SOL    HW257936   4.208   8.570   5.055
15292SOL     OW57937   3.924   8.624   3.734
15292SOL    HW157938   3.916   8.636   3.635
15292SOL    HW257939   3.983   8.695   3.772
15293SOL     OW57940   5.001   8.486   5.118
15293SOL    HW157941   4.945   8.445   5.189
15293SOL    HW257942   4.981   8.584   5.112
15294SOL     OW57943   4.268   9.102   5.118
15294SOL    HW157944   4.317   9.182   5.082
15294SOL    HW257945   4.176   9.100   5.079
15295SOL     OW57946   3.911   7.983   5.480
15295SOL    HW157947   3.928   7.884   5.485
15295SOL    HW257948   3.975   8.031   5.541
15296SOL     OW57949   5.350   8.944   4.719
15296SOL    HW157950   5.322   9.037   4.743
15296SOL    HW257951   5.400   8.903   4.795
15297SOL     OW57952   3.746   8.317   4.280
15297SOL    HW157953   3.753   8.416   4.267
15297SOL    HW257954   3.655   8.294   4.314
15298SOL     OW57955   4.255   8.115   5.218
15298SOL    HW157956   4.161   8.085   5.199
15298SOL    HW257957   4.264   8.212   5.195
15299SOL     OW57958   4.480   7.897   4.699
15299SOL    HW157959   4.572   7.925   4.726
15299SOL    HW257960   4.412   7.948   4.753
15300SOL     OW57961   4.333   8.748   4.926
15300SOL    HW157962   4.246   8.747   4.877
15300SOL    HW257963   4.399   8.688   4.879
15301SOL     OW57964   3.899   8.090   4.840
15301SOL    HW157965   3.937   8.149   4.911
15301SOL    HW257966   3.882   8.143   4.758
15302SOL     OW57967   4.070   8.736   5.138
15302SOL    HW157968   4.089   8.824   5.182
15302SOL    HW257969   3.975   8.710   5.156
15303SOL     OW57970   5.021   8.590   4.207
15303SOL    HW157971   5.120   8.594   4.223
15303SOL    HW257972   5.004   8.576   4.109
15304SOL     OW57973   4.374   7.756   4.155
15304SOL    HW157974   4.276   7.750   4.135
15304SOL    HW257975   4.393   7.713   4.243
15305SOL     OW57976   5.294   7.439   4.414
15305SOL    HW157977   5.289   7.480   4.323
15305SOL    HW257978   5.375   7.473   4.461
15306SOL     OW57979   4.897   8.195   5.107
15306SOL    HW157980   4.996   8.204   5.097
15306SOL    HW257981   4.853   8.197   5.017
15307SOL     OW57982   4.391   8.155   4.509
15307SOL    HW157983   4.413   8.077   4.567
15307SOL    HW257984   4.400   8.129   4.413
15308SOL     OW57985   5.056   8.862   4.721
15308SOL    HW157986   4.970   8.819   4.750
15308SOL    HW257987   5.045   8.902   4.630
15309SOL     OW57988   5.059   7.847   4.396
15309SOL    HW157989   5.058   7.839   4.297
15309SOL    HW257990   5.148   7.819   4.431
15310SOL     OW57991   4.786   8.863   6.228
15310SOL    HW157992   4.877   8.897   6.251
15310SOL    HW257993   4.758   8.901   6.140
15311SOL     OW57994   5.377   7.941   6.950
15311SOL    HW157995   5.279   7.933   6.972
15311SOL    HW257996   5.430   7.930   7.034
15312SOL     OW57997   4.044   7.578   5.555
15312SOL    HW157998   3.957   7.575   5.506
15312SOL    HW257999   4.095   7.660   5.527
15313SOL     OW58000   5.031   8.967   6.330
15313SOL    HW158001   5.020   9.064   6.353
15313SOL    HW258002   5.124   8.950   6.300
15314SOL     OW58003   4.909   7.478   6.888
15314SOL    HW158004   4.833   7.433   6.935
15314SOL    HW258005   4.938   7.423   6.810
15315SOL     OW58006   4.647   8.258   7.265
15315SOL    HW158007   4.612   8.233   7.175
15315SOL    HW258008   4.571   8.279   7.326
15316SOL     OW58009   4.254   8.932   5.959
15316SOL    HW158010   4.210   8.941   6.048
15316SOL    HW258011   4.325   8.862   5.963
15317SOL     OW58012   4.272   7.465   5.681
15317SOL    HW158013   4.360   7.493   5.642
15317SOL    HW258014   4.200   7.528   5.651
15318SOL     OW58015   4.638   8.712   7.045
15318SOL    HW158016   4.581   8.775   6.991
15318SOL    HW258017   4.671   8.638   6.986
15319SOL     OW58018   4.181   8.605   6.254
15319SOL    HW158019   4.114   8.559   6.313
15319SOL    HW258020   4.273   8.573   6.277
15320SOL     OW58021   4.408   8.011   6.085
15320SOL    HW158022   4.447   8.081   6.026
15320SOL    HW258023   4.382   7.931   6.031
15321SOL     OW58024   4.111   8.774   5.738
15321SOL    HW158025   4.175   8.790   5.663
15321SOL    HW258026   4.135   8.832   5.816
15322SOL     OW58027   4.262   7.730   6.548
15322SOL    HW158028   4.338   7.795   6.544
15322SOL    HW258029   4.292   7.641   6.515
15323SOL     OW58030   3.959   8.156   5.966
15323SOL    HW158031   3.974   8.090   6.040
15323SOL    HW258032   3.909   8.235   6.001
15324SOL     OW58033   4.545   9.101   6.143
15324SOL    HW158034   4.610   9.034   6.107
15324SOL    HW258035   4.535   9.177   6.079
15325SOL     OW58036   5.437   8.983   5.885
15325SOL    HW158037   5.533   8.957   5.878
15325SOL    HW258038   5.413   9.043   5.809
15326SOL     OW58039   5.349   7.676   6.656
15326SOL    HW158040   5.400   7.748   6.609
15326SOL    HW258041   5.254   7.703   6.665
15327SOL     OW58042   4.749   7.705   5.925
15327SOL    HW158043   4.774   7.799   5.946
15327SOL    HW258044   4.750   7.651   6.009
15328SOL     OW58045   3.873   8.418   7.110
15328SOL    HW158046   3.969   8.433   7.128
15328SOL    HW258047   3.835   8.356   7.179
15329SOL     OW58048   4.199   8.063   5.653
15329SOL    HW158049   4.159   8.142   5.606
15329SOL    HW258050   4.288   8.042   5.613
15330SOL     OW58051   4.372   8.987   6.351
15330SOL    HW158052   4.445   9.010   6.287
15330SOL    HW258053   4.301   8.934   6.305
15331SOL     OW58054   4.049   8.640   6.003
15331SOL    HW158055   4.095   8.614   6.088
15331SOL    HW258056   4.069   8.572   5.932
15332SOL     OW58057   4.907   7.695   5.714
15332SOL    HW158058   5.001   7.665   5.732
15332SOL    HW258059   4.855   7.695   5.800
15333SOL     OW58060   4.059   7.900   6.809
15333SOL    HW158061   4.049   7.813   6.761
15333SOL    HW258062   3.995   7.967   6.772
15334SOL     OW58063   4.094   7.672   5.968
15334SOL    HW158064   4.048   7.712   6.047
15334SOL    HW258065   4.042   7.691   5.886
15335SOL     OW58066   5.222   9.199   6.880
15335SOL    HW158067   5.165   9.150   6.814
15335SOL    HW258068   5.308   9.226   6.837
15336SOL     OW58069   5.517   7.917   6.735
15336SOL    HW158070   5.574   7.999   6.737
15336SOL    HW258071   5.458   7.916   6.815
15337SOL     OW58072   4.647   7.883   6.210
15337SOL    HW158073   4.723   7.911   6.269
15337SOL    HW258074   4.603   7.963   6.171
15338SOL     OW58075   4.882   8.347   5.727
15338SOL    HW158076   4.919   8.297   5.805
15338SOL    HW258077   4.812   8.292   5.682
15339SOL     OW58078   5.465   8.016   5.806
15339SOL    HW158079   5.486   7.935   5.752
15339SOL    HW258080   5.482   7.997   5.903
15340SOL     OW58081   4.759   9.154   5.714
15340SOL    HW158082   4.793   9.067   5.679
15340SOL    HW258083   4.727   9.142   5.808
15341SOL     OW58084   4.440   7.421   7.246
15341SOL    HW158085   4.447   7.327   7.213
15341SOL    HW258086   4.497   7.431   7.328
15342SOL     OW58087   5.363   8.022   6.514
15342SOL    HW158088   5.348   8.113   6.551
15342SOL    HW258089   5.433   7.975   6.568
15343SOL     OW58090   4.773   8.688   7.280
15343SOL    HW158091   4.795   8.598   7.242
15343SOL    HW258092   4.708   8.735   7.221
15344SOL     OW58093   4.428   8.530   7.284
15344SOL    HW158094   4.399   8.607   7.341
15344SOL    HW258095   4.438   8.449   7.342
15345SOL     OW58096   5.063   7.394   6.390
15345SOL    HW158097   5.012   7.478   6.372
15345SOL    HW258098   5.149   7.396   6.339
15346SOL     OW58099   5.418   7.600   7.319
15346SOL    HW158100   5.395   7.621   7.414
15346SOL    HW258101   5.394   7.505   7.299
15347SOL     OW58102   4.042   7.592   6.384
15347SOL    HW158103   4.094   7.632   6.459
15347SOL    HW258104   4.095   7.519   6.341
15348SOL     OW58105   4.026   7.640   6.718
15348SOL    HW158106   3.991   7.547   6.718
15348SOL    HW258107   4.113   7.643   6.669
15349SOL     OW58108   4.693   8.262   6.458
15349SOL    HW158109   4.719   8.342   6.404
15349SOL    HW258110   4.687   8.182   6.398
15350SOL     OW58111   3.894   8.889   5.917
15350SOL    HW158112   3.921   8.795   5.937
15350SOL    HW258113   3.919   8.911   5.823
15351SOL     OW58114   3.908   9.032   6.154
15351SOL    HW158115   3.824   9.083   6.172
15351SOL    HW258116   3.899   8.981   6.069
15352SOL     OW58117   4.181   8.329   5.556
15352SOL    HW158118   4.150   8.363   5.468
15352SOL    HW258119   4.185   8.404   5.622
15353SOL     OW58120   4.698   8.516   6.855
15353SOL    HW158121   4.748   8.431   6.839
15353SOL    HW258122   4.652   8.543   6.770
15354SOL     OW58123   3.785   8.221   5.729
15354SOL    HW158124   3.845   8.168   5.789
15354SOL    HW258125   3.691   8.189   5.741
15355SOL     OW58126   5.305   8.219   5.929
15355SOL    HW158127   5.373   8.153   5.896
15355SOL    HW258128   5.320   8.307   5.885
15356SOL     OW58129   4.553   9.206   6.577
15356SOL    HW158130   4.599   9.139   6.519
15356SOL    HW258131   4.479   9.162   6.627
15357SOL     OW58132   4.460   8.275   5.613
15357SOL    HW158133   4.489   8.194   5.664
15357SOL    HW258134   4.360   8.274   5.604
15358SOL     OW58135   5.056   7.807   5.959
15358SOL    HW158136   4.993   7.865   5.907
15358SOL    HW258137   5.149   7.841   5.947
15359SOL     OW58138   3.953   8.008   7.059
15359SOL    HW158139   3.973   7.913   7.034
15359SOL    HW258140   3.916   8.011   7.152
15360SOL     OW58141   3.835   7.663   6.949
15360SOL    HW158142   3.907   7.673   6.880
15360SOL    HW258143   3.746   7.662   6.904
15361SOL     OW58144   5.324   7.818   6.029
15361SOL    HW158145   5.420   7.789   6.026
15361SOL    HW258146   5.285   7.796   6.118
15362SOL     OW58147   4.608   8.893   6.466
15362SOL    HW158148   4.666   8.904   6.385
15362SOL    HW258149   4.514   8.917   6.444
15363SOL     OW58150   4.558   7.759   5.751
15363SOL    HW158151   4.467   7.772   5.789
15363SOL    HW258152   4.618   7.719   5.821
15364SOL     OW58153   4.669   8.704   5.686
15364SOL    HW158154   4.722   8.644   5.746
15364SOL    HW258155   4.708   8.705   5.595
15365SOL     OW58156   4.835   8.272   6.160
15365SOL    HW158157   4.900   8.300   6.231
15365SOL    HW258158   4.756   8.333   6.162
15366SOL     OW58159   4.583   8.998   7.184
15366SOL    HW158160   4.571   8.929   7.113
15366SOL    HW258161   4.546   8.963   7.271
15367SOL     OW58162   5.027   8.312   6.363
15367SOL    HW158163   5.048   8.254   6.441
15367SOL    HW258164   5.036   8.408   6.389
15368SOL     OW58165   3.983   8.441   6.409
15368SOL    HW158166   3.906   8.503   6.402
15368SOL    HW258167   4.020   8.442   6.502
15369SOL     OW58168   4.616   8.389   6.108
15369SOL    HW158169   4.603   8.300   6.065
15369SOL    HW258170   4.547   8.403   6.179
15370SOL     OW58171   4.920   8.777   6.947
15370SOL    HW158172   4.953   8.862   6.988
15370SOL    HW258173   4.821   8.773   6.954
15371SOL     OW58174   4.514   8.159   6.860
15371SOL    HW158175   4.516   8.245   6.911
15371SOL    HW258176   4.571   8.091   6.907
15372SOL     OW58177   3.751   9.186   6.931
15372SOL    HW158178   3.759   9.286   6.929
15372SOL    HW258179   3.727   9.157   7.024
15373SOL     OW58180   4.532   8.205   5.925
15373SOL    HW158181   4.443   8.233   5.890
15373SOL    HW258182   4.573   8.139   5.861
15374SOL     OW58183   4.051   9.121   5.735
15374SOL    HW158184   4.143   9.151   5.710
15374SOL    HW258185   4.026   9.160   5.824
15375SOL     OW58186   5.027   9.143   6.672
15375SOL    HW158187   5.046   9.206   6.598
15375SOL    HW258188   5.035   9.049   6.639
15376SOL     OW58189   3.732   8.538   6.484
15376SOL    HW158190   3.642   8.554   6.445
15376SOL    HW258191   3.730   8.454   6.539
15377SOL     OW58192   4.483   7.443   5.934
15377SOL    HW158193   4.444   7.432   5.843
15377SOL    HW258194   4.439   7.519   5.981
15378SOL     OW58195   3.728   8.579   6.028
15378SOL    HW158196   3.806   8.637   6.052
15378SOL    HW258197   3.747   8.530   5.943
15379SOL     OW58198   5.258   7.707   7.112
15379SOL    HW158199   5.197   7.785   7.109
15379SOL    HW258200   5.313   7.711   7.195
15380SOL     OW58201   4.974   7.653   6.403
15380SOL    HW158202   4.973   7.731   6.340
15380SOL    HW258203   5.017   7.680   6.489
15381SOL     OW58204   5.094   7.459   5.699
15381SOL    HW158205   5.174   7.399   5.696
15381SOL    HW258206   5.020   7.412   5.747
15382SOL     OW58207   5.307   7.431   7.133
15382SOL    HW158208   5.333   7.388   7.047
15382SOL    HW258209   5.257   7.515   7.115
15383SOL     OW58210   4.409   7.690   6.265
15383SOL    HW158211   4.398   7.632   6.346
15383SOL    HW258212   4.494   7.742   6.273
15384SOL     OW58213   5.282   7.447   5.973
15384SOL    HW158214   5.289   7.401   5.885
15384SOL    HW258215   5.186   7.457   5.998
15385SOL     OW58216   4.258   8.762   7.336
15385SOL    HW158217   4.219   8.825   7.269
15385SOL    HW258218   4.341   8.802   7.376
15386SOL     OW58219   4.134   8.494   7.168
15386SOL    HW158220   4.153   8.518   7.073
15386SOL    HW258221   4.127   8.577   7.223
15387SOL     OW58222   3.795   8.784   6.642
15387SOL    HW158223   3.764   8.710   6.583
15387SOL    HW258224   3.727   8.802   6.713
15388SOL     OW58225   4.881   7.985   6.375
15388SOL    HW158226   4.963   7.962   6.323
15388SOL    HW258227   4.876   7.926   6.456
15389SOL     OW58228   5.481   8.012   7.211
15389SOL    HW158229   5.470   8.098   7.160
15389SOL    HW258230   5.575   8.003   7.241
15390SOL     OW58231   5.282   7.917   7.381
15390SOL    HW158232   5.362   7.942   7.325
15390SOL    HW258233   5.313   7.882   7.469
15391SOL     OW58234   4.993   8.220   5.961
15391SOL    HW158235   4.939   8.218   6.045
15391SOL    HW258236   5.070   8.283   5.972
15392SOL     OW58237   5.290   8.316   6.181
15392SOL    HW158238   5.304   8.279   6.088
15392SOL    HW258239   5.201   8.286   6.215
15393SOL     OW58240   5.446   8.253   7.076
15393SOL    HW158241   5.348   8.274   7.078
15393SOL    HW258242   5.495   8.329   7.035
15394SOL     OW58243   5.300   7.673   5.755
15394SOL    HW158244   5.305   7.715   5.846
15394SOL    HW258245   5.233   7.598   5.757
15395SOL     OW58246   4.447   8.888   6.975
15395SOL    HW158247   4.384   8.966   6.982
15395SOL    HW258248   4.415   8.826   6.903
15396SOL     OW58249   3.838   7.683   7.240
15396SOL    HW158250   3.856   7.672   7.142
15396SOL    HW258251   3.740   7.679   7.257
15397SOL     OW58252   3.718   9.097   7.184
15397SOL    HW158253   3.790   9.083   7.252
15397SOL    HW258254   3.629   9.100   7.229
15398SOL     OW58255   5.058   8.985   7.071
15398SOL    HW158256   5.011   9.053   7.126
15398SOL    HW258257   5.125   9.031   7.012
15399SOL     OW58258   4.023   7.944   5.806
15399SOL    HW158259   4.095   7.973   5.743
15399SOL    HW258260   3.979   8.024   5.846
15400SOL     OW58261   5.409   7.606   6.909
15400SOL    HW158262   5.365   7.654   6.985
15400SOL    HW258263   5.387   7.652   6.823
15401SOL     OW58264   4.138   9.207   6.272
15401SOL    HW158265   4.062   9.173   6.217
15401SOL    HW258266   4.224   9.170   6.237
15402SOL     OW58267   4.063   8.716   6.717
15402SOL    HW158268   4.075   8.732   6.814
15402SOL    HW258269   3.976   8.756   6.687
15403SOL     OW58270   4.947   8.920   7.363
15403SOL    HW158271   4.906   8.835   7.329
15403SOL    HW258272   4.927   8.994   7.299
15404SOL     OW58273   4.437   8.640   6.053
15404SOL    HW158274   4.480   8.571   5.995
15404SOL    HW258275   4.401   8.597   6.136
15405SOL     OW58276   4.069   8.191   6.255
15405SOL    HW158277   4.061   8.289   6.273
15405SOL    HW258278   4.153   8.157   6.296
15406SOL     OW58279   3.915   7.671   5.770
15406SOL    HW158280   3.959   7.640   5.687
15406SOL    HW258281   3.916   7.771   5.774
15407SOL     OW58282   4.203   8.510   5.767
15407SOL    HW158283   4.303   8.510   5.778
15407SOL    HW258284   4.172   8.603   5.746
15408SOL     OW58285   4.829   8.102   5.583
15408SOL    HW158286   4.760   8.159   5.539
15408SOL    HW258287   4.910   8.096   5.524
15409SOL     OW58288   4.564   8.021   5.726
15409SOL    HW158289   4.654   8.022   5.681
15409SOL    HW258290   4.541   7.927   5.751
15410SOL     OW58291   5.015   7.538   6.020
15410SOL    HW158292   4.925   7.522   6.061
15410SOL    HW258293   5.023   7.634   5.994
15411SOL     OW58294   3.764   7.453   5.680
15411SOL    HW158295   3.827   7.376   5.688
15411SOL    HW258296   3.784   7.521   5.751
15412SOL     OW58297   4.037   8.428   6.681
15412SOL    HW158298   4.048   8.383   6.770
15412SOL    HW258299   4.064   8.524   6.688
15413SOL     OW58300   5.336   8.440   5.781
15413SOL    HW158301   5.407   8.510   5.783
15413SOL    HW258302   5.323   8.410   5.686
15414SOL     OW58303   4.318   8.041   6.703
15414SOL    HW158304   4.393   8.084   6.752
15414SOL    HW258305   4.251   8.006   6.769
15415SOL     OW58306   4.461   8.410   7.020
15415SOL    HW158307   4.530   8.462   6.970
15415SOL    HW258308   4.456   8.443   7.115
15416SOL     OW58309   4.782   7.613   6.176
15416SOL    HW158310   4.841   7.673   6.231
15416SOL    HW258311   4.709   7.577   6.233
15417SOL     OW58312   4.892   9.145   7.216
15417SOL    HW158313   4.797   9.143   7.184
15417SOL    HW258314   4.913   9.236   7.253
15418SOL     OW58315   4.310   7.490   6.447
15418SOL    HW158316   4.238   7.423   6.433
15418SOL    HW258317   4.392   7.444   6.482
15419SOL     OW58318   4.010   9.155   6.814
15419SOL    HW158319   3.990   9.137   6.718
15419SOL    HW258320   3.937   9.117   6.871
15420SOL     OW58321   4.703   8.619   6.359
15420SOL    HW158322   4.742   8.662   6.278
15420SOL    HW258323   4.776   8.602   6.426
15421SOL     OW58324   4.397   8.347   6.561
15421SOL    HW158325   4.395   8.263   6.506
15421SOL    HW258326   4.346   8.333   6.646
15422SOL     OW58327   3.736   8.357   6.687
15422SOL    HW158328   3.825   8.335   6.727
15422SOL    HW258329   3.681   8.273   6.683
15423SOL     OW58330   3.964   7.402   5.967
15423SOL    HW158331   4.002   7.490   5.994
15423SOL    HW258332   3.887   7.378   6.027
15424SOL     OW58333   4.380   8.019   7.295
15424SOL    HW158334   4.332   8.070   7.224
15424SOL    HW258335   4.473   7.998   7.265
15425SOL     OW58336   3.786   8.489   5.787
15425SOL    HW158337   3.776   8.392   5.766
15425SOL    HW258338   3.839   8.534   5.715
15426SOL     OW58339   5.483   7.601   6.388
15426SOL    HW158340   5.438   7.583   6.475
15426SOL    HW258341   5.581   7.618   6.404
15427SOL     OW58342   4.531   8.577   6.640
15427SOL    HW158343   4.482   8.492   6.621
15427SOL    HW258344   4.601   8.592   6.571
15428SOL     OW58345   4.869   8.000   5.849
15428SOL    HW158346   4.921   8.072   5.895
15428SOL    HW258347   4.882   8.007   5.751
15429SOL     OW58348   5.230   8.815   7.176
15429SOL    HW158349   5.215   8.717   7.190
15429SOL    HW258350   5.147   8.857   7.140
15430SOL     OW58351   3.987   8.257   6.916
15430SOL    HW158352   3.951   8.167   6.942
15430SOL    HW258353   3.948   8.327   6.976
15431SOL     OW58354   4.489   8.883   5.574
15431SOL    HW158355   4.464   8.960   5.633
15431SOL    HW258356   4.553   8.823   5.622
15432SOL     OW58357   4.307   9.090   6.608
15432SOL    HW158358   4.327   9.060   6.515
15432SOL    HW258359   4.232   9.035   6.645
15433SOL     OW58360   4.450   8.501   6.325
15433SOL    HW158361   4.539   8.547   6.325
15433SOL    HW258362   4.443   8.441   6.404
15434SOL     OW58363   4.628   8.848   5.994
15434SOL    HW158364   4.678   8.836   5.909
15434SOL    HW258365   4.574   8.765   6.013
15435SOL     OW58366   3.818   8.195   6.394
15435SOL    HW158367   3.913   8.186   6.362
15435SOL    HW258368   3.784   8.287   6.373
15436SOL     OW58369   3.755   8.312   7.321
15436SOL    HW158370   3.670   8.263   7.302
15436SOL    HW258371   3.782   8.299   7.416
15437SOL     OW58372   4.652   9.221   7.027
15437SOL    HW158373   4.624   9.134   7.068
15437SOL    HW258374   4.596   9.295   7.064
15438SOL     OW58375   4.155   7.839   7.321
15438SOL    HW158376   4.191   7.786   7.244
15438SOL    HW258377   4.216   7.916   7.339
15439SOL     OW58378   4.219   8.256   5.893
15439SOL    HW158379   4.169   8.321   5.837
15439SOL    HW258380   4.161   8.177   5.912
15440SOL     OW58381   4.992   7.730   6.887
15440SOL    HW158382   5.063   7.702   6.951
15440SOL    HW258383   4.939   7.650   6.859
15441SOL     OW58384   4.914   7.530   7.329
15441SOL    HW158385   4.973   7.546   7.409
15441SOL    HW258386   4.861   7.613   7.310
15442SOL     OW58387   4.130   8.949   7.154
15442SOL    HW158388   4.072   9.014   7.203
15442SOL    HW258389   4.192   8.999   7.094
15443SOL     OW58390   5.486   8.836   7.095
15443SOL    HW158391   5.514   8.929   7.117
15443SOL    HW258392   5.393   8.820   7.128
15444SOL     OW58393   4.736   7.949   6.645
15444SOL    HW158394   4.822   8.000   6.644
15444SOL    HW258395   4.742   7.875   6.712
15445SOL     OW58396   4.140   8.895   6.217
15445SOL    HW158397   4.138   8.796   6.230
15445SOL    HW258398   4.049   8.928   6.194
15446SOL     OW58399   4.781   9.012   6.805
15446SOL    HW158400   4.707   9.076   6.823
15446SOL    HW258401   4.860   9.061   6.767
15447SOL     OW58402   3.990   9.142   7.304
15447SOL    HW158403   4.033   9.226   7.270
15447SOL    HW258404   4.015   9.129   7.400
15448SOL     OW58405   3.850   8.678   7.175
15448SOL    HW158406   3.829   8.583   7.148
15448SOL    HW258407   3.781   8.739   7.137
15449SOL     OW58408   3.939   9.043   6.579
15449SOL    HW158409   3.881   8.963   6.593
15449SOL    HW258410   3.963   9.050   6.482
15450SOL     OW58411   4.685   7.564   6.434
15450SOL    HW158412   4.781   7.565   6.462
15450SOL    HW258413   4.630   7.521   6.506
15451SOL     OW58414   4.747   8.570   5.950
15451SOL    HW158415   4.827   8.606   5.998
15451SOL    HW258416   4.705   8.497   6.006
15452SOL     OW58417   5.338   7.837   6.314
15452SOL    HW158418   5.357   7.923   6.361
15452SOL    HW258419   5.406   7.768   6.342
15453SOL     OW58420   4.481   8.509   5.800
15453SOL    HW158421   4.553   8.568   5.765
15453SOL    HW258422   4.521   8.425   5.836
15454SOL     OW58423   4.552   7.485   5.652
15454SOL    HW158424   4.627   7.419   5.664
15454SOL    HW258425   4.583   7.576   5.680
15455SOL     OW58426   4.231   7.914   6.264
15455SOL    HW158427   4.269   7.825   6.290
15455SOL    HW258428   4.298   7.964   6.209
15456SOL     OW58429   4.219   8.472   6.918
15456SOL    HW158430   4.315   8.452   6.938
15456SOL    HW258431   4.208   8.570   6.900
15457SOL     OW58432   5.441   8.515   6.887
15457SOL    HW158433   5.455   8.613   6.901
15457SOL    HW258434   5.498   8.484   6.811
15458SOL     OW58435   3.924   8.624   5.579
15458SOL    HW158436   3.916   8.636   5.480
15458SOL    HW258437   3.983   8.695   5.617
15459SOL     OW58438   4.351   9.063   5.739
15459SOL    HW158439   4.326   9.158   5.723
15459SOL    HW258440   4.318   9.035   5.829
15460SOL     OW58441   5.001   8.486   6.963
15460SOL    HW158442   4.945   8.445   7.034
15460SOL    HW258443   4.981   8.584   6.957
15461SOL     OW58444   4.268   9.102   6.963
15461SOL    HW158445   4.317   9.182   6.927
15461SOL    HW258446   4.176   9.100   6.924
15462SOL     OW58447   3.911   7.983   7.325
15462SOL    HW158448   3.928   7.884   7.330
15462SOL    HW258449   3.975   8.031   7.386
15463SOL     OW58450   3.746   8.317   6.125
15463SOL    HW158451   3.753   8.416   6.112
15463SOL    HW258452   3.655   8.294   6.159
15464SOL     OW58453   4.255   8.115   7.063
15464SOL    HW158454   4.161   8.085   7.044
15464SOL    HW258455   4.264   8.212   7.040
15465SOL     OW58456   5.322   8.491   6.375
15465SOL    HW158457   5.284   8.580   6.348
15465SOL    HW258458   5.322   8.429   6.297
15466SOL     OW58459   4.480   7.897   6.544
15466SOL    HW158460   4.572   7.925   6.571
15466SOL    HW258461   4.412   7.948   6.598
15467SOL     OW58462   4.333   8.748   6.771
15467SOL    HW158463   4.246   8.747   6.722
15467SOL    HW258464   4.399   8.688   6.724
15468SOL     OW58465   3.899   8.090   6.685
15468SOL    HW158466   3.937   8.149   6.756
15468SOL    HW258467   3.882   8.143   6.603
15469SOL     OW58468   4.070   8.736   6.983
15469SOL    HW158469   4.089   8.824   7.027
15469SOL    HW258470   3.975   8.710   7.001
15470SOL     OW58471   5.313   9.052   7.331
15470SOL    HW158472   5.282   8.974   7.276
15470SOL    HW258473   5.282   9.137   7.289
15471SOL     OW58474   5.021   8.590   6.052
15471SOL    HW158475   5.120   8.594   6.068
15471SOL    HW258476   5.004   8.576   5.954
15472SOL     OW58477   4.374   7.756   6.000
15472SOL    HW158478   4.276   7.750   5.980
15472SOL    HW258479   4.393   7.713   6.088
15473SOL     OW58480   5.294   7.439   6.259
15473SOL    HW158481   5.289   7.480   6.168
15473SOL    HW258482   5.375   7.473   6.306
15474SOL     OW58483   4.391   8.155   6.354
15474SOL    HW158484   4.413   8.077   6.412
15474SOL    HW258485   4.400   8.129   6.258
15475SOL     OW58486   5.059   7.847   6.241
15475SOL    HW158487   5.058   7.839   6.142
15475SOL    HW258488   5.148   7.819   6.276
15476SOL     OW58489   4.786   8.863   8.074
15476SOL    HW158490   4.877   8.897   8.097
15476SOL    HW258491   4.758   8.901   7.986
15477SOL     OW58492   5.297   8.659   7.932
15477SOL    HW158493   5.308   8.743   7.986
15477SOL    HW258494   5.387   8.622   7.909
15478SOL     OW58495   5.377   7.941   8.796
15478SOL    HW158496   5.279   7.933   8.818
15478SOL    HW258497   5.430   7.930   8.880
15479SOL     OW58498   4.044   7.578   7.401
15479SOL    HW158499   3.957   7.575   7.352
15479SOL    HW258500   4.095   7.660   7.373
15480SOL     OW58501   5.031   8.967   8.176
15480SOL    HW158502   5.020   9.064   8.199
15480SOL    HW258503   5.124   8.950   8.146
15481SOL     OW58504   4.647   8.258   9.111
15481SOL    HW158505   4.612   8.233   9.021
15481SOL    HW258506   4.571   8.279   9.172
15482SOL     OW58507   4.254   8.932   7.805
15482SOL    HW158508   4.210   8.941   7.894
15482SOL    HW258509   4.325   8.862   7.809
15483SOL     OW58510   4.272   7.465   7.527
15483SOL    HW158511   4.360   7.493   7.488
15483SOL    HW258512   4.200   7.528   7.497
15484SOL     OW58513   5.242   8.450   8.910
15484SOL    HW158514   5.150   8.455   8.872
15484SOL    HW258515   5.307   8.488   8.844
15485SOL     OW58516   5.142   8.457   8.591
15485SOL    HW158517   5.067   8.446   8.656
15485SOL    HW258518   5.179   8.550   8.597
15486SOL     OW58519   4.638   8.712   8.891
15486SOL    HW158520   4.581   8.775   8.837
15486SOL    HW258521   4.671   8.638   8.832
15487SOL     OW58522   4.181   8.605   8.100
15487SOL    HW158523   4.114   8.559   8.159
15487SOL    HW258524   4.273   8.573   8.123
15488SOL     OW58525   4.408   8.011   7.931
15488SOL    HW158526   4.447   8.081   7.872
15488SOL    HW258527   4.382   7.931   7.877
15489SOL     OW58528   5.028   7.919   9.140
15489SOL    HW158529   5.124   7.923   9.166
15489SOL    HW258530   4.984   7.843   9.187
15490SOL     OW58531   4.111   8.774   7.584
15490SOL    HW158532   4.175   8.790   7.509
15490SOL    HW258533   4.135   8.832   7.662
15491SOL     OW58534   4.262   7.730   8.394
15491SOL    HW158535   4.338   7.795   8.390
15491SOL    HW258536   4.292   7.641   8.361
15492SOL     OW58537   3.959   8.156   7.812
15492SOL    HW158538   3.974   8.090   7.886
15492SOL    HW258539   3.909   8.235   7.847
15493SOL     OW58540   4.545   9.101   7.989
15493SOL    HW158541   4.610   9.034   7.953
15493SOL    HW258542   4.535   9.177   7.925
15494SOL     OW58543   5.437   8.983   7.731
15494SOL    HW158544   5.533   8.957   7.724
15494SOL    HW258545   5.413   9.043   7.655
15495SOL     OW58546   4.749   7.705   7.771
15495SOL    HW158547   4.774   7.799   7.792
15495SOL    HW258548   4.750   7.651   7.855
15496SOL     OW58549   3.873   8.418   8.956
15496SOL    HW158550   3.969   8.433   8.974
15496SOL    HW258551   3.835   8.356   9.025
15497SOL     OW58552   4.199   8.063   7.499
15497SOL    HW158553   4.159   8.142   7.452
15497SOL    HW258554   4.288   8.042   7.459
15498SOL     OW58555   4.372   8.987   8.197
15498SOL    HW158556   4.445   9.010   8.133
15498SOL    HW258557   4.301   8.934   8.151
15499SOL     OW58558   4.714   8.019   8.951
15499SOL    HW158559   4.747   7.936   8.998
15499SOL    HW258560   4.787   8.087   8.950
15500SOL     OW58561   5.318   8.819   8.173
15500SOL    HW158562   5.314   8.854   8.266
15500SOL    HW258563   5.377   8.878   8.117
15501SOL     OW58564   4.049   8.640   7.849
15501SOL    HW158565   4.095   8.614   7.934
15501SOL    HW258566   4.069   8.572   7.778
15502SOL     OW58567   4.059   7.900   8.655
15502SOL    HW158568   4.049   7.813   8.607
15502SOL    HW258569   3.995   7.967   8.618
15503SOL     OW58570   5.141   8.180   8.693
15503SOL    HW158571   5.145   8.274   8.658
15503SOL    HW258572   5.234   8.149   8.715
15504SOL     OW58573   4.094   7.672   7.814
15504SOL    HW158574   4.048   7.712   7.893
15504SOL    HW258575   4.042   7.691   7.732
15505SOL     OW58576   5.222   9.199   8.726
15505SOL    HW158577   5.165   9.150   8.660
15505SOL    HW258578   5.308   9.226   8.683
15506SOL     OW58579   5.517   7.917   8.581
15506SOL    HW158580   5.574   7.999   8.583
15506SOL    HW258581   5.458   7.916   8.661
15507SOL     OW58582   5.534   9.143   8.494
15507SOL    HW158583   5.580   9.153   8.582
15507SOL    HW258584   5.601   9.146   8.421
15508SOL     OW58585   4.647   7.883   8.056
15508SOL    HW158586   4.723   7.911   8.115
15508SOL    HW258587   4.603   7.963   8.017
15509SOL     OW58588   4.724   7.769   9.194
15509SOL    HW158589   4.787   7.774   9.271
15509SOL    HW258590   4.632   7.747   9.227
15510SOL     OW58591   4.759   9.154   7.560
15510SOL    HW158592   4.793   9.067   7.525
15510SOL    HW258593   4.727   9.142   7.654
15511SOL     OW58594   4.440   7.421   9.092
15511SOL    HW158595   4.447   7.327   9.059
15511SOL    HW258596   4.497   7.431   9.174
15512SOL     OW58597   5.363   8.022   8.360
15512SOL    HW158598   5.348   8.113   8.397
15512SOL    HW258599   5.433   7.975   8.414
15513SOL     OW58600   4.773   8.688   9.126
15513SOL    HW158601   4.795   8.598   9.088
15513SOL    HW258602   4.708   8.735   9.067
15514SOL     OW58603   4.428   8.530   9.130
15514SOL    HW158604   4.399   8.607   9.187
15514SOL    HW258605   4.438   8.449   9.188
15515SOL     OW58606   5.063   7.394   8.236
15515SOL    HW158607   5.012   7.478   8.218
15515SOL    HW258608   5.149   7.396   8.185
15516SOL     OW58609   3.721   8.004   7.909
15516SOL    HW158610   3.723   7.955   7.996
15516SOL    HW258611   3.723   8.103   7.927
15517SOL     OW58612   4.042   7.592   8.230
15517SOL    HW158613   4.094   7.632   8.305
15517SOL    HW258614   4.095   7.519   8.187
15518SOL     OW58615   4.026   7.640   8.564
15518SOL    HW158616   3.991   7.547   8.564
15518SOL    HW258617   4.113   7.643   8.515
15519SOL     OW58618   4.693   8.262   8.304
15519SOL    HW158619   4.719   8.342   8.250
15519SOL    HW258620   4.687   8.182   8.244
15520SOL     OW58621   3.894   8.889   7.763
15520SOL    HW158622   3.921   8.795   7.783
15520SOL    HW258623   3.919   8.911   7.669
15521SOL     OW58624   5.176   8.758   8.637
15521SOL    HW158625   5.147   8.795   8.548
15521SOL    HW258626   5.098   8.758   8.699
15522SOL     OW58627   3.908   9.032   8.000
15522SOL    HW158628   3.824   9.083   8.018
15522SOL    HW258629   3.899   8.981   7.915
15523SOL     OW58630   5.429   8.829   8.675
15523SOL    HW158631   5.460   8.843   8.769
15523SOL    HW258632   5.330   8.816   8.674
15524SOL     OW58633   4.181   8.329   7.402
15524SOL    HW158634   4.150   8.363   7.314
15524SOL    HW258635   4.185   8.404   7.468
15525SOL     OW58636   4.698   8.516   8.701
15525SOL    HW158637   4.748   8.431   8.685
15525SOL    HW258638   4.652   8.543   8.616
15526SOL     OW58639   3.785   8.221   7.575
15526SOL    HW158640   3.845   8.168   7.635
15526SOL    HW258641   3.691   8.189   7.587
15527SOL     OW58642   4.553   9.206   8.423
15527SOL    HW158643   4.599   9.139   8.365
15527SOL    HW258644   4.479   9.162   8.473
15528SOL     OW58645   4.460   8.275   7.459
15528SOL    HW158646   4.489   8.194   7.510
15528SOL    HW258647   4.360   8.274   7.450
15529SOL     OW58648   3.953   8.008   8.905
15529SOL    HW158649   3.973   7.913   8.880
15529SOL    HW258650   3.916   8.011   8.998
15530SOL     OW58651   3.835   7.663   8.795
15530SOL    HW158652   3.907   7.673   8.726
15530SOL    HW258653   3.746   7.662   8.750
15531SOL     OW58654   4.733   8.284   8.560
15531SOL    HW158655   4.727   8.270   8.461
15531SOL    HW258656   4.652   8.245   8.604
15532SOL     OW58657   4.608   8.893   8.312
15532SOL    HW158658   4.666   8.904   8.231
15532SOL    HW258659   4.514   8.917   8.290
15533SOL     OW58660   4.558   7.759   7.597
15533SOL    HW158661   4.467   7.772   7.635
15533SOL    HW258662   4.618   7.719   7.667
15534SOL     OW58663   4.669   8.704   7.532
15534SOL    HW158664   4.722   8.644   7.592
15534SOL    HW258665   4.708   8.705   7.441
15535SOL     OW58666   5.420   8.999   8.017
15535SOL    HW158667   5.387   9.092   8.036
15535SOL    HW258668   5.418   8.983   7.918
15536SOL     OW58669   4.835   8.272   8.006
15536SOL    HW158670   4.900   8.300   8.077
15536SOL    HW258671   4.756   8.333   8.008
15537SOL     OW58672   4.583   8.998   9.030
15537SOL    HW158673   4.571   8.929   8.959
15537SOL    HW258674   4.546   8.963   9.117
15538SOL     OW58675   5.027   8.312   8.209
15538SOL    HW158676   5.048   8.254   8.287
15538SOL    HW258677   5.036   8.408   8.235
15539SOL     OW58678   3.983   8.441   8.255
15539SOL    HW158679   3.906   8.503   8.248
15539SOL    HW258680   4.020   8.442   8.348
15540SOL     OW58681   4.616   8.389   7.954
15540SOL    HW158682   4.603   8.300   7.911
15540SOL    HW258683   4.547   8.403   8.025
15541SOL     OW58684   4.920   8.777   8.793
15541SOL    HW158685   4.953   8.862   8.834
15541SOL    HW258686   4.821   8.773   8.800
15542SOL     OW58687   3.727   7.694   7.857
15542SOL    HW158688   3.787   7.645   7.795
15542SOL    HW258689   3.782   7.746   7.922
15543SOL     OW58690   5.350   9.192   7.548
15543SOL    HW158691   5.440   9.236   7.550
15543SOL    HW258692   5.349   9.123   7.476
15544SOL     OW58693   4.514   8.159   8.706
15544SOL    HW158694   4.516   8.245   8.757
15544SOL    HW258695   4.571   8.091   8.753
15545SOL     OW58696   3.751   9.186   8.777
15545SOL    HW158697   3.759   9.286   8.775
15545SOL    HW258698   3.727   9.157   8.870
15546SOL     OW58699   4.532   8.205   7.771
15546SOL    HW158700   4.443   8.233   7.736
15546SOL    HW258701   4.573   8.139   7.707
15547SOL     OW58702   4.054   7.923   8.310
15547SOL    HW158703   4.110   7.916   8.227
15547SOL    HW258704   4.111   7.901   8.390
15548SOL     OW58705   4.051   9.121   7.581
15548SOL    HW158706   4.143   9.151   7.556
15548SOL    HW258707   4.026   9.160   7.670
15549SOL     OW58708   5.027   9.143   8.518
15549SOL    HW158709   5.046   9.206   8.444
15549SOL    HW258710   5.035   9.049   8.485
15550SOL     OW58711   3.732   8.538   8.330
15550SOL    HW158712   3.642   8.554   8.291
15550SOL    HW258713   3.730   8.454   8.385
15551SOL     OW58714   4.483   7.443   7.780
15551SOL    HW158715   4.444   7.432   7.689
15551SOL    HW258716   4.439   7.519   7.827
15552SOL     OW58717   3.728   8.579   7.874
15552SOL    HW158718   3.806   8.637   7.898
15552SOL    HW258719   3.747   8.530   7.789
15553SOL     OW58720   5.094   7.459   7.545
15553SOL    HW158721   5.174   7.399   7.542
15553SOL    HW258722   5.020   7.412   7.593
15554SOL     OW58723   5.307   7.431   8.979
15554SOL    HW158724   5.333   7.388   8.893
15554SOL    HW258725   5.257   7.515   8.961
15555SOL     OW58726   4.409   7.690   8.111
15555SOL    HW158727   4.398   7.632   8.192
15555SOL    HW258728   4.494   7.742   8.119
15556SOL     OW58729   4.989   8.041   8.503
15556SOL    HW158730   5.043   8.081   8.429
15556SOL    HW258731   5.027   8.070   8.591
15557SOL     OW58732   4.258   8.762   9.182
15557SOL    HW158733   4.219   8.825   9.115
15557SOL    HW258734   4.341   8.802   9.222
15558SOL     OW58735   4.134   8.494   9.014
15558SOL    HW158736   4.153   8.518   8.919
15558SOL    HW258737   4.127   8.577   9.069
15559SOL     OW58738   3.795   8.784   8.488
15559SOL    HW158739   3.764   8.710   8.429
15559SOL    HW258740   3.727   8.802   8.559
15560SOL     OW58741   5.481   8.012   9.057
15560SOL    HW158742   5.470   8.098   9.006
15560SOL    HW258743   5.575   8.003   9.087
15561SOL     OW58744   5.446   8.253   8.922
15561SOL    HW158745   5.348   8.274   8.924
15561SOL    HW258746   5.495   8.329   8.881
15562SOL     OW58747   4.447   8.888   8.821
15562SOL    HW158748   4.384   8.966   8.828
15562SOL    HW258749   4.415   8.826   8.749
15563SOL     OW58750   3.838   7.683   9.086
15563SOL    HW158751   3.856   7.672   8.988
15563SOL    HW258752   3.740   7.679   9.103
15564SOL     OW58753   3.718   9.097   9.030
15564SOL    HW158754   3.790   9.083   9.098
15564SOL    HW258755   3.629   9.100   9.075
15565SOL     OW58756   3.886   7.753   8.054
15565SOL    HW158757   3.829   7.808   8.115
15565SOL    HW258758   3.956   7.705   8.107
15566SOL     OW58759   5.058   8.985   8.917
15566SOL    HW158760   5.011   9.053   8.972
15566SOL    HW258761   5.125   9.031   8.858
15567SOL     OW58762   4.023   7.944   7.652
15567SOL    HW158763   4.095   7.973   7.589
15567SOL    HW258764   3.979   8.024   7.692
15568SOL     OW58765   4.138   9.207   8.118
15568SOL    HW158766   4.062   9.173   8.063
15568SOL    HW258767   4.224   9.170   8.083
15569SOL     OW58768   4.063   8.716   8.563
15569SOL    HW158769   4.075   8.732   8.660
15569SOL    HW258770   3.976   8.756   8.533
15570SOL     OW58771   4.947   8.920   9.209
15570SOL    HW158772   4.906   8.835   9.175
15570SOL    HW258773   4.927   8.994   9.145
15571SOL     OW58774   4.437   8.640   7.899
15571SOL    HW158775   4.480   8.571   7.841
15571SOL    HW258776   4.401   8.597   7.982
15572SOL     OW58777   4.069   8.191   8.101
15572SOL    HW158778   4.061   8.289   8.119
15572SOL    HW258779   4.153   8.157   8.142
15573SOL     OW58780   3.915   7.671   7.616
15573SOL    HW158781   3.959   7.640   7.533
15573SOL    HW258782   3.916   7.771   7.620
15574SOL     OW58783   3.768   7.923   8.227
15574SOL    HW158784   3.732   8.016   8.219
15574SOL    HW258785   3.851   7.924   8.283
15575SOL     OW58786   4.203   8.510   7.613
15575SOL    HW158787   4.303   8.510   7.624
15575SOL    HW258788   4.172   8.603   7.592
15576SOL     OW58789   4.564   8.021   7.572
15576SOL    HW158790   4.654   8.022   7.527
15576SOL    HW258791   4.541   7.927   7.597
15577SOL     OW58792   5.129   7.938   8.882
15577SOL    HW158793   5.081   7.961   8.966
15577SOL    HW258794   5.063   7.908   8.813
15578SOL     OW58795   3.764   7.453   7.526
15578SOL    HW158796   3.827   7.376   7.534
15578SOL    HW258797   3.784   7.521   7.597
15579SOL     OW58798   4.037   8.428   8.527
15579SOL    HW158799   4.048   8.383   8.616
15579SOL    HW258800   4.064   8.524   8.534
15580SOL     OW58801   5.336   8.440   7.627
15580SOL    HW158802   5.407   8.510   7.629
15580SOL    HW258803   5.323   8.410   7.532
15581SOL     OW58804   4.318   8.041   8.549
15581SOL    HW158805   4.393   8.084   8.598
15581SOL    HW258806   4.251   8.006   8.615
15582SOL     OW58807   4.461   8.410   8.866
15582SOL    HW158808   4.530   8.462   8.816
15582SOL    HW258809   4.456   8.443   8.961
15583SOL     OW58810   4.853   8.431   9.026
15583SOL    HW158811   4.775   8.377   9.059
15583SOL    HW258812   4.934   8.409   9.081
15584SOL     OW58813   4.782   7.613   8.022
15584SOL    HW158814   4.841   7.673   8.077
15584SOL    HW258815   4.709   7.577   8.079
15585SOL     OW58816   4.892   9.145   9.062
15585SOL    HW158817   4.797   9.143   9.030
15585SOL    HW258818   4.913   9.236   9.099
15586SOL     OW58819   4.310   7.490   8.293
15586SOL    HW158820   4.238   7.423   8.279
15586SOL    HW258821   4.392   7.444   8.328
15587SOL     OW58822   4.010   9.155   8.660
15587SOL    HW158823   3.990   9.137   8.564
15587SOL    HW258824   3.937   9.117   8.717
15588SOL     OW58825   4.703   8.619   8.205
15588SOL    HW158826   4.742   8.662   8.124
15588SOL    HW258827   4.776   8.602   8.272
15589SOL     OW58828   4.397   8.347   8.407
15589SOL    HW158829   4.395   8.263   8.352
15589SOL    HW258830   4.346   8.333   8.492
15590SOL     OW58831   3.736   8.357   8.533
15590SOL    HW158832   3.825   8.335   8.573
15590SOL    HW258833   3.681   8.273   8.529
15591SOL     OW58834   3.964   7.402   7.813
15591SOL    HW158835   4.002   7.490   7.840
15591SOL    HW258836   3.887   7.378   7.873
15592SOL     OW58837   4.380   8.019   9.141
15592SOL    HW158838   4.332   8.070   9.070
15592SOL    HW258839   4.473   7.998   9.111
15593SOL     OW58840   3.786   8.489   7.633
15593SOL    HW158841   3.776   8.392   7.612
15593SOL    HW258842   3.839   8.534   7.561
15594SOL     OW58843   4.531   8.577   8.486
15594SOL    HW158844   4.482   8.492   8.467
15594SOL    HW258845   4.601   8.592   8.417
15595SOL     OW58846   5.230   8.815   9.022
15595SOL    HW158847   5.215   8.717   9.036
15595SOL    HW258848   5.147   8.857   8.986
15596SOL     OW58849   3.987   8.257   8.762
15596SOL    HW158850   3.951   8.167   8.788
15596SOL    HW258851   3.948   8.327   8.822
15597SOL     OW58852   4.489   8.883   7.420
15597SOL    HW158853   4.464   8.960   7.479
15597SOL    HW258854   4.553   8.823   7.468
15598SOL     OW58855   4.307   9.090   8.454
15598SOL    HW158856   4.327   9.060   8.361
15598SOL    HW258857   4.232   9.035   8.491
15599SOL     OW58858   4.450   8.501   8.171
15599SOL    HW158859   4.539   8.547   8.171
15599SOL    HW258860   4.443   8.441   8.250
15600SOL     OW58861   4.628   8.848   7.840
15600SOL    HW158862   4.678   8.836   7.755
15600SOL    HW258863   4.574   8.765   7.859
15601SOL     OW58864   3.818   8.195   8.240
15601SOL    HW158865   3.913   8.186   8.208
15601SOL    HW258866   3.784   8.287   8.219
15602SOL     OW58867   3.755   8.312   9.167
15602SOL    HW158868   3.670   8.263   9.148
15602SOL    HW258869   3.782   8.299   9.262
15603SOL     OW58870   4.652   9.221   8.873
15603SOL    HW158871   4.624   9.134   8.914
15603SOL    HW258872   4.596   9.295   8.910
15604SOL     OW58873   4.881   8.568   8.403
15604SOL    HW158874   4.865   8.662   8.434
15604SOL    HW258875   4.884   8.507   8.483
15605SOL     OW58876   4.155   7.839   9.167
15605SOL    HW158877   4.191   7.786   9.090
15605SOL    HW258878   4.216   7.916   9.185
15606SOL     OW58879   4.219   8.256   7.739
15606SOL    HW158880   4.169   8.321   7.683
15606SOL    HW258881   4.161   8.177   7.758
15607SOL     OW58882   5.300   8.287   8.437
15607SOL    HW158883   5.319   8.326   8.346
15607SOL    HW258884   5.254   8.356   8.493
15608SOL     OW58885   3.693   7.429   7.934
15608SOL    HW158886   3.606   7.416   7.887
15608SOL    HW258887   3.701   7.524   7.964
15609SOL     OW58888   4.914   7.530   9.175
15609SOL    HW158889   4.973   7.546   9.255
15609SOL    HW258890   4.861   7.613   9.156
15610SOL     OW58891   4.130   8.949   9.000
15610SOL    HW158892   4.072   9.014   9.049
15610SOL    HW258893   4.192   8.999   8.940
15611SOL     OW58894   5.486   8.836   8.941
15611SOL    HW158895   5.514   8.929   8.963
15611SOL    HW258896   5.393   8.820   8.974
15612SOL     OW58897   4.736   7.949   8.491
15612SOL    HW158898   4.822   8.000   8.490
15612SOL    HW258899   4.742   7.875   8.558
15613SOL     OW58900   4.140   8.895   8.063
15613SOL    HW158901   4.138   8.796   8.076
15613SOL    HW258902   4.049   8.928   8.040
15614SOL     OW58903   4.781   9.012   8.651
15614SOL    HW158904   4.707   9.076   8.669
15614SOL    HW258905   4.860   9.061   8.613
15615SOL     OW58906   3.990   9.142   9.150
15615SOL    HW158907   4.033   9.226   9.116
15615SOL    HW258908   4.015   9.129   9.246
15616SOL     OW58909   3.850   8.678   9.021
15616SOL    HW158910   3.829   8.583   8.994
15616SOL    HW258911   3.781   8.739   8.983
15617SOL     OW58912   3.939   9.043   8.425
15617SOL    HW158913   3.881   8.963   8.439
15617SOL    HW258914   3.963   9.050   8.328
15618SOL     OW58915   4.685   7.564   8.280
15618SOL    HW158916   4.781   7.565   8.308
15618SOL    HW258917   4.630   7.521   8.352
15619SOL     OW58918   4.747   8.570   7.796
15619SOL    HW158919   4.827   8.606   7.844
15619SOL    HW258920   4.705   8.497   7.852
15620SOL     OW58921   4.481   8.509   7.646
15620SOL    HW158922   4.553   8.568   7.611
15620SOL    HW258923   4.521   8.425   7.682
15621SOL     OW58924   4.552   7.485   7.498
15621SOL    HW158925   4.627   7.419   7.510
15621SOL    HW258926   4.583   7.576   7.526
15622SOL     OW58927   4.231   7.914   8.110
15622SOL    HW158928   4.269   7.825   8.136
15622SOL    HW258929   4.298   7.964   8.055
15623SOL     OW58930   4.219   8.472   8.764
15623SOL    HW158931   4.315   8.452   8.784
15623SOL    HW258932   4.208   8.570   8.746
15624SOL     OW58933   5.441   8.515   8.733
15624SOL    HW158934   5.455   8.613   8.747
15624SOL    HW258935   5.498   8.484   8.657
15625SOL     OW58936   3.924   8.624   7.425
15625SOL    HW158937   3.916   8.636   7.326
15625SOL    HW258938   3.983   8.695   7.463
15626SOL     OW58939   4.351   9.063   7.585
15626SOL    HW158940   4.326   9.158   7.569
15626SOL    HW258941   4.318   9.035   7.675
15627SOL     OW58942   5.001   8.486   8.809
15627SOL    HW158943   4.945   8.445   8.880
15627SOL    HW258944   4.981   8.584   8.803
15628SOL     OW58945   4.268   9.102   8.809
15628SOL    HW158946   4.317   9.182   8.773
15628SOL    HW258947   4.176   9.100   8.770
15629SOL     OW58948   3.911   7.983   9.171
15629SOL    HW158949   3.928   7.884   9.176
15629SOL    HW258950   3.975   8.031   9.232
15630SOL     OW58951   5.350   8.944   8.410
15630SOL    HW158952   5.322   9.037   8.434
15630SOL    HW258953   5.400   8.903   8.486
15631SOL     OW58954   3.746   8.317   7.971
15631SOL    HW158955   3.753   8.416   7.958
15631SOL    HW258956   3.655   8.294   8.005
15632SOL     OW58957   4.255   8.115   8.909
15632SOL    HW158958   4.161   8.085   8.890
15632SOL    HW258959   4.264   8.212   8.886
15633SOL     OW58960   5.322   8.491   8.221
15633SOL    HW158961   5.284   8.580   8.194
15633SOL    HW258962   5.322   8.429   8.143
15634SOL     OW58963   4.480   7.897   8.390
15634SOL    HW158964   4.572   7.925   8.417
15634SOL    HW258965   4.412   7.948   8.444
15635SOL     OW58966   4.333   8.748   8.617
15635SOL    HW158967   4.246   8.747   8.568
15635SOL    HW258968   4.399   8.688   8.570
15636SOL     OW58969   3.899   8.090   8.531
15636SOL    HW158970   3.937   8.149   8.602
15636SOL    HW258971   3.882   8.143   8.449
15637SOL     OW58972   4.070   8.736   8.829
15637SOL    HW158973   4.089   8.824   8.873
15637SOL    HW258974   3.975   8.710   8.847
15638SOL     OW58975   5.313   9.052   9.177
15638SOL    HW158976   5.282   8.974   9.122
15638SOL    HW258977   5.282   9.137   9.135
15639SOL     OW58978   5.021   8.590   7.898
15639SOL    HW158979   5.120   8.594   7.914
15639SOL    HW258980   5.004   8.576   7.800
15640SOL     OW58981   4.374   7.756   7.846
15640SOL    HW158982   4.276   7.750   7.826
15640SOL    HW258983   4.393   7.713   7.934
15641SOL     OW58984   4.897   8.195   8.798
15641SOL    HW158985   4.996   8.204   8.788
15641SOL    HW258986   4.853   8.197   8.708
15642SOL     OW58987   4.391   8.155   8.200
15642SOL    HW158988   4.413   8.077   8.258
15642SOL    HW258989   4.400   8.129   8.104
15643SOL     OW58990   5.056   8.862   8.412
15643SOL    HW158991   4.970   8.819   8.441
15643SOL    HW258992   5.045   8.902   8.321
15644SOL     OW58993   5.297   8.659   9.777
15644SOL    HW158994   5.308   8.743   9.831
15644SOL    HW258995   5.387   8.622   9.754
15645SOL     OW58996   4.044   7.578   9.246
15645SOL    HW158997   3.957   7.575   9.197
15645SOL    HW258998   4.095   7.660   9.218
15646SOL     OW58999   4.254   8.932   9.650
15646SOL    HW159000   4.210   8.941   9.739
15646SOL    HW259001   4.325   8.862   9.654
15647SOL     OW59002   4.272   7.465   9.372
15647SOL    HW159003   4.360   7.493   9.333
15647SOL    HW259004   4.200   7.528   9.342
15648SOL     OW59005   4.181   8.605   9.945
15648SOL    HW159006   4.114   8.559  10.004
15648SOL    HW259007   4.273   8.573   9.968
15649SOL     OW59008   4.408   8.011   9.776
15649SOL    HW159009   4.447   8.081   9.717
15649SOL    HW259010   4.382   7.931   9.722
15650SOL     OW59011   4.111   8.774   9.429
15650SOL    HW159012   4.175   8.790   9.354
15650SOL    HW259013   4.135   8.832   9.507
15651SOL     OW59014   3.959   8.156   9.657
15651SOL    HW159015   3.974   8.090   9.731
15651SOL    HW259016   3.909   8.235   9.692
15652SOL     OW59017   5.437   8.983   9.576
15652SOL    HW159018   5.533   8.957   9.569
15652SOL    HW259019   5.413   9.043   9.500
15653SOL     OW59020   4.749   7.705   9.616
15653SOL    HW159021   4.774   7.799   9.637
15653SOL    HW259022   4.750   7.651   9.700
15654SOL     OW59023   4.199   8.063   9.344
15654SOL    HW159024   4.159   8.142   9.297
15654SOL    HW259025   4.288   8.042   9.304
15655SOL     OW59026   5.318   8.819  10.018
15655SOL    HW159027   5.314   8.854  10.111
15655SOL    HW259028   5.377   8.878   9.962
15656SOL     OW59029   4.049   8.640   9.694
15656SOL    HW159030   4.095   8.614   9.779
15656SOL    HW259031   4.069   8.572   9.623
15657SOL     OW59032   4.907   7.695   9.405
15657SOL    HW159033   5.001   7.665   9.423
15657SOL    HW259034   4.855   7.695   9.491
15658SOL     OW59035   5.534   9.143  10.339
15658SOL    HW159036   5.580   9.153  10.427
15658SOL    HW259037   5.601   9.146  10.266
15659SOL     OW59038   4.647   7.883   9.901
15659SOL    HW159039   4.723   7.911   9.960
15659SOL    HW259040   4.603   7.963   9.862
15660SOL     OW59041   4.882   8.347   9.418
15660SOL    HW159042   4.919   8.297   9.496
15660SOL    HW259043   4.812   8.292   9.373
15661SOL     OW59044   5.465   8.016   9.497
15661SOL    HW159045   5.486   7.935   9.443
15661SOL    HW259046   5.482   7.997   9.594
15662SOL     OW59047   4.759   9.154   9.405
15662SOL    HW159048   4.793   9.067   9.370
15662SOL    HW259049   4.727   9.142   9.499
15663SOL     OW59050   3.721   8.004   9.754
15663SOL    HW159051   3.723   7.955   9.841
15663SOL    HW259052   3.723   8.103   9.772
15664SOL     OW59053   3.894   8.889   9.608
15664SOL    HW159054   3.921   8.795   9.628
15664SOL    HW259055   3.919   8.911   9.514
15665SOL     OW59056   3.908   9.032   9.845
15665SOL    HW159057   3.824   9.083   9.863
15665SOL    HW259058   3.899   8.981   9.760
15666SOL     OW59059   4.181   8.329   9.247
15666SOL    HW159060   4.150   8.363   9.159
15666SOL    HW259061   4.185   8.404   9.313
15667SOL     OW59062   3.785   8.221   9.420
15667SOL    HW159063   3.845   8.168   9.480
15667SOL    HW259064   3.691   8.189   9.432
15668SOL     OW59065   5.305   8.219   9.620
15668SOL    HW159066   5.373   8.153   9.587
15668SOL    HW259067   5.320   8.307   9.576
15669SOL     OW59068   4.460   8.275   9.304
15669SOL    HW159069   4.489   8.194   9.355
15669SOL    HW259070   4.360   8.274   9.295
15670SOL     OW59071   5.056   7.807   9.650
15670SOL    HW159072   4.993   7.865   9.598
15670SOL    HW259073   5.149   7.841   9.638
15671SOL     OW59074   5.324   7.818   9.720
15671SOL    HW159075   5.420   7.789   9.717
15671SOL    HW259076   5.285   7.796   9.809
15672SOL     OW59077   4.558   7.759   9.442
15672SOL    HW159078   4.467   7.772   9.480
15672SOL    HW259079   4.618   7.719   9.512
15673SOL     OW59080   4.669   8.704   9.377
15673SOL    HW159081   4.722   8.644   9.437
15673SOL    HW259082   4.708   8.705   9.286
15674SOL     OW59083   5.420   8.999   9.862
15674SOL    HW159084   5.387   9.092   9.881
15674SOL    HW259085   5.418   8.983   9.763
15675SOL     OW59086   4.835   8.272   9.851
15675SOL    HW159087   4.900   8.300   9.922
15675SOL    HW259088   4.756   8.333   9.853
15676SOL     OW59089   5.027   8.312  10.054
15676SOL    HW159090   5.048   8.254  10.132
15676SOL    HW259091   5.036   8.408  10.080
15677SOL     OW59092   4.616   8.389   9.799
15677SOL    HW159093   4.603   8.300   9.756
15677SOL    HW259094   4.547   8.403   9.870
15678SOL     OW59095   3.727   7.694   9.702
15678SOL    HW159096   3.787   7.645   9.640
15678SOL    HW259097   3.782   7.746   9.767
15679SOL     OW59098   5.350   9.192   9.393
15679SOL    HW159099   5.440   9.236   9.395
15679SOL    HW259100   5.349   9.123   9.321
15680SOL     OW59101   4.532   8.205   9.616
15680SOL    HW159102   4.443   8.233   9.581
15680SOL    HW259103   4.573   8.139   9.552
15681SOL     OW59104   4.051   9.121   9.426
15681SOL    HW159105   4.143   9.151   9.401
15681SOL    HW259106   4.026   9.160   9.515
15682SOL     OW59107   3.728   8.579   9.719
15682SOL    HW159108   3.806   8.637   9.743
15682SOL    HW259109   3.747   8.530   9.634
15683SOL     OW59110   5.094   7.459   9.390
15683SOL    HW159111   5.174   7.399   9.387
15683SOL    HW259112   5.020   7.412   9.438
15684SOL     OW59113   4.993   8.220   9.652
15684SOL    HW159114   4.939   8.218   9.736
15684SOL    HW259115   5.070   8.283   9.663
15685SOL     OW59116   5.290   8.316   9.872
15685SOL    HW159117   5.304   8.279   9.779
15685SOL    HW259118   5.201   8.286   9.906
15686SOL     OW59119   5.300   7.673   9.446
15686SOL    HW159120   5.305   7.715   9.537
15686SOL    HW259121   5.233   7.598   9.448
15687SOL     OW59122   4.023   7.944   9.497
15687SOL    HW159123   4.095   7.973   9.434
15687SOL    HW259124   3.979   8.024   9.537
15688SOL     OW59125   4.138   9.207   9.963
15688SOL    HW159126   4.062   9.173   9.908
15688SOL    HW259127   4.224   9.170   9.928
15689SOL     OW59128   4.437   8.640   9.744
15689SOL    HW159129   4.480   8.571   9.686
15689SOL    HW259130   4.401   8.597   9.827
15690SOL     OW59131   3.915   7.671   9.461
15690SOL    HW159132   3.959   7.640   9.378
15690SOL    HW259133   3.916   7.771   9.465
15691SOL     OW59134   3.768   7.923  10.072
15691SOL    HW159135   3.732   8.016  10.064
15691SOL    HW259136   3.851   7.924  10.128
15692SOL     OW59137   4.203   8.510   9.458
15692SOL    HW159138   4.303   8.510   9.469
15692SOL    HW259139   4.172   8.603   9.437
15693SOL     OW59140   4.829   8.102   9.274
15693SOL    HW159141   4.760   8.159   9.230
15693SOL    HW259142   4.910   8.096   9.215
15694SOL     OW59143   4.564   8.021   9.417
15694SOL    HW159144   4.654   8.022   9.372
15694SOL    HW259145   4.541   7.927   9.442
15695SOL     OW59146   5.015   7.538   9.711
15695SOL    HW159147   4.925   7.522   9.752
15695SOL    HW259148   5.023   7.634   9.685
15696SOL     OW59149   3.764   7.453   9.371
15696SOL    HW159150   3.827   7.376   9.379
15696SOL    HW259151   3.784   7.521   9.442
15697SOL     OW59152   5.336   8.440   9.472
15697SOL    HW159153   5.407   8.510   9.474
15697SOL    HW259154   5.323   8.410   9.377
15698SOL     OW59155   4.782   7.613   9.867
15698SOL    HW159156   4.841   7.673   9.922
15698SOL    HW259157   4.709   7.577   9.924
15699SOL     OW59158   3.786   8.489   9.478
15699SOL    HW159159   3.776   8.392   9.457
15699SOL    HW259160   3.839   8.534   9.406
15700SOL     OW59161   5.483   7.601  10.079
15700SOL    HW159162   5.438   7.583  10.166
15700SOL    HW259163   5.581   7.618  10.095
15701SOL     OW59164   4.869   8.000   9.540
15701SOL    HW159165   4.921   8.072   9.586
15701SOL    HW259166   4.882   8.007   9.442
15702SOL     OW59167   4.489   8.883   9.265
15702SOL    HW159168   4.464   8.960   9.324
15702SOL    HW259169   4.553   8.823   9.313
15703SOL     OW59170   4.450   8.501  10.016
15703SOL    HW159171   4.539   8.547  10.016
15703SOL    HW259172   4.443   8.441  10.095
15704SOL     OW59173   4.219   8.256   9.584
15704SOL    HW159174   4.169   8.321   9.528
15704SOL    HW259175   4.161   8.177   9.603
15705SOL     OW59176   3.693   7.429   9.779
15705SOL    HW159177   3.606   7.416   9.732
15705SOL    HW259178   3.701   7.524   9.809
15706SOL     OW59179   4.140   8.895   9.908
15706SOL    HW159180   4.138   8.796   9.921
15706SOL    HW259181   4.049   8.928   9.885
15707SOL     OW59182   4.747   8.570   9.641
15707SOL    HW159183   4.827   8.606   9.689
15707SOL    HW259184   4.705   8.497   9.697
15708SOL     OW59185   5.338   7.837  10.005
15708SOL    HW159186   5.357   7.923  10.052
15708SOL    HW259187   5.406   7.768  10.033
15709SOL     OW59188   4.481   8.509   9.491
15709SOL    HW159189   4.553   8.568   9.456
15709SOL    HW259190   4.521   8.425   9.527
15710SOL     OW59191   4.552   7.485   9.343
15710SOL    HW159192   4.627   7.419   9.355
15710SOL    HW259193   4.583   7.576   9.371
15711SOL     OW59194   3.924   8.624   9.270
15711SOL    HW159195   3.916   8.636   9.171
15711SOL    HW259196   3.983   8.695   9.308
15712SOL     OW59197   4.351   9.063   9.430
15712SOL    HW159198   4.326   9.158   9.414
15712SOL    HW259199   4.318   9.035   9.520
15713SOL     OW59200   3.746   8.317   9.816
15713SOL    HW159201   3.753   8.416   9.803
15713SOL    HW259202   3.655   8.294   9.850
15714SOL     OW59203   5.021   8.590   9.743
15714SOL    HW159204   5.120   8.594   9.759
15714SOL    HW259205   5.004   8.576   9.645
15715SOL     OW59206   5.294   7.439   9.950
15715SOL    HW159207   5.289   7.480   9.859
15715SOL    HW259208   5.375   7.473   9.997
15716SOL     OW59209   5.059   7.847   9.932
15716SOL    HW159210   5.058   7.839   9.833
15716SOL    HW259211   5.148   7.819   9.967
15717SOL     OW59212   4.909   9.323   1.352
15717SOL    HW159213   4.833   9.278   1.399
15717SOL    HW259214   4.938   9.268   1.274
15718SOL     OW59215   4.408   9.856   0.549
15718SOL    HW159216   4.447   9.926   0.490
15718SOL    HW259217   4.382   9.776   0.495
15719SOL     OW59218   4.262   9.575   1.012
15719SOL    HW159219   4.338   9.640   1.008
15719SOL    HW259220   4.292   9.486   0.979
15720SOL     OW59221   5.349   9.521   1.120
15720SOL    HW159222   5.400   9.593   1.073
15720SOL    HW259223   5.254   9.548   1.129
15721SOL     OW59224   4.749   9.550   0.389
15721SOL    HW159225   4.774   9.644   0.410
15721SOL    HW259226   4.750   9.496   0.473
15722SOL     OW59227   4.199   9.908   0.117
15722SOL    HW159228   4.159   9.987   0.070
15722SOL    HW259229   4.288   9.887   0.077
15723SOL     OW59230   4.907   9.540   0.178
15723SOL    HW159231   5.001   9.510   0.196
15723SOL    HW259232   4.855   9.540   0.264
15724SOL     OW59233   4.059   9.745   1.273
15724SOL    HW159234   4.049   9.658   1.225
15724SOL    HW259235   3.995   9.812   1.236
15725SOL     OW59236   4.094   9.517   0.432
15725SOL    HW159237   4.048   9.557   0.511
15725SOL    HW259238   4.042   9.536   0.350
15726SOL     OW59239   5.517   9.762   1.199
15726SOL    HW159240   5.574   9.844   1.201
15726SOL    HW259241   5.458   9.761   1.279
15727SOL     OW59242   4.647   9.728   0.674
15727SOL    HW159243   4.723   9.756   0.733
15727SOL    HW259244   4.603   9.808   0.635
15728SOL     OW59245   5.465   9.861   0.270
15728SOL    HW159246   5.486   9.780   0.216
15728SOL    HW259247   5.482   9.842   0.367
15729SOL     OW59248   5.363   9.867   0.978
15729SOL    HW159249   5.348   9.958   1.015
15729SOL    HW259250   5.433   9.820   1.032
15730SOL     OW59251   5.063   9.239   0.854
15730SOL    HW159252   5.012   9.323   0.836
15730SOL    HW259253   5.149   9.241   0.803
15731SOL     OW59254   5.418   9.445   1.783
15731SOL    HW159255   5.395   9.466   1.878
15731SOL    HW259256   5.394   9.350   1.763
15732SOL     OW59257   4.042   9.437   0.848
15732SOL    HW159258   4.094   9.477   0.923
15732SOL    HW259259   4.095   9.364   0.805
15733SOL     OW59260   4.026   9.485   1.182
15733SOL    HW159261   3.991   9.392   1.182
15733SOL    HW259262   4.113   9.488   1.133
15734SOL     OW59263   4.698  10.361   1.319
15734SOL    HW159264   4.748  10.276   1.303
15734SOL    HW259265   4.652  10.388   1.234
15735SOL     OW59266   5.056   9.652   0.423
15735SOL    HW159267   4.993   9.710   0.371
15735SOL    HW259268   5.149   9.686   0.411
15736SOL     OW59269   3.953   9.853   1.523
15736SOL    HW159270   3.973   9.758   1.498
15736SOL    HW259271   3.916   9.856   1.616
15737SOL     OW59272   3.835   9.508   1.413
15737SOL    HW159273   3.907   9.518   1.344
15737SOL    HW259274   3.746   9.507   1.368
15738SOL     OW59275   4.733  10.129   1.178
15738SOL    HW159276   4.727  10.115   1.079
15738SOL    HW259277   4.652  10.090   1.222
15739SOL     OW59278   5.324   9.663   0.493
15739SOL    HW159279   5.420   9.634   0.490
15739SOL    HW259280   5.285   9.641   0.582
15740SOL     OW59281   4.616  10.234   0.572
15740SOL    HW159282   4.603  10.145   0.529
15740SOL    HW259283   4.547  10.248   0.643
15741SOL     OW59284   3.727   9.539   0.475
15741SOL    HW159285   3.787   9.490   0.413
15741SOL    HW259286   3.782   9.591   0.540
15742SOL     OW59287   4.514  10.004   1.324
15742SOL    HW159288   4.516  10.090   1.375
15742SOL    HW259289   4.571   9.936   1.371
15743SOL     OW59290   4.054   9.768   0.928
15743SOL    HW159291   4.110   9.761   0.845
15743SOL    HW259292   4.111   9.746   1.008
15744SOL     OW59293   4.483   9.288   0.398
15744SOL    HW159294   4.444   9.277   0.307
15744SOL    HW259295   4.439   9.364   0.445
15745SOL     OW59296   5.258   9.552   1.576
15745SOL    HW159297   5.197   9.630   1.573
15745SOL    HW259298   5.313   9.556   1.659
15746SOL     OW59299   4.974   9.498   0.867
15746SOL    HW159300   4.973   9.576   0.804
15746SOL    HW259301   5.017   9.525   0.953
15747SOL     OW59302   5.307   9.276   1.597
15747SOL    HW159303   5.333   9.233   1.511
15747SOL    HW259304   5.257   9.360   1.579
15748SOL     OW59305   4.409   9.535   0.729
15748SOL    HW159306   4.398   9.477   0.810
15748SOL    HW259307   4.494   9.587   0.737
15749SOL     OW59308   4.989   9.886   1.121
15749SOL    HW159309   5.043   9.926   1.047
15749SOL    HW259310   5.027   9.915   1.209
15750SOL     OW59311   5.282   9.292   0.437
15750SOL    HW159312   5.289   9.246   0.349
15750SOL    HW259313   5.186   9.302   0.462
15751SOL     OW59314   4.881   9.830   0.839
15751SOL    HW159315   4.963   9.807   0.787
15751SOL    HW259316   4.876   9.771   0.920
15752SOL     OW59317   5.052   9.630   1.094
15752SOL    HW159318   5.026   9.727   1.100
15752SOL    HW259319   5.052   9.590   1.186
15753SOL     OW59320   5.282   9.762   1.845
15753SOL    HW159321   5.362   9.787   1.789
15753SOL    HW259322   5.313   9.727   1.933
15754SOL     OW59323   5.300   9.518   0.219
15754SOL    HW159324   5.305   9.560   0.310
15754SOL    HW259325   5.233   9.443   0.221
15755SOL     OW59326   3.838   9.528   1.704
15755SOL    HW159327   3.856   9.517   1.606
15755SOL    HW259328   3.740   9.524   1.721
15756SOL     OW59329   3.886   9.598   0.672
15756SOL    HW159330   3.829   9.653   0.733
15756SOL    HW259331   3.956   9.550   0.725
15757SOL     OW59332   4.023   9.789   0.270
15757SOL    HW159333   4.095   9.818   0.207
15757SOL    HW259334   3.979   9.869   0.310
15758SOL     OW59335   5.409   9.451   1.373
15758SOL    HW159336   5.365   9.499   1.449
15758SOL    HW259337   5.387   9.497   1.287
15759SOL     OW59338   3.768   9.768   0.845
15759SOL    HW159339   3.732   9.861   0.837
15759SOL    HW259340   3.851   9.769   0.901
15760SOL     OW59341   4.829   9.947   0.047
15760SOL    HW159342   4.760  10.004   0.003
15760SOL    HW259343   4.910   9.941  -0.012
15761SOL     OW59344   4.564   9.866   0.190
15761SOL    HW159345   4.654   9.867   0.145
15761SOL    HW259346   4.541   9.772   0.215
15762SOL     OW59347   5.015   9.383   0.484
15762SOL    HW159348   4.925   9.367   0.525
15762SOL    HW259349   5.023   9.479   0.458
15763SOL     OW59350   3.764   9.298   0.144
15763SOL    HW159351   3.827   9.221   0.152
15763SOL    HW259352   3.784   9.366   0.215
15764SOL     OW59353   4.318   9.886   1.167
15764SOL    HW159354   4.393   9.929   1.216
15764SOL    HW259355   4.251   9.851   1.233
15765SOL     OW59356   4.782   9.458   0.640
15765SOL    HW159357   4.841   9.518   0.695
15765SOL    HW259358   4.709   9.422   0.697
15766SOL     OW59359   4.310   9.335   0.911
15766SOL    HW159360   4.238   9.268   0.897
15766SOL    HW259361   4.392   9.289   0.946
15767SOL     OW59362   3.736  10.202   1.151
15767SOL    HW159363   3.825  10.180   1.191
15767SOL    HW259364   3.681  10.118   1.147
15768SOL     OW59365   3.964   9.247   0.431
15768SOL    HW159366   4.002   9.335   0.458
15768SOL    HW259367   3.887   9.223   0.491
15769SOL     OW59368   5.483   9.446   0.852
15769SOL    HW159369   5.438   9.428   0.939
15769SOL    HW259370   5.581   9.463   0.868
15770SOL     OW59371   4.869   9.845   0.313
15770SOL    HW159372   4.921   9.917   0.359
15770SOL    HW259373   4.882   9.852   0.215
15771SOL     OW59374   3.987  10.102   1.380
15771SOL    HW159375   3.951  10.012   1.406
15771SOL    HW259376   3.948  10.172   1.440
15772SOL     OW59377   4.155   9.684   1.785
15772SOL    HW159378   4.191   9.631   1.708
15772SOL    HW259379   4.216   9.761   1.803
15773SOL     OW59380   4.219  10.101   0.357
15773SOL    HW159381   4.169  10.166   0.301
15773SOL    HW259382   4.161  10.022   0.376
15774SOL     OW59383   4.992   9.575   1.351
15774SOL    HW159384   5.063   9.547   1.415
15774SOL    HW259385   4.939   9.495   1.323
15775SOL     OW59386   3.693   9.274   0.552
15775SOL    HW159387   3.606   9.261   0.505
15775SOL    HW259388   3.701   9.369   0.582
15776SOL     OW59389   4.914   9.375   1.793
15776SOL    HW159390   4.973   9.391   1.873
15776SOL    HW259391   4.861   9.458   1.774
15777SOL     OW59392   4.736   9.794   1.109
15777SOL    HW159393   4.822   9.845   1.108
15777SOL    HW259394   4.742   9.720   1.176
15778SOL     OW59395   4.685   9.409   0.898
15778SOL    HW159396   4.781   9.410   0.926
15778SOL    HW259397   4.630   9.366   0.970
15779SOL     OW59398   5.338   9.682   0.778
15779SOL    HW159399   5.357   9.768   0.825
15779SOL    HW259400   5.406   9.613   0.806
15780SOL     OW59401   4.231   9.759   0.728
15780SOL    HW159402   4.269   9.670   0.754
15780SOL    HW259403   4.298   9.809   0.673
15781SOL     OW59404   3.911   9.828   1.789
15781SOL    HW159405   3.928   9.729   1.794
15781SOL    HW259406   3.975   9.876   1.850
15782SOL     OW59407   4.480   9.742   1.008
15782SOL    HW159408   4.572   9.770   1.035
15782SOL    HW259409   4.412   9.793   1.062
15783SOL     OW59410   3.899   9.935   1.149
15783SOL    HW159411   3.937   9.994   1.220
15783SOL    HW259412   3.882   9.988   1.067
15784SOL     OW59413   4.374   9.601   0.464
15784SOL    HW159414   4.276   9.595   0.444
15784SOL    HW259415   4.393   9.558   0.552
15785SOL     OW59416   5.294   9.284   0.723
15785SOL    HW159417   5.289   9.325   0.632
15785SOL    HW259418   5.375   9.318   0.770
15786SOL     OW59419   5.059   9.692   0.705
15786SOL    HW159420   5.058   9.684   0.606
15786SOL    HW259421   5.148   9.664   0.740
15787SOL     OW59422   5.377   9.786   3.259
15787SOL    HW159423   5.279   9.778   3.281
15787SOL    HW259424   5.430   9.775   3.343
15788SOL     OW59425   4.044   9.423   1.864
15788SOL    HW159426   3.957   9.420   1.815
15788SOL    HW259427   4.095   9.505   1.836
15789SOL     OW59428   4.909   9.323   3.197
15789SOL    HW159429   4.833   9.278   3.244
15789SOL    HW259430   4.938   9.268   3.119
15790SOL     OW59431   4.272   9.310   1.990
15790SOL    HW159432   4.360   9.338   1.951
15790SOL    HW259433   4.200   9.373   1.960
15791SOL     OW59434   4.408   9.856   2.394
15791SOL    HW159435   4.447   9.926   2.335
15791SOL    HW259436   4.382   9.776   2.340
15792SOL     OW59437   4.262   9.575   2.857
15792SOL    HW159438   4.338   9.640   2.853
15792SOL    HW259439   4.292   9.486   2.824
15793SOL     OW59440   5.349   9.521   2.965
15793SOL    HW159441   5.400   9.593   2.918
15793SOL    HW259442   5.254   9.548   2.974
15794SOL     OW59443   4.749   9.550   2.234
15794SOL    HW159444   4.774   9.644   2.255
15794SOL    HW259445   4.750   9.496   2.318
15795SOL     OW59446   4.199   9.908   1.962
15795SOL    HW159447   4.159   9.987   1.915
15795SOL    HW259448   4.288   9.887   1.922
15796SOL     OW59449   4.714   9.864   3.414
15796SOL    HW159450   4.747   9.781   3.461
15796SOL    HW259451   4.787   9.932   3.413
15797SOL     OW59452   4.059   9.745   3.118
15797SOL    HW159453   4.049   9.658   3.070
15797SOL    HW259454   3.995   9.812   3.081
15798SOL     OW59455   5.141  10.025   3.156
15798SOL    HW159456   5.145  10.119   3.121
15798SOL    HW259457   5.234   9.994   3.178
15799SOL     OW59458   4.094   9.517   2.277
15799SOL    HW159459   4.048   9.557   2.356
15799SOL    HW259460   4.042   9.536   2.195
15800SOL     OW59461   5.517   9.762   3.044
15800SOL    HW159462   5.574   9.844   3.046
15800SOL    HW259463   5.458   9.761   3.124
15801SOL     OW59464   4.647   9.728   2.519
15801SOL    HW159465   4.723   9.756   2.578
15801SOL    HW259466   4.603   9.808   2.480
15802SOL     OW59467   5.465   9.861   2.115
15802SOL    HW159468   5.486   9.780   2.061
15802SOL    HW259469   5.482   9.842   2.212
15803SOL     OW59470   4.440   9.266   3.555
15803SOL    HW159471   4.447   9.172   3.522
15803SOL    HW259472   4.497   9.276   3.637
15804SOL     OW59473   5.363   9.867   2.823
15804SOL    HW159474   5.348   9.958   2.860
15804SOL    HW259475   5.433   9.820   2.877
15805SOL     OW59476   5.063   9.239   2.699
15805SOL    HW159477   5.012   9.323   2.681
15805SOL    HW259478   5.149   9.241   2.648
15806SOL     OW59479   5.418   9.445   3.628
15806SOL    HW159480   5.395   9.466   3.723
15806SOL    HW259481   5.394   9.350   3.608
15807SOL     OW59482   4.042   9.437   2.693
15807SOL    HW159483   4.094   9.477   2.768
15807SOL    HW259484   4.095   9.364   2.650
15808SOL     OW59485   4.026   9.485   3.027
15808SOL    HW159486   3.991   9.392   3.027
15808SOL    HW259487   4.113   9.488   2.978
15809SOL     OW59488   5.056   9.652   2.268
15809SOL    HW159489   4.993   9.710   2.216
15809SOL    HW259490   5.149   9.686   2.256
15810SOL     OW59491   3.953   9.853   3.368
15810SOL    HW159492   3.973   9.758   3.343
15810SOL    HW259493   3.916   9.856   3.461
15811SOL     OW59494   3.835   9.508   3.258
15811SOL    HW159495   3.907   9.518   3.189
15811SOL    HW259496   3.746   9.507   3.213
15812SOL     OW59497   4.733  10.129   3.023
15812SOL    HW159498   4.727  10.115   2.924
15812SOL    HW259499   4.652  10.090   3.067
15813SOL     OW59500   5.324   9.663   2.338
15813SOL    HW159501   5.420   9.634   2.335
15813SOL    HW259502   5.285   9.641   2.427
15814SOL     OW59503   4.616  10.234   2.417
15814SOL    HW159504   4.603  10.145   2.374
15814SOL    HW259505   4.547  10.248   2.488
15815SOL     OW59506   3.727   9.539   2.320
15815SOL    HW159507   3.787   9.490   2.258
15815SOL    HW259508   3.782   9.591   2.385
15816SOL     OW59509   4.514  10.004   3.169
15816SOL    HW159510   4.516  10.090   3.220
15816SOL    HW259511   4.571   9.936   3.216
15817SOL     OW59512   4.054   9.768   2.773
15817SOL    HW159513   4.110   9.761   2.690
15817SOL    HW259514   4.111   9.746   2.853
15818SOL     OW59515   4.483   9.288   2.243
15818SOL    HW159516   4.444   9.277   2.152
15818SOL    HW259517   4.439   9.364   2.290
15819SOL     OW59518   5.258   9.552   3.421
15819SOL    HW159519   5.197   9.630   3.418
15819SOL    HW259520   5.313   9.556   3.504
15820SOL     OW59521   4.974   9.498   2.712
15820SOL    HW159522   4.973   9.576   2.649
15820SOL    HW259523   5.017   9.525   2.798
15821SOL     OW59524   5.094   9.304   2.008
15821SOL    HW159525   5.174   9.244   2.005
15821SOL    HW259526   5.020   9.257   2.056
15822SOL     OW59527   5.307   9.276   3.442
15822SOL    HW159528   5.333   9.233   3.356
15822SOL    HW259529   5.257   9.360   3.424
15823SOL     OW59530   4.409   9.535   2.574
15823SOL    HW159531   4.398   9.477   2.655
15823SOL    HW259532   4.494   9.587   2.582
15824SOL     OW59533   4.989   9.886   2.966
15824SOL    HW159534   5.043   9.926   2.892
15824SOL    HW259535   5.027   9.915   3.054
15825SOL     OW59536   5.282   9.292   2.282
15825SOL    HW159537   5.289   9.246   2.194
15825SOL    HW259538   5.186   9.302   2.307
15826SOL     OW59539   4.881   9.830   2.684
15826SOL    HW159540   4.963   9.807   2.632
15826SOL    HW259541   4.876   9.771   2.765
15827SOL     OW59542   5.481   9.857   3.520
15827SOL    HW159543   5.470   9.943   3.469
15827SOL    HW259544   5.575   9.848   3.550
15828SOL     OW59545   5.052   9.630   2.939
15828SOL    HW159546   5.026   9.727   2.945
15828SOL    HW259547   5.052   9.590   3.031
15829SOL     OW59548   5.282   9.762   3.690
15829SOL    HW159549   5.362   9.787   3.634
15829SOL    HW259550   5.313   9.727   3.778
15830SOL     OW59551   5.300   9.518   2.064
15830SOL    HW159552   5.305   9.560   2.155
15830SOL    HW259553   5.233   9.443   2.066
15831SOL     OW59554   3.838   9.528   3.549
15831SOL    HW159555   3.856   9.517   3.451
15831SOL    HW259556   3.740   9.524   3.566
15832SOL     OW59557   3.886   9.598   2.517
15832SOL    HW159558   3.829   9.653   2.578
15832SOL    HW259559   3.956   9.550   2.570
15833SOL     OW59560   4.023   9.789   2.115
15833SOL    HW159561   4.095   9.818   2.052
15833SOL    HW259562   3.979   9.869   2.155
15834SOL     OW59563   5.409   9.451   3.218
15834SOL    HW159564   5.365   9.499   3.294
15834SOL    HW259565   5.387   9.497   3.132
15835SOL     OW59566   3.915   9.516   2.079
15835SOL    HW159567   3.959   9.485   1.996
15835SOL    HW259568   3.916   9.616   2.083
15836SOL     OW59569   3.768   9.768   2.690
15836SOL    HW159570   3.732   9.861   2.682
15836SOL    HW259571   3.851   9.769   2.746
15837SOL     OW59572   4.564   9.866   2.035
15837SOL    HW159573   4.654   9.867   1.990
15837SOL    HW259574   4.541   9.772   2.060
15838SOL     OW59575   5.015   9.383   2.329
15838SOL    HW159576   4.925   9.367   2.370
15838SOL    HW259577   5.023   9.479   2.303
15839SOL     OW59578   5.129   9.783   3.345
15839SOL    HW159579   5.081   9.806   3.429
15839SOL    HW259580   5.063   9.753   3.276
15840SOL     OW59581   3.764   9.298   1.989
15840SOL    HW159582   3.827   9.221   1.997
15840SOL    HW259583   3.784   9.366   2.060
15841SOL     OW59584   4.318   9.886   3.012
15841SOL    HW159585   4.393   9.929   3.061
15841SOL    HW259586   4.251   9.851   3.078
15842SOL     OW59587   4.782   9.458   2.485
15842SOL    HW159588   4.841   9.518   2.540
15842SOL    HW259589   4.709   9.422   2.542
15843SOL     OW59590   4.310   9.335   2.756
15843SOL    HW159591   4.238   9.268   2.742
15843SOL    HW259592   4.392   9.289   2.791
15844SOL     OW59593   3.736  10.202   2.996
15844SOL    HW159594   3.825  10.180   3.036
15844SOL    HW259595   3.681  10.118   2.992
15845SOL     OW59596   3.964   9.247   2.276
15845SOL    HW159597   4.002   9.335   2.303
15845SOL    HW259598   3.887   9.223   2.336
15846SOL     OW59599   5.483   9.446   2.697
15846SOL    HW159600   5.438   9.428   2.784
15846SOL    HW259601   5.581   9.463   2.713
15847SOL     OW59602   3.987  10.102   3.225
15847SOL    HW159603   3.951  10.012   3.251
15847SOL    HW259604   3.948  10.172   3.285
15848SOL     OW59605   4.155   9.684   3.630
15848SOL    HW159606   4.191   9.631   3.553
15848SOL    HW259607   4.216   9.761   3.648
15849SOL     OW59608   4.219  10.101   2.202
15849SOL    HW159609   4.169  10.166   2.146
15849SOL    HW259610   4.161  10.022   2.221
15850SOL     OW59611   4.992   9.575   3.196
15850SOL    HW159612   5.063   9.547   3.260
15850SOL    HW259613   4.939   9.495   3.168
15851SOL     OW59614   3.693   9.274   2.397
15851SOL    HW159615   3.606   9.261   2.350
15851SOL    HW259616   3.701   9.369   2.427
15852SOL     OW59617   4.914   9.375   3.638
15852SOL    HW159618   4.973   9.391   3.718
15852SOL    HW259619   4.861   9.458   3.619
15853SOL     OW59620   4.736   9.794   2.954
15853SOL    HW159621   4.822   9.845   2.953
15853SOL    HW259622   4.742   9.720   3.021
15854SOL     OW59623   4.685   9.409   2.743
15854SOL    HW159624   4.781   9.410   2.771
15854SOL    HW259625   4.630   9.366   2.815
15855SOL     OW59626   5.338   9.682   2.623
15855SOL    HW159627   5.357   9.768   2.670
15855SOL    HW259628   5.406   9.613   2.651
15856SOL     OW59629   4.231   9.759   2.573
15856SOL    HW159630   4.269   9.670   2.599
15856SOL    HW259631   4.298   9.809   2.518
15857SOL     OW59632   3.911   9.828   3.634
15857SOL    HW159633   3.928   9.729   3.639
15857SOL    HW259634   3.975   9.876   3.695
15858SOL     OW59635   4.480   9.742   2.853
15858SOL    HW159636   4.572   9.770   2.880
15858SOL    HW259637   4.412   9.793   2.907
15859SOL     OW59638   3.899   9.935   2.994
15859SOL    HW159639   3.937   9.994   3.065
15859SOL    HW259640   3.882   9.988   2.912
15860SOL     OW59641   4.374   9.601   2.309
15860SOL    HW159642   4.276   9.595   2.289
15860SOL    HW259643   4.393   9.558   2.397
15861SOL     OW59644   5.294   9.284   2.568
15861SOL    HW159645   5.289   9.325   2.477
15861SOL    HW259646   5.375   9.318   2.615
15862SOL     OW59647   5.059   9.692   2.550
15862SOL    HW159648   5.058   9.684   2.451
15862SOL    HW259649   5.148   9.664   2.585
15863SOL     OW59650   5.377   9.786   5.105
15863SOL    HW159651   5.279   9.778   5.127
15863SOL    HW259652   5.430   9.775   5.189
15864SOL     OW59653   4.044   9.423   3.710
15864SOL    HW159654   3.957   9.420   3.661
15864SOL    HW259655   4.095   9.505   3.682
15865SOL     OW59656   4.909   9.323   5.043
15865SOL    HW159657   4.833   9.278   5.090
15865SOL    HW259658   4.938   9.268   4.965
15866SOL     OW59659   5.028   9.764   5.449
15866SOL    HW159660   5.124   9.768   5.475
15866SOL    HW259661   4.984   9.688   5.496
15867SOL     OW59662   4.262   9.575   4.703
15867SOL    HW159663   4.338   9.640   4.699
15867SOL    HW259664   4.292   9.486   4.670
15868SOL     OW59665   5.349   9.521   4.811
15868SOL    HW159666   5.400   9.593   4.764
15868SOL    HW259667   5.254   9.548   4.820
15869SOL     OW59668   4.199   9.908   3.808
15869SOL    HW159669   4.159   9.987   3.761
15869SOL    HW259670   4.288   9.887   3.768
15870SOL     OW59671   4.714   9.864   5.260
15870SOL    HW159672   4.747   9.781   5.307
15870SOL    HW259673   4.787   9.932   5.259
15871SOL     OW59674   5.141  10.025   5.002
15871SOL    HW159675   5.145  10.119   4.967
15871SOL    HW259676   5.234   9.994   5.024
15872SOL     OW59677   4.094   9.517   4.123
15872SOL    HW159678   4.048   9.557   4.202
15872SOL    HW259679   4.042   9.536   4.041
15873SOL     OW59680   5.517   9.762   4.890
15873SOL    HW159681   5.574   9.844   4.892
15873SOL    HW259682   5.458   9.761   4.970
15874SOL     OW59683   4.647   9.728   4.365
15874SOL    HW159684   4.723   9.756   4.424
15874SOL    HW259685   4.603   9.808   4.326
15875SOL     OW59686   4.724   9.614   5.503
15875SOL    HW159687   4.787   9.619   5.580
15875SOL    HW259688   4.632   9.592   5.536
15876SOL     OW59689   5.465   9.861   3.961
15876SOL    HW159690   5.486   9.780   3.907
15876SOL    HW259691   5.482   9.842   4.058
15877SOL     OW59692   4.440   9.266   5.401
15877SOL    HW159693   4.447   9.172   5.368
15877SOL    HW259694   4.497   9.276   5.483
15878SOL     OW59695   5.363   9.867   4.669
15878SOL    HW159696   5.348   9.958   4.706
15878SOL    HW259697   5.433   9.820   4.723
15879SOL     OW59698   5.063   9.239   4.545
15879SOL    HW159699   5.012   9.323   4.527
15879SOL    HW259700   5.149   9.241   4.494
15880SOL     OW59701   4.698  10.361   5.010
15880SOL    HW159702   4.748  10.276   4.994
15880SOL    HW259703   4.652  10.388   4.925
15881SOL     OW59704   4.733  10.129   4.869
15881SOL    HW159705   4.727  10.115   4.770
15881SOL    HW259706   4.652  10.090   4.913
15882SOL     OW59707   5.324   9.663   4.184
15882SOL    HW159708   5.420   9.634   4.181
15882SOL    HW259709   5.285   9.641   4.273
15883SOL     OW59710   4.616  10.234   4.263
15883SOL    HW159711   4.603  10.145   4.220
15883SOL    HW259712   4.547  10.248   4.334
15884SOL     OW59713   4.514  10.004   5.015
15884SOL    HW159714   4.516  10.090   5.066
15884SOL    HW259715   4.571   9.936   5.062
15885SOL     OW59716   5.258   9.552   5.267
15885SOL    HW159717   5.197   9.630   5.264
15885SOL    HW259718   5.313   9.556   5.350
15886SOL     OW59719   4.974   9.498   4.558
15886SOL    HW159720   4.973   9.576   4.495
15886SOL    HW259721   5.017   9.525   4.644
15887SOL     OW59722   4.409   9.535   4.420
15887SOL    HW159723   4.398   9.477   4.501
15887SOL    HW259724   4.494   9.587   4.428
15888SOL     OW59725   4.989   9.886   4.812
15888SOL    HW159726   5.043   9.926   4.738
15888SOL    HW259727   5.027   9.915   4.900
15889SOL     OW59728   5.282   9.292   4.128
15889SOL    HW159729   5.289   9.246   4.040
15889SOL    HW259730   5.186   9.302   4.153
15890SOL     OW59731   4.881   9.830   4.530
15890SOL    HW159732   4.963   9.807   4.478
15890SOL    HW259733   4.876   9.771   4.611
15891SOL     OW59734   5.481   9.857   5.366
15891SOL    HW159735   5.470   9.943   5.315
15891SOL    HW259736   5.575   9.848   5.396
15892SOL     OW59737   5.052   9.630   4.785
15892SOL    HW159738   5.026   9.727   4.791
15892SOL    HW259739   5.052   9.590   4.877
15893SOL     OW59740   5.282   9.762   5.536
15893SOL    HW159741   5.362   9.787   5.480
15893SOL    HW259742   5.313   9.727   5.624
15894SOL     OW59743   5.300   9.518   3.910
15894SOL    HW159744   5.305   9.560   4.001
15894SOL    HW259745   5.233   9.443   3.912
15895SOL     OW59746   5.409   9.451   5.064
15895SOL    HW159747   5.365   9.499   5.140
15895SOL    HW259748   5.387   9.497   4.978
15896SOL     OW59749   4.564   9.866   3.881
15896SOL    HW159750   4.654   9.867   3.836
15896SOL    HW259751   4.541   9.772   3.906
15897SOL     OW59752   5.129   9.783   5.191
15897SOL    HW159753   5.081   9.806   5.275
15897SOL    HW259754   5.063   9.753   5.122
15898SOL     OW59755   4.318   9.886   4.858
15898SOL    HW159756   4.393   9.929   4.907
15898SOL    HW259757   4.251   9.851   4.924
15899SOL     OW59758   4.782   9.458   4.331
15899SOL    HW159759   4.841   9.518   4.386
15899SOL    HW259760   4.709   9.422   4.388
15900SOL     OW59761   3.736  10.202   4.842
15900SOL    HW159762   3.825  10.180   4.882
15900SOL    HW259763   3.681  10.118   4.838
15901SOL     OW59764   5.483   9.446   4.543
15901SOL    HW159765   5.438   9.428   4.630
15901SOL    HW259766   5.581   9.463   4.559
15902SOL     OW59767   3.987  10.102   5.071
15902SOL    HW159768   3.951  10.012   5.097
15902SOL    HW259769   3.948  10.172   5.131
15903SOL     OW59770   4.992   9.575   5.042
15903SOL    HW159771   5.063   9.547   5.106
15903SOL    HW259772   4.939   9.495   5.014
15904SOL     OW59773   4.736   9.794   4.800
15904SOL    HW159774   4.822   9.845   4.799
15904SOL    HW259775   4.742   9.720   4.867
15905SOL     OW59776   4.685   9.409   4.589
15905SOL    HW159777   4.781   9.410   4.617
15905SOL    HW259778   4.630   9.366   4.661
15906SOL     OW59779   5.338   9.682   4.469
15906SOL    HW159780   5.357   9.768   4.516
15906SOL    HW259781   5.406   9.613   4.497
15907SOL     OW59782   4.231   9.759   4.419
15907SOL    HW159783   4.269   9.670   4.445
15907SOL    HW259784   4.298   9.809   4.364
15908SOL     OW59785   4.480   9.742   4.699
15908SOL    HW159786   4.572   9.770   4.726
15908SOL    HW259787   4.412   9.793   4.753
15909SOL     OW59788   3.899   9.935   4.840
15909SOL    HW159789   3.937   9.994   4.911
15909SOL    HW259790   3.882   9.988   4.758
15910SOL     OW59791   5.294   9.284   4.414
15910SOL    HW159792   5.289   9.325   4.323
15910SOL    HW259793   5.375   9.318   4.461
15911SOL     OW59794   5.377   9.786   6.950
15911SOL    HW159795   5.279   9.778   6.972
15911SOL    HW259796   5.430   9.775   7.034
15912SOL     OW59797   4.909   9.323   6.888
15912SOL    HW159798   4.833   9.278   6.935
15912SOL    HW259799   4.938   9.268   6.810
15913SOL     OW59800   4.272   9.310   5.681
15913SOL    HW159801   4.360   9.338   5.642
15913SOL    HW259802   4.200   9.373   5.651
15914SOL     OW59803   5.028   9.764   7.294
15914SOL    HW159804   5.124   9.768   7.320
15914SOL    HW259805   4.984   9.688   7.341
15915SOL     OW59806   4.262   9.575   6.548
15915SOL    HW159807   4.338   9.640   6.544
15915SOL    HW259808   4.292   9.486   6.515
15916SOL     OW59809   5.349   9.521   6.656
15916SOL    HW159810   5.400   9.593   6.609
15916SOL    HW259811   5.254   9.548   6.665
15917SOL     OW59812   4.749   9.550   5.925
15917SOL    HW159813   4.774   9.644   5.946
15917SOL    HW259814   4.750   9.496   6.009
15918SOL     OW59815   4.714   9.864   7.105
15918SOL    HW159816   4.747   9.781   7.152
15918SOL    HW259817   4.787   9.932   7.104
15919SOL     OW59818   4.907   9.540   5.714
15919SOL    HW159819   5.001   9.510   5.732
15919SOL    HW259820   4.855   9.540   5.800
15920SOL     OW59821   5.141  10.025   6.847
15920SOL    HW159822   5.145  10.119   6.812
15920SOL    HW259823   5.234   9.994   6.869
15921SOL     OW59824   5.517   9.762   6.735
15921SOL    HW159825   5.574   9.844   6.737
15921SOL    HW259826   5.458   9.761   6.815
15922SOL     OW59827   4.647   9.728   6.210
15922SOL    HW159828   4.723   9.756   6.269
15922SOL    HW259829   4.603   9.808   6.171
15923SOL     OW59830   4.724   9.614   7.348
15923SOL    HW159831   4.787   9.619   7.425
15923SOL    HW259832   4.632   9.592   7.381
15924SOL     OW59833   5.465   9.861   5.806
15924SOL    HW159834   5.486   9.780   5.752
15924SOL    HW259835   5.482   9.842   5.903
15925SOL     OW59836   4.440   9.266   7.246
15925SOL    HW159837   4.447   9.172   7.213
15925SOL    HW259838   4.497   9.276   7.328
15926SOL     OW59839   5.363   9.867   6.514
15926SOL    HW159840   5.348   9.958   6.551
15926SOL    HW259841   5.433   9.820   6.568
15927SOL     OW59842   5.063   9.239   6.390
15927SOL    HW159843   5.012   9.323   6.372
15927SOL    HW259844   5.149   9.241   6.339
15928SOL     OW59845   5.418   9.445   7.319
15928SOL    HW159846   5.395   9.466   7.414
15928SOL    HW259847   5.394   9.350   7.299
15929SOL     OW59848   4.042   9.437   6.384
15929SOL    HW159849   4.094   9.477   6.459
15929SOL    HW259850   4.095   9.364   6.341
15930SOL     OW59851   4.026   9.485   6.718
15930SOL    HW159852   3.991   9.392   6.718
15930SOL    HW259853   4.113   9.488   6.669
15931SOL     OW59854   4.698  10.361   6.855
15931SOL    HW159855   4.748  10.276   6.839
15931SOL    HW259856   4.652  10.388   6.770
15932SOL     OW59857   5.056   9.652   5.959
15932SOL    HW159858   4.993   9.710   5.907
15932SOL    HW259859   5.149   9.686   5.947
15933SOL     OW59860   3.835   9.508   6.949
15933SOL    HW159861   3.907   9.518   6.880
15933SOL    HW259862   3.746   9.507   6.904
15934SOL     OW59863   4.733  10.129   6.714
15934SOL    HW159864   4.727  10.115   6.615
15934SOL    HW259865   4.652  10.090   6.758
15935SOL     OW59866   5.324   9.663   6.029
15935SOL    HW159867   5.420   9.634   6.026
15935SOL    HW259868   5.285   9.641   6.118
15936SOL     OW59869   4.616  10.234   6.108
15936SOL    HW159870   4.603  10.145   6.065
15936SOL    HW259871   4.547  10.248   6.179
15937SOL     OW59872   3.727   9.539   6.011
15937SOL    HW159873   3.787   9.490   5.949
15937SOL    HW259874   3.782   9.591   6.076
15938SOL     OW59875   4.514  10.004   6.860
15938SOL    HW159876   4.516  10.090   6.911
15938SOL    HW259877   4.571   9.936   6.907
15939SOL     OW59878   4.054   9.768   6.464
15939SOL    HW159879   4.110   9.761   6.381
15939SOL    HW259880   4.111   9.746   6.544
15940SOL     OW59881   4.483   9.288   5.934
15940SOL    HW159882   4.444   9.277   5.843
15940SOL    HW259883   4.439   9.364   5.981
15941SOL     OW59884   5.258   9.552   7.112
15941SOL    HW159885   5.197   9.630   7.109
15941SOL    HW259886   5.313   9.556   7.195
15942SOL     OW59887   4.974   9.498   6.403
15942SOL    HW159888   4.973   9.576   6.340
15942SOL    HW259889   5.017   9.525   6.489
15943SOL     OW59890   5.307   9.276   7.133
15943SOL    HW159891   5.333   9.233   7.047
15943SOL    HW259892   5.257   9.360   7.115
15944SOL     OW59893   4.409   9.535   6.265
15944SOL    HW159894   4.398   9.477   6.346
15944SOL    HW259895   4.494   9.587   6.273
15945SOL     OW59896   4.989   9.886   6.657
15945SOL    HW159897   5.043   9.926   6.583
15945SOL    HW259898   5.027   9.915   6.745
15946SOL     OW59899   5.282   9.292   5.973
15946SOL    HW159900   5.289   9.246   5.885
15946SOL    HW259901   5.186   9.302   5.998
15947SOL     OW59902   4.881   9.830   6.375
15947SOL    HW159903   4.963   9.807   6.323
15947SOL    HW259904   4.876   9.771   6.456
15948SOL     OW59905   5.481   9.857   7.211
15948SOL    HW159906   5.470   9.943   7.160
15948SOL    HW259907   5.575   9.848   7.241
15949SOL     OW59908   5.052   9.630   6.630
15949SOL    HW159909   5.026   9.727   6.636
15949SOL    HW259910   5.052   9.590   6.722
15950SOL     OW59911   5.282   9.762   7.381
15950SOL    HW159912   5.362   9.787   7.325
15950SOL    HW259913   5.313   9.727   7.469
15951SOL     OW59914   5.300   9.518   5.755
15951SOL    HW159915   5.305   9.560   5.846
15951SOL    HW259916   5.233   9.443   5.757
15952SOL     OW59917   3.838   9.528   7.240
15952SOL    HW159918   3.856   9.517   7.142
15952SOL    HW259919   3.740   9.524   7.257
15953SOL     OW59920   3.886   9.598   6.208
15953SOL    HW159921   3.829   9.653   6.269
15953SOL    HW259922   3.956   9.550   6.261
15954SOL     OW59923   5.409   9.451   6.909
15954SOL    HW159924   5.365   9.499   6.985
15954SOL    HW259925   5.387   9.497   6.823
15955SOL     OW59926   3.768   9.768   6.381
15955SOL    HW159927   3.732   9.861   6.373
15955SOL    HW259928   3.851   9.769   6.437
15956SOL     OW59929   4.829   9.947   5.583
15956SOL    HW159930   4.760  10.004   5.539
15956SOL    HW259931   4.910   9.941   5.524
15957SOL     OW59932   4.564   9.866   5.726
15957SOL    HW159933   4.654   9.867   5.681
15957SOL    HW259934   4.541   9.772   5.751
15958SOL     OW59935   5.015   9.383   6.020
15958SOL    HW159936   4.925   9.367   6.061
15958SOL    HW259937   5.023   9.479   5.994
15959SOL     OW59938   5.129   9.783   7.036
15959SOL    HW159939   5.081   9.806   7.120
15959SOL    HW259940   5.063   9.753   6.967
15960SOL     OW59941   3.764   9.298   5.680
15960SOL    HW159942   3.827   9.221   5.688
15960SOL    HW259943   3.784   9.366   5.751
15961SOL     OW59944   4.782   9.458   6.176
15961SOL    HW159945   4.841   9.518   6.231
15961SOL    HW259946   4.709   9.422   6.233
15962SOL     OW59947   4.310   9.335   6.447
15962SOL    HW159948   4.238   9.268   6.433
15962SOL    HW259949   4.392   9.289   6.482
15963SOL     OW59950   3.964   9.247   5.967
15963SOL    HW159951   4.002   9.335   5.994
15963SOL    HW259952   3.887   9.223   6.027
15964SOL     OW59953   5.483   9.446   6.388
15964SOL    HW159954   5.438   9.428   6.475
15964SOL    HW259955   5.581   9.463   6.404
15965SOL     OW59956   4.869   9.845   5.849
15965SOL    HW159957   4.921   9.917   5.895
15965SOL    HW259958   4.882   9.852   5.751
15966SOL     OW59959   4.992   9.575   6.887
15966SOL    HW159960   5.063   9.547   6.951
15966SOL    HW259961   4.939   9.495   6.859
15967SOL     OW59962   3.693   9.274   6.088
15967SOL    HW159963   3.606   9.261   6.041
15967SOL    HW259964   3.701   9.369   6.118
15968SOL     OW59965   4.914   9.375   7.329
15968SOL    HW159966   4.973   9.391   7.409
15968SOL    HW259967   4.861   9.458   7.310
15969SOL     OW59968   4.736   9.794   6.645
15969SOL    HW159969   4.822   9.845   6.644
15969SOL    HW259970   4.742   9.720   6.712
15970SOL     OW59971   4.685   9.409   6.434
15970SOL    HW159972   4.781   9.410   6.462
15970SOL    HW259973   4.630   9.366   6.506
15971SOL     OW59974   5.338   9.682   6.314
15971SOL    HW159975   5.357   9.768   6.361
15971SOL    HW259976   5.406   9.613   6.342
15972SOL     OW59977   4.552   9.330   5.652
15972SOL    HW159978   4.627   9.264   5.664
15972SOL    HW259979   4.583   9.421   5.680
15973SOL     OW59980   4.231   9.759   6.264
15973SOL    HW159981   4.269   9.670   6.290
15973SOL    HW259982   4.298   9.809   6.209
15974SOL     OW59983   3.911   9.828   7.325
15974SOL    HW159984   3.928   9.729   7.330
15974SOL    HW259985   3.975   9.876   7.386
15975SOL     OW59986   5.294   9.284   6.259
15975SOL    HW159987   5.289   9.325   6.168
15975SOL    HW259988   5.375   9.318   6.306
15976SOL     OW59989   5.059   9.692   6.241
15976SOL    HW159990   5.058   9.684   6.142
15976SOL    HW259991   5.148   9.664   6.276
15977SOL     OW59992   5.377   9.786   8.796
15977SOL    HW159993   5.279   9.778   8.818
15977SOL    HW259994   5.430   9.775   8.880
15978SOL     OW59995   4.044   9.423   7.401
15978SOL    HW159996   3.957   9.420   7.352
15978SOL    HW259997   4.095   9.505   7.373
15979SOL     OW59998   4.909   9.323   8.734
15979SOL    HW159999   4.833   9.278   8.781
15979SOL    HW260000   4.938   9.268   8.656
15980SOL     OW60001   4.272   9.310   7.527
15980SOL    HW160002   4.360   9.338   7.488
15980SOL    HW260003   4.200   9.373   7.497
15981SOL     OW60004   4.408   9.856   7.931
15981SOL    HW160005   4.447   9.926   7.872
15981SOL    HW260006   4.382   9.776   7.877
15982SOL     OW60007   5.028   9.764   9.140
15982SOL    HW160008   5.124   9.768   9.166
15982SOL    HW260009   4.984   9.688   9.187
15983SOL     OW60010   4.262   9.575   8.394
15983SOL    HW160011   4.338   9.640   8.390
15983SOL    HW260012   4.292   9.486   8.361
15984SOL     OW60013   5.349   9.521   8.502
15984SOL    HW160014   5.400   9.593   8.455
15984SOL    HW260015   5.254   9.548   8.511
15985SOL     OW60016   4.749   9.550   7.771
15985SOL    HW160017   4.774   9.644   7.792
15985SOL    HW260018   4.750   9.496   7.855
15986SOL     OW60019   4.199   9.908   7.499
15986SOL    HW160020   4.159   9.987   7.452
15986SOL    HW260021   4.288   9.887   7.459
15987SOL     OW60022   4.714   9.864   8.951
15987SOL    HW160023   4.747   9.781   8.998
15987SOL    HW260024   4.787   9.932   8.950
15988SOL     OW60025   4.907   9.540   7.560
15988SOL    HW160026   5.001   9.510   7.578
15988SOL    HW260027   4.855   9.540   7.646
15989SOL     OW60028   4.059   9.745   8.655
15989SOL    HW160029   4.049   9.658   8.607
15989SOL    HW260030   3.995   9.812   8.618
15990SOL     OW60031   5.141  10.025   8.693
15990SOL    HW160032   5.145  10.119   8.658
15990SOL    HW260033   5.234   9.994   8.715
15991SOL     OW60034   4.094   9.517   7.814
15991SOL    HW160035   4.048   9.557   7.893
15991SOL    HW260036   4.042   9.536   7.732
15992SOL     OW60037   5.517   9.762   8.581
15992SOL    HW160038   5.574   9.844   8.583
15992SOL    HW260039   5.458   9.761   8.661
15993SOL     OW60040   4.647   9.728   8.056
15993SOL    HW160041   4.723   9.756   8.115
15993SOL    HW260042   4.603   9.808   8.017
15994SOL     OW60043   4.724   9.614   9.194
15994SOL    HW160044   4.787   9.619   9.271
15994SOL    HW260045   4.632   9.592   9.227
15995SOL     OW60046   5.465   9.861   7.652
15995SOL    HW160047   5.486   9.780   7.598
15995SOL    HW260048   5.482   9.842   7.749
15996SOL     OW60049   4.440   9.266   9.092
15996SOL    HW160050   4.447   9.172   9.059
15996SOL    HW260051   4.497   9.276   9.174
15997SOL     OW60052   5.363   9.867   8.360
15997SOL    HW160053   5.348   9.958   8.397
15997SOL    HW260054   5.433   9.820   8.414
15998SOL     OW60055   5.063   9.239   8.236
15998SOL    HW160056   5.012   9.323   8.218
15998SOL    HW260057   5.149   9.241   8.185
15999SOL     OW60058   5.418   9.445   9.165
15999SOL    HW160059   5.395   9.466   9.260
15999SOL    HW260060   5.394   9.350   9.145
16000SOL     OW60061   4.042   9.437   8.230
16000SOL    HW160062   4.094   9.477   8.305
16000SOL    HW260063   4.095   9.364   8.187
16001SOL     OW60064   4.026   9.485   8.564
16001SOL    HW160065   3.991   9.392   8.564
16001SOL    HW260066   4.113   9.488   8.515
16002SOL     OW60067   4.698  10.361   8.701
16002SOL    HW160068   4.748  10.276   8.685
16002SOL    HW260069   4.652  10.388   8.616
16003SOL     OW60070   5.056   9.652   7.805
16003SOL    HW160071   4.993   9.710   7.753
16003SOL    HW260072   5.149   9.686   7.793
16004SOL     OW60073   3.835   9.508   8.795
16004SOL    HW160074   3.907   9.518   8.726
16004SOL    HW260075   3.746   9.507   8.750
16005SOL     OW60076   4.733  10.129   8.560
16005SOL    HW160077   4.727  10.115   8.461
16005SOL    HW260078   4.652  10.090   8.604
16006SOL     OW60079   5.324   9.663   7.875
16006SOL    HW160080   5.420   9.634   7.872
16006SOL    HW260081   5.285   9.641   7.964
16007SOL     OW60082   4.558   9.604   7.597
16007SOL    HW160083   4.467   9.617   7.635
16007SOL    HW260084   4.618   9.564   7.667
16008SOL     OW60085   4.616  10.234   7.954
16008SOL    HW160086   4.603  10.145   7.911
16008SOL    HW260087   4.547  10.248   8.025
16009SOL     OW60088   3.727   9.539   7.857
16009SOL    HW160089   3.787   9.490   7.795
16009SOL    HW260090   3.782   9.591   7.922
16010SOL     OW60091   4.514  10.004   8.706
16010SOL    HW160092   4.516  10.090   8.757
16010SOL    HW260093   4.571   9.936   8.753
16011SOL     OW60094   4.054   9.768   8.310
16011SOL    HW160095   4.110   9.761   8.227
16011SOL    HW260096   4.111   9.746   8.390
16012SOL     OW60097   4.483   9.288   7.780
16012SOL    HW160098   4.444   9.277   7.689
16012SOL    HW260099   4.439   9.364   7.827
16013SOL     OW60100   5.258   9.552   8.958
16013SOL    HW160101   5.197   9.630   8.955
16013SOL    HW260102   5.313   9.556   9.041
16014SOL     OW60103   4.974   9.498   8.249
16014SOL    HW160104   4.973   9.576   8.186
16014SOL    HW260105   5.017   9.525   8.335
16015SOL     OW60106   5.094   9.304   7.545
16015SOL    HW160107   5.174   9.244   7.542
16015SOL    HW260108   5.020   9.257   7.593
16016SOL     OW60109   5.307   9.276   8.979
16016SOL    HW160110   5.333   9.233   8.893
16016SOL    HW260111   5.257   9.360   8.961
16017SOL     OW60112   4.409   9.535   8.111
16017SOL    HW160113   4.398   9.477   8.192
16017SOL    HW260114   4.494   9.587   8.119
16018SOL     OW60115   4.989   9.886   8.503
16018SOL    HW160116   5.043   9.926   8.429
16018SOL    HW260117   5.027   9.915   8.591
16019SOL     OW60118   5.282   9.292   7.819
16019SOL    HW160119   5.289   9.246   7.731
16019SOL    HW260120   5.186   9.302   7.844
16020SOL     OW60121   4.881   9.830   8.221
16020SOL    HW160122   4.963   9.807   8.169
16020SOL    HW260123   4.876   9.771   8.302
16021SOL     OW60124   5.481   9.857   9.057
16021SOL    HW160125   5.470   9.943   9.006
16021SOL    HW260126   5.575   9.848   9.087
16022SOL     OW60127   5.052   9.630   8.476
16022SOL    HW160128   5.026   9.727   8.482
16022SOL    HW260129   5.052   9.590   8.568
16023SOL     OW60130   5.282   9.762   9.227
16023SOL    HW160131   5.362   9.787   9.171
16023SOL    HW260132   5.313   9.727   9.315
16024SOL     OW60133   5.300   9.518   7.601
16024SOL    HW160134   5.305   9.560   7.692
16024SOL    HW260135   5.233   9.443   7.603
16025SOL     OW60136   3.838   9.528   9.086
16025SOL    HW160137   3.856   9.517   8.988
16025SOL    HW260138   3.740   9.524   9.103
16026SOL     OW60139   3.886   9.598   8.054
16026SOL    HW160140   3.829   9.653   8.115
16026SOL    HW260141   3.956   9.550   8.107
16027SOL     OW60142   4.023   9.789   7.652
16027SOL    HW160143   4.095   9.818   7.589
16027SOL    HW260144   3.979   9.869   7.692
16028SOL     OW60145   5.409   9.451   8.755
16028SOL    HW160146   5.365   9.499   8.831
16028SOL    HW260147   5.387   9.497   8.669
16029SOL     OW60148   3.915   9.516   7.616
16029SOL    HW160149   3.959   9.485   7.533
16029SOL    HW260150   3.916   9.616   7.620
16030SOL     OW60151   3.768   9.768   8.227
16030SOL    HW160152   3.732   9.861   8.219
16030SOL    HW260153   3.851   9.769   8.283
16031SOL     OW60154   4.829   9.947   7.429
16031SOL    HW160155   4.760  10.004   7.385
16031SOL    HW260156   4.910   9.941   7.370
16032SOL     OW60157   4.564   9.866   7.572
16032SOL    HW160158   4.654   9.867   7.527
16032SOL    HW260159   4.541   9.772   7.597
16033SOL     OW60160   5.015   9.383   7.866
16033SOL    HW160161   4.925   9.367   7.907
16033SOL    HW260162   5.023   9.479   7.840
16034SOL     OW60163   5.129   9.783   8.882
16034SOL    HW160164   5.081   9.806   8.966
16034SOL    HW260165   5.063   9.753   8.813
16035SOL     OW60166   3.764   9.298   7.526
16035SOL    HW160167   3.827   9.221   7.534
16035SOL    HW260168   3.784   9.366   7.597
16036SOL     OW60169   4.318   9.886   8.549
16036SOL    HW160170   4.393   9.929   8.598
16036SOL    HW260171   4.251   9.851   8.615
16037SOL     OW60172   4.782   9.458   8.022
16037SOL    HW160173   4.841   9.518   8.077
16037SOL    HW260174   4.709   9.422   8.079
16038SOL     OW60175   4.310   9.335   8.293
16038SOL    HW160176   4.238   9.268   8.279
16038SOL    HW260177   4.392   9.289   8.328
16039SOL     OW60178   3.736  10.202   8.533
16039SOL    HW160179   3.825  10.180   8.573
16039SOL    HW260180   3.681  10.118   8.529
16040SOL     OW60181   3.964   9.247   7.813
16040SOL    HW160182   4.002   9.335   7.840
16040SOL    HW260183   3.887   9.223   7.873
16041SOL     OW60184   5.483   9.446   8.234
16041SOL    HW160185   5.438   9.428   8.321
16041SOL    HW260186   5.581   9.463   8.250
16042SOL     OW60187   4.869   9.845   7.695
16042SOL    HW160188   4.921   9.917   7.741
16042SOL    HW260189   4.882   9.852   7.597
16043SOL     OW60190   4.155   9.684   9.167
16043SOL    HW160191   4.191   9.631   9.090
16043SOL    HW260192   4.216   9.761   9.185
16044SOL     OW60193   4.219  10.101   7.739
16044SOL    HW160194   4.169  10.166   7.683
16044SOL    HW260195   4.161  10.022   7.758
16045SOL     OW60196   4.992   9.575   8.733
16045SOL    HW160197   5.063   9.547   8.797
16045SOL    HW260198   4.939   9.495   8.705
16046SOL     OW60199   3.693   9.274   7.934
16046SOL    HW160200   3.606   9.261   7.887
16046SOL    HW260201   3.701   9.369   7.964
16047SOL     OW60202   4.914   9.375   9.175
16047SOL    HW160203   4.973   9.391   9.255
16047SOL    HW260204   4.861   9.458   9.156
16048SOL     OW60205   4.736   9.794   8.491
16048SOL    HW160206   4.822   9.845   8.490
16048SOL    HW260207   4.742   9.720   8.558
16049SOL     OW60208   4.685   9.409   8.280
16049SOL    HW160209   4.781   9.410   8.308
16049SOL    HW260210   4.630   9.366   8.352
16050SOL     OW60211   5.338   9.682   8.160
16050SOL    HW160212   5.357   9.768   8.207
16050SOL    HW260213   5.406   9.613   8.188
16051SOL     OW60214   4.552   9.330   7.498
16051SOL    HW160215   4.627   9.264   7.510
16051SOL    HW260216   4.583   9.421   7.526
16052SOL     OW60217   4.231   9.759   8.110
16052SOL    HW160218   4.269   9.670   8.136
16052SOL    HW260219   4.298   9.809   8.055
16053SOL     OW60220   4.480   9.742   8.390
16053SOL    HW160221   4.572   9.770   8.417
16053SOL    HW260222   4.412   9.793   8.444
16054SOL     OW60223   3.899   9.935   8.531
16054SOL    HW160224   3.937   9.994   8.602
16054SOL    HW260225   3.882   9.988   8.449
16055SOL     OW60226   4.374   9.601   7.846
16055SOL    HW160227   4.276   9.595   7.826
16055SOL    HW260228   4.393   9.558   7.934
16056SOL     OW60229   5.294   9.284   8.105
16056SOL    HW160230   5.289   9.325   8.014
16056SOL    HW260231   5.375   9.318   8.152
16057SOL     OW60232   5.059   9.692   8.087
16057SOL    HW160233   5.058   9.684   7.988
16057SOL    HW260234   5.148   9.664   8.122
16058SOL     OW60235   4.044   9.423   9.246
16058SOL    HW160236   3.957   9.420   9.197
16058SOL    HW260237   4.095   9.505   9.218
16059SOL     OW60238   4.272   9.310   9.372
16059SOL    HW160239   4.360   9.338   9.333
16059SOL    HW260240   4.200   9.373   9.342
16060SOL     OW60241   4.408   9.856   9.776
16060SOL    HW160242   4.447   9.926   9.717
16060SOL    HW260243   4.382   9.776   9.722
16061SOL     OW60244   4.749   9.550   9.616
16061SOL    HW160245   4.774   9.644   9.637
16061SOL    HW260246   4.750   9.496   9.700
16062SOL     OW60247   4.907   9.540   9.405
16062SOL    HW160248   5.001   9.510   9.423
16062SOL    HW260249   4.855   9.540   9.491
16063SOL     OW60250   4.647   9.728   9.901
16063SOL    HW160251   4.723   9.756   9.960
16063SOL    HW260252   4.603   9.808   9.862
16064SOL     OW60253   5.465   9.861   9.497
16064SOL    HW160254   5.486   9.780   9.443
16064SOL    HW260255   5.482   9.842   9.594
16065SOL     OW60256   5.056   9.652   9.650
16065SOL    HW160257   4.993   9.710   9.598
16065SOL    HW260258   5.149   9.686   9.638
16066SOL     OW60259   5.324   9.663   9.720
16066SOL    HW160260   5.420   9.634   9.717
16066SOL    HW260261   5.285   9.641   9.809
16067SOL     OW60262   4.558   9.604   9.442
16067SOL    HW160263   4.467   9.617   9.480
16067SOL    HW260264   4.618   9.564   9.512
16068SOL     OW60265   4.616  10.234   9.799
16068SOL    HW160266   4.603  10.145   9.756
16068SOL    HW260267   4.547  10.248   9.870
16069SOL     OW60268   5.094   9.304   9.390
16069SOL    HW160269   5.174   9.244   9.387
16069SOL    HW260270   5.020   9.257   9.438
16070SOL     OW60271   5.282   9.292   9.664
16070SOL    HW160272   5.289   9.246   9.576
16070SOL    HW260273   5.186   9.302   9.689
16071SOL     OW60274   5.300   9.518   9.446
16071SOL    HW160275   5.305   9.560   9.537
16071SOL    HW260276   5.233   9.443   9.448
16072SOL     OW60277   3.915   9.516   9.461
16072SOL    HW160278   3.959   9.485   9.378
16072SOL    HW260279   3.916   9.616   9.465
16073SOL     OW60280   4.829   9.947   9.274
16073SOL    HW160281   4.760  10.004   9.230
16073SOL    HW260282   4.910   9.941   9.215
16074SOL     OW60283   4.564   9.866   9.417
16074SOL    HW160284   4.654   9.867   9.372
16074SOL    HW260285   4.541   9.772   9.442
16075SOL     OW60286   5.015   9.383   9.711
16075SOL    HW160287   4.925   9.367   9.752
16075SOL    HW260288   5.023   9.479   9.685
16076SOL     OW60289   3.764   9.298   9.371
16076SOL    HW160290   3.827   9.221   9.379
16076SOL    HW260291   3.784   9.366   9.442
16077SOL     OW60292   3.964   9.247   9.658
16077SOL    HW160293   4.002   9.335   9.685
16077SOL    HW260294   3.887   9.223   9.718
16078SOL     OW60295   5.483   9.446  10.079
16078SOL    HW160296   5.438   9.428  10.166
16078SOL    HW260297   5.581   9.463  10.095
16079SOL     OW60298   4.869   9.845   9.540
16079SOL    HW160299   4.921   9.917   9.586
16079SOL    HW260300   4.882   9.852   9.442
16080SOL     OW60301   4.219  10.101   9.584
16080SOL    HW160302   4.169  10.166   9.528
16080SOL    HW260303   4.161  10.022   9.603
16081SOL     OW60304   5.338   9.682  10.005
16081SOL    HW160305   5.357   9.768  10.052
16081SOL    HW260306   5.406   9.613  10.033
16082SOL     OW60307   4.552   9.330   9.343
16082SOL    HW160308   4.627   9.264   9.355
16082SOL    HW260309   4.583   9.421   9.371
16083SOL     OW60310   5.294   9.284   9.950
16083SOL    HW160311   5.289   9.325   9.859
16083SOL    HW260312   5.375   9.318   9.997
16084SOL     OW60313   5.059   9.692   9.932
16084SOL    HW160314   5.058   9.684   9.833
16084SOL    HW260315   5.148   9.664   9.967
16085SOL     OW60316   6.631   1.481   0.692
16085SOL    HW160317   6.722   1.515   0.715
16085SOL    HW260318   6.603   1.519   0.604
16086SOL     OW60319   7.142   1.277   0.550
16086SOL    HW160320   7.153   1.361   0.604
16086SOL    HW260321   7.232   1.240   0.527
16087SOL     OW60322   7.222   0.559   1.414
16087SOL    HW160323   7.124   0.551   1.436
16087SOL    HW260324   7.275   0.548   1.498
16088SOL     OW60325   5.889   0.196   0.019
16088SOL    HW160326   5.802   0.193  -0.030
16088SOL    HW260327   5.940   0.278  -0.009
16089SOL     OW60328   6.876   1.585   0.794
16089SOL    HW160329   6.865   1.682   0.817
16089SOL    HW260330   6.969   1.568   0.764
16090SOL     OW60331   6.754   0.096   1.352
16090SOL    HW160332   6.678   0.051   1.399
16090SOL    HW260333   6.783   0.041   1.274
16091SOL     OW60334   6.492   0.876   1.729
16091SOL    HW160335   6.457   0.851   1.639
16091SOL    HW260336   6.416   0.897   1.790
16092SOL     OW60337   6.099   1.550   0.423
16092SOL    HW160338   6.055   1.559   0.512
16092SOL    HW260339   6.170   1.480   0.427
16093SOL     OW60340   6.117   0.083   0.145
16093SOL    HW160341   6.205   0.111   0.106
16093SOL    HW260342   6.045   0.146   0.115
16094SOL     OW60343   7.087   1.068   1.528
16094SOL    HW160344   6.995   1.073   1.490
16094SOL    HW260345   7.152   1.106   1.462
16095SOL     OW60346   6.987   1.075   1.209
16095SOL    HW160347   6.912   1.064   1.274
16095SOL    HW260348   7.024   1.168   1.215
16096SOL     OW60349   6.483   1.330   1.509
16096SOL    HW160350   6.426   1.393   1.455
16096SOL    HW260351   6.516   1.256   1.450
16097SOL     OW60352   6.026   1.223   0.718
16097SOL    HW160353   5.959   1.177   0.777
16097SOL    HW260354   6.118   1.191   0.741
16098SOL     OW60355   6.253   0.629   0.549
16098SOL    HW160356   6.292   0.699   0.490
16098SOL    HW260357   6.227   0.549   0.495
16099SOL     OW60358   6.873   0.537   1.758
16099SOL    HW160359   6.969   0.541   1.784
16099SOL    HW260360   6.829   0.461   1.805
16100SOL     OW60361   5.956   1.392   0.202
16100SOL    HW160362   6.020   1.408   0.127
16100SOL    HW260363   5.980   1.450   0.280
16101SOL     OW60364   6.107   0.348   1.012
16101SOL    HW160365   6.183   0.413   1.008
16101SOL    HW260366   6.137   0.259   0.979
16102SOL     OW60367   6.390   1.719   0.607
16102SOL    HW160368   6.455   1.652   0.571
16102SOL    HW260369   6.380   1.795   0.543
16103SOL     OW60370   7.282   1.601   0.349
16103SOL    HW160371   7.378   1.575   0.342
16103SOL    HW260372   7.258   1.661   0.273
16104SOL     OW60373   7.194   0.294   1.120
16104SOL    HW160374   7.245   0.366   1.073
16104SOL    HW260375   7.099   0.321   1.129
16105SOL     OW60376   6.594   0.323   0.389
16105SOL    HW160377   6.619   0.417   0.410
16105SOL    HW260378   6.595   0.269   0.473
16106SOL     OW60379   5.718   1.036   1.574
16106SOL    HW160380   5.814   1.051   1.592
16106SOL    HW260381   5.680   0.974   1.643
16107SOL     OW60382   6.559   0.637   1.569
16107SOL    HW160383   6.592   0.554   1.616
16107SOL    HW260384   6.632   0.705   1.568
16108SOL     OW60385   7.163   1.437   0.791
16108SOL    HW160386   7.159   1.472   0.884
16108SOL    HW260387   7.222   1.496   0.735
16109SOL     OW60388   5.894   1.258   0.467
16109SOL    HW160389   5.940   1.232   0.552
16109SOL    HW260390   5.914   1.190   0.396
16110SOL     OW60391   6.752   0.313   0.178
16110SOL    HW160392   6.846   0.283   0.196
16110SOL    HW260393   6.700   0.313   0.264
16111SOL     OW60394   5.904   0.518   1.273
16111SOL    HW160395   5.894   0.431   1.225
16111SOL    HW260396   5.840   0.585   1.236
16112SOL     OW60397   6.986   0.798   1.311
16112SOL    HW160398   6.990   0.892   1.276
16112SOL    HW260399   7.079   0.767   1.333
16113SOL     OW60400   5.939   0.290   0.432
16113SOL    HW160401   5.893   0.330   0.511
16113SOL    HW260402   5.887   0.309   0.350
16114SOL     OW60403   7.067   1.817   1.344
16114SOL    HW160404   7.010   1.768   1.278
16114SOL    HW260405   7.153   1.844   1.301
16115SOL     OW60406   7.362   0.535   1.199
16115SOL    HW160407   7.419   0.617   1.201
16115SOL    HW260408   7.303   0.534   1.279
16116SOL     OW60409   7.379   1.761   1.112
16116SOL    HW160410   7.425   1.771   1.200
16116SOL    HW260411   7.446   1.764   1.039
16117SOL     OW60412   6.492   0.501   0.674
16117SOL    HW160413   6.568   0.529   0.733
16117SOL    HW260414   6.448   0.581   0.635
16118SOL     OW60415   6.727   0.965   0.191
16118SOL    HW160416   6.764   0.915   0.269
16118SOL    HW260417   6.657   0.910   0.146
16119SOL     OW60418   6.569   0.387   1.812
16119SOL    HW160419   6.632   0.392   1.889
16119SOL    HW260420   6.477   0.365   1.845
16120SOL     OW60421   7.310   0.634   0.270
16120SOL    HW160422   7.331   0.553   0.216
16120SOL    HW260423   7.327   0.615   0.367
16121SOL     OW60424   6.604   1.772   0.178
16121SOL    HW160425   6.638   1.685   0.143
16121SOL    HW260426   6.572   1.760   0.272
16122SOL     OW60427   6.285   0.039   1.710
16122SOL    HW160428   6.292  -0.055   1.677
16122SOL    HW260429   6.342   0.049   1.792
16123SOL     OW60430   7.208   0.640   0.978
16123SOL    HW160431   7.193   0.731   1.015
16123SOL    HW260432   7.278   0.593   1.032
16124SOL     OW60433   6.618   1.306   1.744
16124SOL    HW160434   6.640   1.216   1.706
16124SOL    HW260435   6.553   1.353   1.685
16125SOL     OW60436   6.908   0.012   0.854
16125SOL    HW160437   6.857   0.096   0.836
16125SOL    HW260438   6.994   0.014   0.803
16126SOL     OW60439   7.263   0.218   1.783
16126SOL    HW160440   7.240   0.239   1.878
16126SOL    HW260441   7.239   0.123   1.763
16127SOL     OW60442   5.566   0.622   0.527
16127SOL    HW160443   5.568   0.573   0.614
16127SOL    HW260444   5.568   0.721   0.545
16128SOL     OW60445   5.887   0.210   0.848
16128SOL    HW160446   5.939   0.250   0.923
16128SOL    HW260447   5.940   0.137   0.805
16129SOL     OW60448   5.871   0.258   1.182
16129SOL    HW160449   5.836   0.165   1.182
16129SOL    HW260450   5.958   0.261   1.133
16130SOL     OW60451   6.538   0.880   0.922
16130SOL    HW160452   6.564   0.960   0.868
16130SOL    HW260453   6.532   0.800   0.862
16131SOL     OW60454   7.021   1.376   1.255
16131SOL    HW160455   6.992   1.413   1.166
16131SOL    HW260456   6.943   1.376   1.317
16132SOL     OW60457   7.274   1.447   1.293
16132SOL    HW160458   7.305   1.461   1.387
16132SOL    HW260459   7.175   1.434   1.292
16133SOL     OW60460   6.543   1.134   1.319
16133SOL    HW160461   6.593   1.049   1.303
16133SOL    HW260462   6.497   1.161   1.234
16134SOL     OW60463   7.150   0.837   0.393
16134SOL    HW160464   7.218   0.771   0.360
16134SOL    HW260465   7.165   0.925   0.349
16135SOL     OW60466   6.901   0.425   0.423
16135SOL    HW160467   6.838   0.483   0.371
16135SOL    HW260468   6.994   0.459   0.411
16136SOL     OW60469   5.798   0.626   1.523
16136SOL    HW160470   5.818   0.531   1.498
16136SOL    HW260471   5.761   0.629   1.616
16137SOL     OW60472   5.680   0.281   1.413
16137SOL    HW160473   5.752   0.291   1.344
16137SOL    HW260474   5.591   0.280   1.368
16138SOL     OW60475   6.578   0.902   1.178
16138SOL    HW160476   6.572   0.888   1.079
16138SOL    HW260477   6.497   0.863   1.222
16139SOL     OW60478   7.169   0.436   0.493
16139SOL    HW160479   7.265   0.407   0.490
16139SOL    HW260480   7.130   0.414   0.582
16140SOL     OW60481   6.453   1.511   0.930
16140SOL    HW160482   6.511   1.522   0.849
16140SOL    HW260483   6.359   1.535   0.908
16141SOL     OW60484   6.514   1.322   0.150
16141SOL    HW160485   6.567   1.262   0.210
16141SOL    HW260486   6.553   1.323   0.059
16142SOL     OW60487   7.265   1.617   0.635
16142SOL    HW160488   7.232   1.710   0.654
16142SOL    HW260489   7.263   1.601   0.536
16143SOL     OW60490   6.680   0.890   0.624
16143SOL    HW160491   6.745   0.918   0.695
16143SOL    HW260492   6.601   0.951   0.626
16144SOL     OW60493   6.428   1.616   1.648
16144SOL    HW160494   6.416   1.547   1.577
16144SOL    HW260495   6.391   1.581   1.735
16145SOL     OW60496   6.872   0.930   0.827
16145SOL    HW160497   6.893   0.872   0.905
16145SOL    HW260498   6.881   1.026   0.853
16146SOL     OW60499   5.828   1.059   0.873
16146SOL    HW160500   5.751   1.121   0.866
16146SOL    HW260501   5.865   1.060   0.966
16147SOL     OW60502   6.461   1.007   0.572
16147SOL    HW160503   6.448   0.918   0.529
16147SOL    HW260504   6.392   1.021   0.643
16148SOL     OW60505   6.765   1.395   1.411
16148SOL    HW160506   6.798   1.480   1.452
16148SOL    HW260507   6.666   1.391   1.418
16149SOL     OW60508   5.572   0.312   0.475
16149SOL    HW160509   5.632   0.263   0.413
16149SOL    HW260510   5.627   0.364   0.540
16150SOL     OW60511   7.195   1.810   0.166
16150SOL    HW160512   7.285   1.854   0.168
16150SOL    HW260513   7.194   1.741   0.094
16151SOL     OW60514   6.359   0.777   1.324
16151SOL    HW160515   6.361   0.863   1.375
16151SOL    HW260516   6.416   0.709   1.371
16152SOL     OW60517   5.596   1.804   1.395
16152SOL    HW160518   5.604   1.904   1.393
16152SOL    HW260519   5.572   1.775   1.488
16153SOL     OW60520   5.899   0.541   0.928
16153SOL    HW160521   5.955   0.534   0.845
16153SOL    HW260522   5.956   0.519   1.008
16154SOL     OW60523   5.896   1.739   0.199
16154SOL    HW160524   5.988   1.769   0.174
16154SOL    HW260525   5.871   1.778   0.288
16155SOL     OW60526   6.872   1.761   1.136
16155SOL    HW160527   6.891   1.824   1.062
16155SOL    HW260528   6.880   1.667   1.103
16156SOL     OW60529   5.577   1.156   0.948
16156SOL    HW160530   5.487   1.172   0.909
16156SOL    HW260531   5.575   1.072   1.003
16157SOL     OW60532   6.328   0.061   0.398
16157SOL    HW160533   6.289   0.050   0.307
16157SOL    HW260534   6.284   0.137   0.445
16158SOL     OW60535   7.103   0.325   1.576
16158SOL    HW160536   7.042   0.403   1.573
16158SOL    HW260537   7.158   0.329   1.659
16159SOL     OW60538   6.819   0.271   0.867
16159SOL    HW160539   6.818   0.349   0.804
16159SOL    HW260540   6.862   0.298   0.953
16160SOL     OW60541   6.939   0.077   0.163
16160SOL    HW160542   7.019   0.017   0.160
16160SOL    HW260543   6.865   0.030   0.211
16161SOL     OW60544   7.152   0.049   1.597
16161SOL    HW160545   7.178   0.006   1.511
16161SOL    HW260546   7.102   0.133   1.579
16162SOL     OW60547   6.254   0.308   0.729
16162SOL    HW160548   6.243   0.250   0.810
16162SOL    HW260549   6.339   0.360   0.737
16163SOL     OW60550   6.834   0.659   1.121
16163SOL    HW160551   6.888   0.699   1.047
16163SOL    HW260552   6.872   0.688   1.209
16164SOL     OW60553   7.127   0.065   0.437
16164SOL    HW160554   7.134   0.019   0.349
16164SOL    HW260555   7.031   0.075   0.462
16165SOL     OW60556   5.640   1.402   1.106
16165SOL    HW160557   5.609   1.328   1.047
16165SOL    HW260558   5.572   1.420   1.177
16166SOL     OW60559   6.726   0.603   0.839
16166SOL    HW160560   6.808   0.580   0.787
16166SOL    HW260561   6.721   0.544   0.920
16167SOL     OW60562   7.326   0.630   1.675
16167SOL    HW160563   7.315   0.716   1.624
16167SOL    HW260564   7.420   0.621   1.705
16168SOL     OW60565   6.897   0.403   1.094
16168SOL    HW160566   6.871   0.500   1.100
16168SOL    HW260567   6.897   0.363   1.186
16169SOL     OW60568   7.127   0.535   1.845
16169SOL    HW160569   7.207   0.560   1.789
16169SOL    HW260570   7.158   0.500   1.933
16170SOL     OW60571   6.838   0.838   0.425
16170SOL    HW160572   6.784   0.836   0.509
16170SOL    HW260573   6.915   0.901   0.436
16171SOL     OW60574   7.135   0.934   0.645
16171SOL    HW160575   7.149   0.897   0.552
16171SOL    HW260576   7.046   0.904   0.679
16172SOL     OW60577   7.291   0.871   1.540
16172SOL    HW160578   7.193   0.892   1.542
16172SOL    HW260579   7.340   0.947   1.499
16173SOL     OW60580   7.145   0.291   0.219
16173SOL    HW160581   7.150   0.333   0.310
16173SOL    HW260582   7.078   0.216   0.221
16174SOL     OW60583   6.292   1.506   1.439
16174SOL    HW160584   6.229   1.584   1.446
16174SOL    HW260585   6.260   1.444   1.367
16175SOL     OW60586   5.683   0.301   1.704
16175SOL    HW160587   5.701   0.290   1.606
16175SOL    HW260588   5.585   0.297   1.721
16176SOL     OW60589   5.563   1.715   1.648
16176SOL    HW160590   5.635   1.701   1.716
16176SOL    HW260591   5.474   1.718   1.693
16177SOL     OW60592   5.731   0.371   0.672
16177SOL    HW160593   5.674   0.426   0.733
16177SOL    HW260594   5.801   0.323   0.725
16178SOL     OW60595   6.903   1.603   1.535
16178SOL    HW160596   6.856   1.671   1.590
16178SOL    HW260597   6.970   1.649   1.476
16179SOL     OW60598   7.254   0.224   1.373
16179SOL    HW160599   7.210   0.272   1.449
16179SOL    HW260600   7.232   0.270   1.287
16180SOL     OW60601   5.908   1.334   1.181
16180SOL    HW160602   5.920   1.350   1.278
16180SOL    HW260603   5.821   1.374   1.151
16181SOL     OW60604   6.792   1.538   1.827
16181SOL    HW160605   6.751   1.453   1.793
16181SOL    HW260606   6.772   1.612   1.763
16182SOL     OW60607   6.282   1.258   0.517
16182SOL    HW160608   6.325   1.189   0.459
16182SOL    HW260609   6.246   1.215   0.600
16183SOL     OW60610   5.914   0.809   0.719
16183SOL    HW160611   5.906   0.907   0.737
16183SOL    HW260612   5.998   0.775   0.760
16184SOL     OW60613   5.613   0.541   0.845
16184SOL    HW160614   5.577   0.634   0.837
16184SOL    HW260615   5.696   0.542   0.901
16185SOL     OW60616   6.048   1.128   0.231
16185SOL    HW160617   6.148   1.128   0.242
16185SOL    HW260618   6.017   1.221   0.210
16186SOL     OW60619   6.860   0.156   0.484
16186SOL    HW160620   6.770   0.140   0.525
16186SOL    HW260621   6.868   0.252   0.458
16187SOL     OW60622   6.974   0.556   1.500
16187SOL    HW160623   6.926   0.579   1.584
16187SOL    HW260624   6.908   0.526   1.431
16188SOL     OW60625   5.609   0.071   0.144
16188SOL    HW160626   5.672  -0.006   0.152
16188SOL    HW260627   5.629   0.139   0.215
16189SOL     OW60628   5.882   1.046   1.145
16189SOL    HW160629   5.893   1.001   1.234
16189SOL    HW260630   5.909   1.142   1.152
16190SOL     OW60631   7.181   1.058   0.245
16190SOL    HW160632   7.252   1.128   0.247
16190SOL    HW260633   7.168   1.028   0.150
16191SOL     OW60634   6.163   0.659   1.167
16191SOL    HW160635   6.238   0.702   1.216
16191SOL    HW260636   6.096   0.624   1.233
16192SOL     OW60637   6.698   1.049   1.644
16192SOL    HW160638   6.620   0.995   1.677
16192SOL    HW260639   6.779   1.027   1.699
16193SOL     OW60640   6.627   0.231   0.640
16193SOL    HW160641   6.686   0.291   0.695
16193SOL    HW260642   6.554   0.195   0.697
16194SOL     OW60643   6.737   1.763   1.680
16194SOL    HW160644   6.642   1.761   1.648
16194SOL    HW260645   6.758   1.854   1.717
16195SOL     OW60646   6.155   0.108   0.911
16195SOL    HW160647   6.083   0.041   0.897
16195SOL    HW260648   6.237   0.062   0.946
16196SOL     OW60649   5.855   1.773   1.278
16196SOL    HW160650   5.835   1.755   1.182
16196SOL    HW260651   5.782   1.735   1.335
16197SOL     OW60652   6.548   1.237   0.823
16197SOL    HW160653   6.587   1.280   0.742
16197SOL    HW260654   6.621   1.220   0.890
16198SOL     OW60655   6.242   0.965   1.025
16198SOL    HW160656   6.240   0.881   0.970
16198SOL    HW260657   6.191   0.951   1.110
16199SOL     OW60658   5.581   0.975   1.151
16199SOL    HW160659   5.670   0.953   1.191
16199SOL    HW260660   5.526   0.891   1.147
16200SOL     OW60661   5.809   0.020   0.431
16200SOL    HW160662   5.847   0.108   0.458
16200SOL    HW260663   5.732  -0.004   0.491
16201SOL     OW60664   6.225   0.637   1.759
16201SOL    HW160665   6.177   0.688   1.688
16201SOL    HW260666   6.318   0.616   1.729
16202SOL     OW60667   7.328   0.219   0.852
16202SOL    HW160668   7.283   0.201   0.939
16202SOL    HW260669   7.426   0.236   0.868
16203SOL     OW60670   6.376   1.195   1.104
16203SOL    HW160671   6.327   1.110   1.085
16203SOL    HW260672   6.446   1.210   1.035
16204SOL     OW60673   6.714   0.618   0.313
16204SOL    HW160674   6.766   0.690   0.359
16204SOL    HW260675   6.727   0.625   0.215
16205SOL     OW60676   7.075   1.433   1.640
16205SOL    HW160677   7.060   1.335   1.654
16205SOL    HW260678   6.992   1.475   1.604
16206SOL     OW60679   5.832   0.875   1.380
16206SOL    HW160680   5.796   0.785   1.406
16206SOL    HW260681   5.793   0.945   1.440
16207SOL     OW60682   6.334   1.501   0.038
16207SOL    HW160683   6.309   1.578   0.097
16207SOL    HW260684   6.398   1.441   0.086
16208SOL     OW60685   6.295   1.119   0.789
16208SOL    HW160686   6.384   1.165   0.789
16208SOL    HW260687   6.288   1.059   0.868
16209SOL     OW60688   6.473   1.466   0.458
16209SOL    HW160689   6.523   1.454   0.373
16209SOL    HW260690   6.419   1.383   0.477
16210SOL     OW60691   5.663   0.813   0.858
16210SOL    HW160692   5.758   0.804   0.826
16210SOL    HW260693   5.629   0.905   0.837
16211SOL     OW60694   5.600   0.930   1.785
16211SOL    HW160695   5.515   0.881   1.766
16211SOL    HW260696   5.627   0.917   1.880
16212SOL     OW60697   6.497   1.839   1.491
16212SOL    HW160698   6.469   1.752   1.532
16212SOL    HW260699   6.441   1.913   1.528
16213SOL     OW60700   6.726   1.186   1.021
16213SOL    HW160701   6.710   1.280   1.052
16213SOL    HW260702   6.729   1.125   1.101
16214SOL     OW60703   6.000   0.457   1.785
16214SOL    HW160704   6.036   0.404   1.708
16214SOL    HW260705   6.061   0.534   1.803
16215SOL     OW60706   7.145   0.905   1.055
16215SOL    HW160707   7.164   0.944   0.964
16215SOL    HW260708   7.099   0.974   1.111
16216SOL     OW60709   6.837   0.348   1.351
16216SOL    HW160710   6.908   0.320   1.415
16216SOL    HW260711   6.784   0.268   1.323
16217SOL     OW60712   5.538   0.047   0.552
16217SOL    HW160713   5.451   0.034   0.505
16217SOL    HW260714   5.546   0.142   0.582
16218SOL     OW60715   6.759   0.148   1.793
16218SOL    HW160716   6.818   0.164   1.873
16218SOL    HW260717   6.706   0.231   1.774
16219SOL     OW60718   5.975   1.567   1.618
16219SOL    HW160719   5.917   1.632   1.667
16219SOL    HW260720   6.037   1.617   1.558
16220SOL     OW60721   7.331   1.454   1.559
16220SOL    HW160722   7.359   1.547   1.581
16220SOL    HW260723   7.238   1.438   1.592
16221SOL     OW60724   6.581   0.567   1.109
16221SOL    HW160725   6.667   0.618   1.108
16221SOL    HW260726   6.587   0.493   1.176
16222SOL     OW60727   6.626   1.630   1.269
16222SOL    HW160728   6.552   1.694   1.287
16222SOL    HW260729   6.705   1.679   1.231
16223SOL     OW60730   5.835   1.760   1.768
16223SOL    HW160731   5.878   1.844   1.734
16223SOL    HW260732   5.860   1.747   1.864
16224SOL     OW60733   5.695   1.296   1.639
16224SOL    HW160734   5.674   1.201   1.612
16224SOL    HW260735   5.626   1.357   1.601
16225SOL     OW60736   6.530   0.182   0.898
16225SOL    HW160737   6.626   0.183   0.926
16225SOL    HW260738   6.475   0.139   0.970
16226SOL     OW60739   6.592   1.188   0.414
16226SOL    HW160740   6.672   1.224   0.462
16226SOL    HW260741   6.550   1.115   0.470
16227SOL     OW60742   7.183   0.455   0.778
16227SOL    HW160743   7.202   0.541   0.825
16227SOL    HW260744   7.251   0.386   0.806
16228SOL     OW60745   6.326   1.127   0.264
16228SOL    HW160746   6.398   1.186   0.229
16228SOL    HW260747   6.366   1.043   0.300
16229SOL     OW60748   6.397   0.103   0.116
16229SOL    HW160749   6.472   0.037   0.128
16229SOL    HW260750   6.428   0.194   0.144
16230SOL     OW60751   6.076   0.532   0.728
16230SOL    HW160752   6.114   0.443   0.754
16230SOL    HW260753   6.143   0.582   0.673
16231SOL     OW60754   6.064   1.090   1.382
16231SOL    HW160755   6.160   1.070   1.402
16231SOL    HW260756   6.053   1.188   1.364
16232SOL     OW60757   7.286   1.133   1.351
16232SOL    HW160758   7.300   1.231   1.365
16232SOL    HW260759   7.343   1.102   1.275
16233SOL     OW60760   6.196   1.681   0.203
16233SOL    HW160761   6.171   1.776   0.187
16233SOL    HW260762   6.163   1.653   0.293
16234SOL     OW60763   6.846   1.104   1.427
16234SOL    HW160764   6.790   1.063   1.498
16234SOL    HW260765   6.826   1.202   1.421
16235SOL     OW60766   6.113   1.720   1.427
16235SOL    HW160767   6.162   1.800   1.391
16235SOL    HW260768   6.021   1.718   1.388
16236SOL     OW60769   5.756   0.601   1.789
16236SOL    HW160770   5.773   0.502   1.794
16236SOL    HW260771   5.820   0.649   1.850
16237SOL     OW60772   7.195   1.562   1.028
16237SOL    HW160773   7.167   1.655   1.052
16237SOL    HW260774   7.245   1.521   1.104
16238SOL     OW60775   5.591   0.935   0.589
16238SOL    HW160776   5.598   1.034   0.576
16238SOL    HW260777   5.500   0.912   0.623
16239SOL     OW60778   6.100   0.733   1.527
16239SOL    HW160779   6.006   0.703   1.508
16239SOL    HW260780   6.109   0.830   1.504
16240SOL     OW60781   7.167   1.109   0.839
16240SOL    HW160782   7.129   1.198   0.812
16240SOL    HW260783   7.167   1.047   0.761
16241SOL     OW60784   6.325   0.515   1.008
16241SOL    HW160785   6.417   0.543   1.035
16241SOL    HW260786   6.257   0.566   1.062
16242SOL     OW60787   6.178   1.366   1.235
16242SOL    HW160788   6.091   1.365   1.186
16242SOL    HW260789   6.244   1.306   1.188
16243SOL     OW60790   5.744   0.708   1.149
16243SOL    HW160791   5.782   0.767   1.220
16243SOL    HW260792   5.727   0.761   1.067
16244SOL     OW60793   7.158   1.670   1.795
16244SOL    HW160794   7.127   1.592   1.740
16244SOL    HW260795   7.127   1.755   1.753
16245SOL     OW60796   6.866   1.208   0.516
16245SOL    HW160797   6.965   1.212   0.532
16245SOL    HW260798   6.849   1.194   0.418
16246SOL     OW60799   6.219   0.374   0.464
16246SOL    HW160800   6.121   0.368   0.444
16246SOL    HW260801   6.238   0.331   0.552
16247SOL     OW60802   7.139   0.057   0.723
16247SOL    HW160803   7.134   0.098   0.632
16247SOL    HW260804   7.220   0.091   0.770
16248SOL     OW60805   6.742   0.813   1.416
16248SOL    HW160806   6.841   0.822   1.406
16248SOL    HW260807   6.698   0.815   1.326
16249SOL     OW60808   6.236   0.773   0.818
16249SOL    HW160809   6.258   0.695   0.876
16249SOL    HW260810   6.245   0.747   0.722
16250SOL     OW60811   6.901   1.480   1.030
16250SOL    HW160812   6.815   1.437   1.059
16250SOL    HW260813   6.890   1.520   0.939
16251SOL     OW60814   6.904   0.465   0.705
16251SOL    HW160815   6.903   0.457   0.606
16251SOL    HW260816   6.993   0.437   0.740
16252SOL     OW60817   6.631   1.481   2.537
16252SOL    HW160818   6.722   1.515   2.560
16252SOL    HW260819   6.603   1.519   2.449
16253SOL     OW60820   7.142   1.277   2.395
16253SOL    HW160821   7.153   1.361   2.449
16253SOL    HW260822   7.232   1.240   2.372
16254SOL     OW60823   7.222   0.559   3.259
16254SOL    HW160824   7.124   0.551   3.281
16254SOL    HW260825   7.275   0.548   3.343
16255SOL     OW60826   5.889   0.196   1.864
16255SOL    HW160827   5.802   0.193   1.815
16255SOL    HW260828   5.940   0.278   1.836
16256SOL     OW60829   6.876   1.585   2.639
16256SOL    HW160830   6.865   1.682   2.662
16256SOL    HW260831   6.969   1.568   2.609
16257SOL     OW60832   6.754   0.096   3.197
16257SOL    HW160833   6.678   0.051   3.244
16257SOL    HW260834   6.783   0.041   3.119
16258SOL     OW60835   6.492   0.876   3.574
16258SOL    HW160836   6.457   0.851   3.484
16258SOL    HW260837   6.416   0.897   3.635
16259SOL     OW60838   6.099   1.550   2.268
16259SOL    HW160839   6.055   1.559   2.357
16259SOL    HW260840   6.170   1.480   2.272
16260SOL     OW60841   6.117   0.083   1.990
16260SOL    HW160842   6.205   0.111   1.951
16260SOL    HW260843   6.045   0.146   1.960
16261SOL     OW60844   7.087   1.068   3.373
16261SOL    HW160845   6.995   1.073   3.335
16261SOL    HW260846   7.152   1.106   3.307
16262SOL     OW60847   6.987   1.075   3.054
16262SOL    HW160848   6.912   1.064   3.119
16262SOL    HW260849   7.024   1.168   3.060
16263SOL     OW60850   6.483   1.330   3.354
16263SOL    HW160851   6.426   1.393   3.300
16263SOL    HW260852   6.516   1.256   3.295
16264SOL     OW60853   6.026   1.223   2.563
16264SOL    HW160854   5.959   1.177   2.622
16264SOL    HW260855   6.118   1.191   2.586
16265SOL     OW60856   6.253   0.629   2.394
16265SOL    HW160857   6.292   0.699   2.335
16265SOL    HW260858   6.227   0.549   2.340
16266SOL     OW60859   6.873   0.537   3.603
16266SOL    HW160860   6.969   0.541   3.629
16266SOL    HW260861   6.829   0.461   3.650
16267SOL     OW60862   5.956   1.392   2.047
16267SOL    HW160863   6.020   1.408   1.972
16267SOL    HW260864   5.980   1.450   2.125
16268SOL     OW60865   6.107   0.348   2.857
16268SOL    HW160866   6.183   0.413   2.853
16268SOL    HW260867   6.137   0.259   2.824
16269SOL     OW60868   5.804   0.774   2.275
16269SOL    HW160869   5.819   0.708   2.349
16269SOL    HW260870   5.754   0.853   2.310
16270SOL     OW60871   6.390   1.719   2.452
16270SOL    HW160872   6.455   1.652   2.416
16270SOL    HW260873   6.380   1.795   2.388
16271SOL     OW60874   7.282   1.601   2.194
16271SOL    HW160875   7.378   1.575   2.187
16271SOL    HW260876   7.258   1.661   2.118
16272SOL     OW60877   7.194   0.294   2.965
16272SOL    HW160878   7.245   0.366   2.918
16272SOL    HW260879   7.099   0.321   2.974
16273SOL     OW60880   6.594   0.323   2.234
16273SOL    HW160881   6.619   0.417   2.255
16273SOL    HW260882   6.595   0.269   2.318
16274SOL     OW60883   5.718   1.036   3.419
16274SOL    HW160884   5.814   1.051   3.437
16274SOL    HW260885   5.680   0.974   3.488
16275SOL     OW60886   6.044   0.681   1.962
16275SOL    HW160887   6.004   0.760   1.915
16275SOL    HW260888   6.133   0.660   1.922
16276SOL     OW60889   6.217   1.605   2.660
16276SOL    HW160890   6.290   1.628   2.596
16276SOL    HW260891   6.146   1.552   2.614
16277SOL     OW60892   6.559   0.637   3.414
16277SOL    HW160893   6.592   0.554   3.461
16277SOL    HW260894   6.632   0.705   3.413
16278SOL     OW60895   7.163   1.437   2.636
16278SOL    HW160896   7.159   1.472   2.729
16278SOL    HW260897   7.222   1.496   2.580
16279SOL     OW60898   5.894   1.258   2.312
16279SOL    HW160899   5.940   1.232   2.397
16279SOL    HW260900   5.914   1.190   2.241
16280SOL     OW60901   6.752   0.313   2.023
16280SOL    HW160902   6.846   0.283   2.041
16280SOL    HW260903   6.700   0.313   2.109
16281SOL     OW60904   5.904   0.518   3.118
16281SOL    HW160905   5.894   0.431   3.070
16281SOL    HW260906   5.840   0.585   3.081
16282SOL     OW60907   6.986   0.798   3.156
16282SOL    HW160908   6.990   0.892   3.121
16282SOL    HW260909   7.079   0.767   3.178
16283SOL     OW60910   5.939   0.290   2.277
16283SOL    HW160911   5.893   0.330   2.356
16283SOL    HW260912   5.887   0.309   2.195
16284SOL     OW60913   7.067   1.817   3.189
16284SOL    HW160914   7.010   1.768   3.123
16284SOL    HW260915   7.153   1.844   3.146
16285SOL     OW60916   7.362   0.535   3.044
16285SOL    HW160917   7.419   0.617   3.046
16285SOL    HW260918   7.303   0.534   3.124
16286SOL     OW60919   7.379   1.761   2.957
16286SOL    HW160920   7.425   1.771   3.045
16286SOL    HW260921   7.446   1.764   2.884
16287SOL     OW60922   6.492   0.501   2.519
16287SOL    HW160923   6.568   0.529   2.578
16287SOL    HW260924   6.448   0.581   2.480
16288SOL     OW60925   6.727   0.965   2.036
16288SOL    HW160926   6.764   0.915   2.114
16288SOL    HW260927   6.657   0.910   1.991
16289SOL     OW60928   6.569   0.387   3.657
16289SOL    HW160929   6.632   0.392   3.734
16289SOL    HW260930   6.477   0.365   3.690
16290SOL     OW60931   7.310   0.634   2.115
16290SOL    HW160932   7.331   0.553   2.061
16290SOL    HW260933   7.327   0.615   2.212
16291SOL     OW60934   6.604   1.772   2.023
16291SOL    HW160935   6.638   1.685   1.988
16291SOL    HW260936   6.572   1.760   2.117
16292SOL     OW60937   6.285   0.039   3.555
16292SOL    HW160938   6.292  -0.055   3.522
16292SOL    HW260939   6.342   0.049   3.637
16293SOL     OW60940   7.208   0.640   2.823
16293SOL    HW160941   7.193   0.731   2.860
16293SOL    HW260942   7.278   0.593   2.877
16294SOL     OW60943   6.618   1.306   3.589
16294SOL    HW160944   6.640   1.216   3.551
16294SOL    HW260945   6.553   1.353   3.530
16295SOL     OW60946   6.273   1.148   3.593
16295SOL    HW160947   6.244   1.225   3.650
16295SOL    HW260948   6.283   1.067   3.651
16296SOL     OW60949   6.908   0.012   2.699
16296SOL    HW160950   6.857   0.096   2.681
16296SOL    HW260951   6.994   0.014   2.648
16297SOL     OW60952   7.263   0.218   3.628
16297SOL    HW160953   7.240   0.239   3.723
16297SOL    HW260954   7.239   0.123   3.608
16298SOL     OW60955   5.566   0.622   2.372
16298SOL    HW160956   5.568   0.573   2.459
16298SOL    HW260957   5.568   0.721   2.390
16299SOL     OW60958   5.887   0.210   2.693
16299SOL    HW160959   5.939   0.250   2.768
16299SOL    HW260960   5.940   0.137   2.650
16300SOL     OW60961   5.871   0.258   3.027
16300SOL    HW160962   5.836   0.165   3.027
16300SOL    HW260963   5.958   0.261   2.978
16301SOL     OW60964   6.538   0.880   2.767
16301SOL    HW160965   6.564   0.960   2.713
16301SOL    HW260966   6.532   0.800   2.707
16302SOL     OW60967   5.739   1.507   2.226
16302SOL    HW160968   5.766   1.413   2.246
16302SOL    HW260969   5.764   1.529   2.132
16303SOL     OW60970   7.021   1.376   3.100
16303SOL    HW160971   6.992   1.413   3.011
16303SOL    HW260972   6.943   1.376   3.162
16304SOL     OW60973   5.753   1.650   2.463
16304SOL    HW160974   5.669   1.701   2.481
16304SOL    HW260975   5.744   1.599   2.378
16305SOL     OW60976   7.274   1.447   3.138
16305SOL    HW160977   7.305   1.461   3.232
16305SOL    HW260978   7.175   1.434   3.137
16306SOL     OW60979   6.543   1.134   3.164
16306SOL    HW160980   6.593   1.049   3.148
16306SOL    HW260981   6.497   1.161   3.079
16307SOL     OW60982   5.630   0.839   2.038
16307SOL    HW160983   5.690   0.786   2.098
16307SOL    HW260984   5.536   0.807   2.050
16308SOL     OW60985   7.150   0.837   2.238
16308SOL    HW160986   7.218   0.771   2.205
16308SOL    HW260987   7.165   0.925   2.194
16309SOL     OW60988   6.398   1.824   2.886
16309SOL    HW160989   6.444   1.757   2.828
16309SOL    HW260990   6.324   1.780   2.936
16310SOL     OW60991   6.305   0.893   1.922
16310SOL    HW160992   6.334   0.812   1.973
16310SOL    HW260993   6.205   0.892   1.913
16311SOL     OW60994   6.901   0.425   2.268
16311SOL    HW160995   6.838   0.483   2.216
16311SOL    HW260996   6.994   0.459   2.256
16312SOL     OW60997   5.798   0.626   3.368
16312SOL    HW160998   5.818   0.531   3.343
16312SOL    HW260999   5.761   0.629   3.461
16313SOL     OW61000   5.680   0.281   3.258
16313SOL    HW161001   5.752   0.291   3.189
16313SOL    HW261002   5.591   0.280   3.213
16314SOL     OW61003   6.578   0.902   3.023
16314SOL    HW161004   6.572   0.888   2.924
16314SOL    HW261005   6.497   0.863   3.067
16315SOL     OW61006   7.169   0.436   2.338
16315SOL    HW161007   7.265   0.407   2.335
16315SOL    HW261008   7.130   0.414   2.427
16316SOL     OW61009   6.453   1.511   2.775
16316SOL    HW161010   6.511   1.522   2.694
16316SOL    HW261011   6.359   1.535   2.753
16317SOL     OW61012   6.403   0.377   2.060
16317SOL    HW161013   6.312   0.390   2.098
16317SOL    HW261014   6.463   0.337   2.130
16318SOL     OW61015   6.514   1.322   1.995
16318SOL    HW161016   6.567   1.262   2.055
16318SOL    HW261017   6.553   1.323   1.904
16319SOL     OW61018   7.265   1.617   2.480
16319SOL    HW161019   7.232   1.710   2.499
16319SOL    HW261020   7.263   1.601   2.381
16320SOL     OW61021   6.680   0.890   2.469
16320SOL    HW161022   6.745   0.918   2.540
16320SOL    HW261023   6.601   0.951   2.471
16321SOL     OW61024   6.428   1.616   3.493
16321SOL    HW161025   6.416   1.547   3.422
16321SOL    HW261026   6.391   1.581   3.580
16322SOL     OW61027   6.872   0.930   2.672
16322SOL    HW161028   6.893   0.872   2.750
16322SOL    HW261029   6.881   1.026   2.698
16323SOL     OW61030   5.828   1.059   2.718
16323SOL    HW161031   5.751   1.121   2.711
16323SOL    HW261032   5.865   1.060   2.811
16324SOL     OW61033   6.461   1.007   2.417
16324SOL    HW161034   6.448   0.918   2.374
16324SOL    HW261035   6.392   1.021   2.488
16325SOL     OW61036   6.765   1.395   3.256
16325SOL    HW161037   6.798   1.480   3.297
16325SOL    HW261038   6.666   1.391   3.263
16326SOL     OW61039   5.572   0.312   2.320
16326SOL    HW161040   5.632   0.263   2.258
16326SOL    HW261041   5.627   0.364   2.385
16327SOL     OW61042   7.195   1.810   2.011
16327SOL    HW161043   7.285   1.854   2.013
16327SOL    HW261044   7.194   1.741   1.939
16328SOL     OW61045   6.359   0.777   3.169
16328SOL    HW161046   6.361   0.863   3.220
16328SOL    HW261047   6.416   0.709   3.216
16329SOL     OW61048   5.596   1.804   3.240
16329SOL    HW161049   5.604   1.904   3.238
16329SOL    HW261050   5.572   1.775   3.333
16330SOL     OW61051   6.377   0.823   2.234
16330SOL    HW161052   6.288   0.851   2.199
16330SOL    HW261053   6.418   0.757   2.170
16331SOL     OW61054   5.899   0.541   2.773
16331SOL    HW161055   5.955   0.534   2.690
16331SOL    HW261056   5.956   0.519   2.853
16332SOL     OW61057   5.896   1.739   2.044
16332SOL    HW161058   5.988   1.769   2.019
16332SOL    HW261059   5.871   1.778   2.133
16333SOL     OW61060   6.872   1.761   2.981
16333SOL    HW161061   6.891   1.824   2.907
16333SOL    HW261062   6.880   1.667   2.948
16334SOL     OW61063   5.577   1.156   2.793
16334SOL    HW161064   5.487   1.172   2.754
16334SOL    HW261065   5.575   1.072   2.848
16335SOL     OW61066   6.328   0.061   2.243
16335SOL    HW161067   6.289   0.050   2.152
16335SOL    HW261068   6.284   0.137   2.290
16336SOL     OW61069   5.573   1.197   2.337
16336SOL    HW161070   5.651   1.255   2.361
16336SOL    HW261071   5.592   1.148   2.252
16337SOL     OW61072   7.103   0.325   3.421
16337SOL    HW161073   7.042   0.403   3.418
16337SOL    HW261074   7.158   0.329   3.504
16338SOL     OW61075   6.819   0.271   2.712
16338SOL    HW161076   6.818   0.349   2.649
16338SOL    HW261077   6.862   0.298   2.798
16339SOL     OW61078   6.939   0.077   2.008
16339SOL    HW161079   7.019   0.017   2.005
16339SOL    HW261080   6.865   0.030   2.056
16340SOL     OW61081   7.152   0.049   3.442
16340SOL    HW161082   7.178   0.006   3.356
16340SOL    HW261083   7.102   0.133   3.424
16341SOL     OW61084   6.254   0.308   2.574
16341SOL    HW161085   6.243   0.250   2.655
16341SOL    HW261086   6.339   0.360   2.582
16342SOL     OW61087   6.834   0.659   2.966
16342SOL    HW161088   6.888   0.699   2.892
16342SOL    HW261089   6.872   0.688   3.054
16343SOL     OW61090   7.127   0.065   2.282
16343SOL    HW161091   7.134   0.019   2.194
16343SOL    HW261092   7.031   0.075   2.307
16344SOL     OW61093   6.103   1.380   3.645
16344SOL    HW161094   6.064   1.443   3.578
16344SOL    HW261095   6.186   1.420   3.685
16345SOL     OW61096   5.979   1.112   3.477
16345SOL    HW161097   5.998   1.136   3.382
16345SOL    HW261098   5.972   1.195   3.532
16346SOL     OW61099   5.640   1.402   2.951
16346SOL    HW161100   5.609   1.328   2.892
16346SOL    HW261101   5.572   1.420   3.022
16347SOL     OW61102   6.726   0.603   2.684
16347SOL    HW161103   6.808   0.580   2.632
16347SOL    HW261104   6.721   0.544   2.765
16348SOL     OW61105   7.326   0.630   3.520
16348SOL    HW161106   7.315   0.716   3.469
16348SOL    HW261107   7.420   0.621   3.550
16349SOL     OW61108   6.897   0.403   2.939
16349SOL    HW161109   6.871   0.500   2.945
16349SOL    HW261110   6.897   0.363   3.031
16350SOL     OW61111   7.127   0.535   3.690
16350SOL    HW161112   7.207   0.560   3.634
16350SOL    HW261113   7.158   0.500   3.778
16351SOL     OW61114   6.838   0.838   2.270
16351SOL    HW161115   6.784   0.836   2.354
16351SOL    HW261116   6.915   0.901   2.281
16352SOL     OW61117   7.135   0.934   2.490
16352SOL    HW161118   7.149   0.897   2.397
16352SOL    HW261119   7.046   0.904   2.524
16353SOL     OW61120   7.291   0.871   3.385
16353SOL    HW161121   7.193   0.892   3.387
16353SOL    HW261122   7.340   0.947   3.344
16354SOL     OW61123   7.145   0.291   2.064
16354SOL    HW161124   7.150   0.333   2.155
16354SOL    HW261125   7.078   0.216   2.066
16355SOL     OW61126   6.292   1.506   3.284
16355SOL    HW161127   6.229   1.584   3.291
16355SOL    HW261128   6.260   1.444   3.212
16356SOL     OW61129   5.683   0.301   3.549
16356SOL    HW161130   5.701   0.290   3.451
16356SOL    HW261131   5.585   0.297   3.566
16357SOL     OW61132   5.563   1.715   3.493
16357SOL    HW161133   5.635   1.701   3.561
16357SOL    HW261134   5.474   1.718   3.538
16358SOL     OW61135   5.731   0.371   2.517
16358SOL    HW161136   5.674   0.426   2.578
16358SOL    HW261137   5.801   0.323   2.570
16359SOL     OW61138   6.903   1.603   3.380
16359SOL    HW161139   6.856   1.671   3.435
16359SOL    HW261140   6.970   1.649   3.321
16360SOL     OW61141   5.868   0.562   2.115
16360SOL    HW161142   5.940   0.591   2.052
16360SOL    HW261143   5.824   0.642   2.155
16361SOL     OW61144   7.254   0.224   3.218
16361SOL    HW161145   7.210   0.272   3.294
16361SOL    HW261146   7.232   0.270   3.132
16362SOL     OW61147   5.983   1.825   2.581
16362SOL    HW161148   5.907   1.791   2.526
16362SOL    HW261149   6.069   1.788   2.546
16363SOL     OW61150   5.908   1.334   3.026
16363SOL    HW161151   5.920   1.350   3.123
16363SOL    HW261152   5.821   1.374   2.996
16364SOL     OW61153   6.792   1.538   3.672
16364SOL    HW161154   6.751   1.453   3.638
16364SOL    HW261155   6.772   1.612   3.608
16365SOL     OW61156   6.282   1.258   2.362
16365SOL    HW161157   6.325   1.189   2.304
16365SOL    HW261158   6.246   1.215   2.445
16366SOL     OW61159   5.914   0.809   2.564
16366SOL    HW161160   5.906   0.907   2.582
16366SOL    HW261161   5.998   0.775   2.605
16367SOL     OW61162   5.760   0.289   2.079
16367SOL    HW161163   5.804   0.258   1.996
16367SOL    HW261164   5.761   0.389   2.083
16368SOL     OW61165   5.613   0.541   2.690
16368SOL    HW161166   5.577   0.634   2.682
16368SOL    HW261167   5.696   0.542   2.746
16369SOL     OW61168   6.048   1.128   2.076
16369SOL    HW161169   6.148   1.128   2.087
16369SOL    HW261170   6.017   1.221   2.055
16370SOL     OW61171   6.674   0.720   1.892
16370SOL    HW161172   6.605   0.777   1.848
16370SOL    HW261173   6.755   0.714   1.833
16371SOL     OW61174   6.409   0.639   2.035
16371SOL    HW161175   6.499   0.640   1.990
16371SOL    HW261176   6.386   0.545   2.060
16372SOL     OW61177   6.860   0.156   2.329
16372SOL    HW161178   6.770   0.140   2.370
16372SOL    HW261179   6.868   0.252   2.303
16373SOL     OW61180   6.974   0.556   3.345
16373SOL    HW161181   6.926   0.579   3.429
16373SOL    HW261182   6.908   0.526   3.276
16374SOL     OW61183   5.609   0.071   1.989
16374SOL    HW161184   5.672  -0.006   1.997
16374SOL    HW261185   5.629   0.139   2.060
16375SOL     OW61186   5.882   1.046   2.990
16375SOL    HW161187   5.893   1.001   3.079
16375SOL    HW261188   5.909   1.142   2.997
16376SOL     OW61189   7.181   1.058   2.090
16376SOL    HW161190   7.252   1.128   2.092
16376SOL    HW261191   7.168   1.028   1.995
16377SOL     OW61192   6.163   0.659   3.012
16377SOL    HW161193   6.238   0.702   3.061
16377SOL    HW261194   6.096   0.624   3.078
16378SOL     OW61195   6.306   1.028   3.329
16378SOL    HW161196   6.375   1.080   3.279
16378SOL    HW261197   6.301   1.061   3.424
16379SOL     OW61198   6.698   1.049   3.489
16379SOL    HW161199   6.620   0.995   3.522
16379SOL    HW261200   6.779   1.027   3.544
16380SOL     OW61201   6.627   0.231   2.485
16380SOL    HW161202   6.686   0.291   2.540
16380SOL    HW261203   6.554   0.195   2.542
16381SOL     OW61204   6.737   1.763   3.525
16381SOL    HW161205   6.642   1.761   3.493
16381SOL    HW261206   6.758   1.854   3.562
16382SOL     OW61207   6.155   0.108   2.756
16382SOL    HW161208   6.083   0.041   2.742
16382SOL    HW261209   6.237   0.062   2.791
16383SOL     OW61210   5.855   1.773   3.123
16383SOL    HW161211   5.835   1.755   3.027
16383SOL    HW261212   5.782   1.735   3.180
16384SOL     OW61213   6.548   1.237   2.668
16384SOL    HW161214   6.587   1.280   2.587
16384SOL    HW261215   6.621   1.220   2.735
16385SOL     OW61216   6.242   0.965   2.870
16385SOL    HW161217   6.240   0.881   2.815
16385SOL    HW261218   6.191   0.951   2.955
16386SOL     OW61219   5.581   0.975   2.996
16386SOL    HW161220   5.670   0.953   3.036
16386SOL    HW261221   5.526   0.891   2.992
16387SOL     OW61222   5.809   0.020   2.276
16387SOL    HW161223   5.847   0.108   2.303
16387SOL    HW261224   5.732  -0.004   2.336
16388SOL     OW61225   6.225   0.637   3.604
16388SOL    HW161226   6.177   0.688   3.533
16388SOL    HW261227   6.318   0.616   3.574
16389SOL     OW61228   5.631   1.107   2.096
16389SOL    HW161229   5.621   1.010   2.075
16389SOL    HW261230   5.684   1.152   2.024
16390SOL     OW61231   7.328   0.219   2.697
16390SOL    HW161232   7.283   0.201   2.784
16390SOL    HW261233   7.426   0.236   2.713
16391SOL     OW61234   6.376   1.195   2.949
16391SOL    HW161235   6.327   1.110   2.930
16391SOL    HW261236   6.446   1.210   2.880
16392SOL     OW61237   6.714   0.618   2.158
16392SOL    HW161238   6.766   0.690   2.204
16392SOL    HW261239   6.727   0.625   2.060
16393SOL     OW61240   7.075   1.433   3.485
16393SOL    HW161241   7.060   1.335   3.499
16393SOL    HW261242   6.992   1.475   3.449
16394SOL     OW61243   5.832   0.875   3.225
16394SOL    HW161244   5.796   0.785   3.251
16394SOL    HW261245   5.793   0.945   3.285
16395SOL     OW61246   6.334   1.501   1.883
16395SOL    HW161247   6.309   1.578   1.942
16395SOL    HW261248   6.398   1.441   1.931
16396SOL     OW61249   6.152   1.708   2.917
16396SOL    HW161250   6.172   1.678   2.824
16396SOL    HW261251   6.077   1.653   2.954
16397SOL     OW61252   6.295   1.119   2.634
16397SOL    HW161253   6.384   1.165   2.634
16397SOL    HW261254   6.288   1.059   2.713
16398SOL     OW61255   6.473   1.466   2.303
16398SOL    HW161256   6.523   1.454   2.218
16398SOL    HW261257   6.419   1.383   2.322
16399SOL     OW61258   5.663   0.813   2.703
16399SOL    HW161259   5.758   0.804   2.671
16399SOL    HW261260   5.629   0.905   2.682
16400SOL     OW61261   5.600   0.930   3.630
16400SOL    HW161262   5.515   0.881   3.611
16400SOL    HW261263   5.627   0.917   3.725
16401SOL     OW61264   6.497   1.839   3.336
16401SOL    HW161265   6.469   1.752   3.377
16401SOL    HW261266   6.441   1.913   3.373
16402SOL     OW61267   6.726   1.186   2.866
16402SOL    HW161268   6.710   1.280   2.897
16402SOL    HW261269   6.729   1.125   2.946
16403SOL     OW61270   6.000   0.457   3.630
16403SOL    HW161271   6.036   0.404   3.553
16403SOL    HW261272   6.061   0.534   3.648
16404SOL     OW61273   6.064   0.874   2.202
16404SOL    HW161274   6.014   0.939   2.146
16404SOL    HW261275   6.006   0.795   2.221
16405SOL     OW61276   7.145   0.905   2.900
16405SOL    HW161277   7.164   0.944   2.809
16405SOL    HW261278   7.099   0.974   2.956
16406SOL     OW61279   6.837   0.348   3.196
16406SOL    HW161280   6.908   0.320   3.260
16406SOL    HW261281   6.784   0.268   3.168
16407SOL     OW61282   5.538   0.047   2.397
16407SOL    HW161283   5.451   0.034   2.350
16407SOL    HW261284   5.546   0.142   2.427
16408SOL     OW61285   6.759   0.148   3.638
16408SOL    HW161286   6.818   0.164   3.718
16408SOL    HW261287   6.706   0.231   3.619
16409SOL     OW61288   5.975   1.567   3.463
16409SOL    HW161289   5.917   1.632   3.512
16409SOL    HW261290   6.037   1.617   3.403
16410SOL     OW61291   7.331   1.454   3.404
16410SOL    HW161292   7.359   1.547   3.426
16410SOL    HW261293   7.238   1.438   3.437
16411SOL     OW61294   6.581   0.567   2.954
16411SOL    HW161295   6.667   0.618   2.953
16411SOL    HW261296   6.587   0.493   3.021
16412SOL     OW61297   5.985   1.513   2.526
16412SOL    HW161298   5.983   1.414   2.539
16412SOL    HW261299   5.894   1.546   2.503
16413SOL     OW61300   6.626   1.630   3.114
16413SOL    HW161301   6.552   1.694   3.132
16413SOL    HW261302   6.705   1.679   3.076
16414SOL     OW61303   5.835   1.760   3.613
16414SOL    HW161304   5.878   1.844   3.579
16414SOL    HW261305   5.860   1.747   3.709
16415SOL     OW61306   5.695   1.296   3.484
16415SOL    HW161307   5.674   1.201   3.457
16415SOL    HW261308   5.626   1.357   3.446
16416SOL     OW61309   5.784   1.661   2.888
16416SOL    HW161310   5.726   1.581   2.902
16416SOL    HW261311   5.808   1.668   2.791
16417SOL     OW61312   6.530   0.182   2.743
16417SOL    HW161313   6.626   0.183   2.771
16417SOL    HW261314   6.475   0.139   2.815
16418SOL     OW61315   6.592   1.188   2.259
16418SOL    HW161316   6.672   1.224   2.307
16418SOL    HW261317   6.550   1.115   2.315
16419SOL     OW61318   7.183   0.455   2.623
16419SOL    HW161319   7.202   0.541   2.670
16419SOL    HW261320   7.251   0.386   2.651
16420SOL     OW61321   6.326   1.127   2.109
16420SOL    HW161322   6.398   1.186   2.074
16420SOL    HW261323   6.366   1.043   2.145
16421SOL     OW61324   6.397   0.103   1.961
16421SOL    HW161325   6.472   0.037   1.973
16421SOL    HW261326   6.428   0.194   1.989
16422SOL     OW61327   6.076   0.532   2.573
16422SOL    HW161328   6.114   0.443   2.599
16422SOL    HW261329   6.143   0.582   2.518
16423SOL     OW61330   6.064   1.090   3.227
16423SOL    HW161331   6.160   1.070   3.247
16423SOL    HW261332   6.053   1.188   3.209
16424SOL     OW61333   7.286   1.133   3.196
16424SOL    HW161334   7.300   1.231   3.210
16424SOL    HW261335   7.343   1.102   3.120
16425SOL     OW61336   5.769   1.242   1.888
16425SOL    HW161337   5.761   1.254   1.789
16425SOL    HW261338   5.828   1.313   1.926
16426SOL     OW61339   6.196   1.681   2.048
16426SOL    HW161340   6.171   1.776   2.032
16426SOL    HW261341   6.163   1.653   2.138
16427SOL     OW61342   6.846   1.104   3.272
16427SOL    HW161343   6.790   1.063   3.343
16427SOL    HW261344   6.826   1.202   3.266
16428SOL     OW61345   6.113   1.720   3.272
16428SOL    HW161346   6.162   1.800   3.236
16428SOL    HW261347   6.021   1.718   3.233
16429SOL     OW61348   5.756   0.601   3.634
16429SOL    HW161349   5.773   0.502   3.639
16429SOL    HW261350   5.820   0.649   3.695
16430SOL     OW61351   7.195   1.562   2.873
16430SOL    HW161352   7.167   1.655   2.897
16430SOL    HW261353   7.245   1.521   2.949
16431SOL     OW61354   5.591   0.935   2.434
16431SOL    HW161355   5.598   1.034   2.421
16431SOL    HW261356   5.500   0.912   2.468
16432SOL     OW61357   6.100   0.733   3.372
16432SOL    HW161358   6.006   0.703   3.353
16432SOL    HW261359   6.109   0.830   3.349
16433SOL     OW61360   7.167   1.109   2.684
16433SOL    HW161361   7.129   1.198   2.657
16433SOL    HW261362   7.167   1.047   2.606
16434SOL     OW61363   6.325   0.515   2.853
16434SOL    HW161364   6.417   0.543   2.880
16434SOL    HW261365   6.257   0.566   2.907
16435SOL     OW61366   6.178   1.366   3.080
16435SOL    HW161367   6.091   1.365   3.031
16435SOL    HW261368   6.244   1.306   3.033
16436SOL     OW61369   5.744   0.708   2.994
16436SOL    HW161370   5.782   0.767   3.065
16436SOL    HW261371   5.727   0.761   2.912
16437SOL     OW61372   5.915   1.354   3.292
16437SOL    HW161373   5.934   1.442   3.336
16437SOL    HW261374   5.820   1.328   3.310
16438SOL     OW61375   7.158   1.670   3.640
16438SOL    HW161376   7.127   1.592   3.585
16438SOL    HW261377   7.127   1.755   3.598
16439SOL     OW61378   6.866   1.208   2.361
16439SOL    HW161379   6.965   1.212   2.377
16439SOL    HW261380   6.849   1.194   2.263
16440SOL     OW61381   6.219   0.374   2.309
16440SOL    HW161382   6.121   0.368   2.289
16440SOL    HW261383   6.238   0.331   2.397
16441SOL     OW61384   7.139   0.057   2.568
16441SOL    HW161385   7.134   0.098   2.477
16441SOL    HW261386   7.220   0.091   2.615
16442SOL     OW61387   6.742   0.813   3.261
16442SOL    HW161388   6.841   0.822   3.251
16442SOL    HW261389   6.698   0.815   3.171
16443SOL     OW61390   6.236   0.773   2.663
16443SOL    HW161391   6.258   0.695   2.721
16443SOL    HW261392   6.245   0.747   2.567
16444SOL     OW61393   6.901   1.480   2.875
16444SOL    HW161394   6.815   1.437   2.904
16444SOL    HW261395   6.890   1.520   2.784
16445SOL     OW61396   6.904   0.465   2.550
16445SOL    HW161397   6.903   0.457   2.451
16445SOL    HW261398   6.993   0.437   2.585
16446SOL     OW61399   6.631   1.481   4.383
16446SOL    HW161400   6.722   1.515   4.406
16446SOL    HW261401   6.603   1.519   4.295
16447SOL     OW61402   7.142   1.277   4.241
16447SOL    HW161403   7.153   1.361   4.295
16447SOL    HW261404   7.232   1.240   4.218
16448SOL     OW61405   7.222   0.559   5.105
16448SOL    HW161406   7.124   0.551   5.127
16448SOL    HW261407   7.275   0.548   5.189
16449SOL     OW61408   5.889   0.196   3.710
16449SOL    HW161409   5.802   0.193   3.661
16449SOL    HW261410   5.940   0.278   3.682
16450SOL     OW61411   6.876   1.585   4.485
16450SOL    HW161412   6.865   1.682   4.508
16450SOL    HW261413   6.969   1.568   4.455
16451SOL     OW61414   6.754   0.096   5.043
16451SOL    HW161415   6.678   0.051   5.090
16451SOL    HW261416   6.783   0.041   4.965
16452SOL     OW61417   6.492   0.876   5.420
16452SOL    HW161418   6.457   0.851   5.330
16452SOL    HW261419   6.416   0.897   5.481
16453SOL     OW61420   6.099   1.550   4.114
16453SOL    HW161421   6.055   1.559   4.203
16453SOL    HW261422   6.170   1.480   4.118
16454SOL     OW61423   6.117   0.083   3.836
16454SOL    HW161424   6.205   0.111   3.797
16454SOL    HW261425   6.045   0.146   3.806
16455SOL     OW61426   7.087   1.068   5.219
16455SOL    HW161427   6.995   1.073   5.181
16455SOL    HW261428   7.152   1.106   5.153
16456SOL     OW61429   6.987   1.075   4.900
16456SOL    HW161430   6.912   1.064   4.965
16456SOL    HW261431   7.024   1.168   4.906
16457SOL     OW61432   6.483   1.330   5.200
16457SOL    HW161433   6.426   1.393   5.146
16457SOL    HW261434   6.516   1.256   5.141
16458SOL     OW61435   6.026   1.223   4.409
16458SOL    HW161436   5.959   1.177   4.468
16458SOL    HW261437   6.118   1.191   4.432
16459SOL     OW61438   6.253   0.629   4.240
16459SOL    HW161439   6.292   0.699   4.181
16459SOL    HW261440   6.227   0.549   4.186
16460SOL     OW61441   6.873   0.537   5.449
16460SOL    HW161442   6.969   0.541   5.475
16460SOL    HW261443   6.829   0.461   5.496
16461SOL     OW61444   5.956   1.392   3.893
16461SOL    HW161445   6.020   1.408   3.818
16461SOL    HW261446   5.980   1.450   3.971
16462SOL     OW61447   6.107   0.348   4.703
16462SOL    HW161448   6.183   0.413   4.699
16462SOL    HW261449   6.137   0.259   4.670
16463SOL     OW61450   5.804   0.774   4.121
16463SOL    HW161451   5.819   0.708   4.195
16463SOL    HW261452   5.754   0.853   4.156
16464SOL     OW61453   6.390   1.719   4.298
16464SOL    HW161454   6.455   1.652   4.262
16464SOL    HW261455   6.380   1.795   4.234
16465SOL     OW61456   7.282   1.601   4.040
16465SOL    HW161457   7.378   1.575   4.033
16465SOL    HW261458   7.258   1.661   3.964
16466SOL     OW61459   7.194   0.294   4.811
16466SOL    HW161460   7.245   0.366   4.764
16466SOL    HW261461   7.099   0.321   4.820
16467SOL     OW61462   6.594   0.323   4.080
16467SOL    HW161463   6.619   0.417   4.101
16467SOL    HW261464   6.595   0.269   4.164
16468SOL     OW61465   5.718   1.036   5.265
16468SOL    HW161466   5.814   1.051   5.283
16468SOL    HW261467   5.680   0.974   5.334
16469SOL     OW61468   6.044   0.681   3.808
16469SOL    HW161469   6.004   0.760   3.761
16469SOL    HW261470   6.133   0.660   3.768
16470SOL     OW61471   6.217   1.605   4.506
16470SOL    HW161472   6.290   1.628   4.442
16470SOL    HW261473   6.146   1.552   4.460
16471SOL     OW61474   6.559   0.637   5.260
16471SOL    HW161475   6.592   0.554   5.307
16471SOL    HW261476   6.632   0.705   5.259
16472SOL     OW61477   7.163   1.437   4.482
16472SOL    HW161478   7.159   1.472   4.575
16472SOL    HW261479   7.222   1.496   4.426
16473SOL     OW61480   5.894   1.258   4.158
16473SOL    HW161481   5.940   1.232   4.243
16473SOL    HW261482   5.914   1.190   4.087
16474SOL     OW61483   6.752   0.313   3.869
16474SOL    HW161484   6.846   0.283   3.887
16474SOL    HW261485   6.700   0.313   3.955
16475SOL     OW61486   5.904   0.518   4.964
16475SOL    HW161487   5.894   0.431   4.916
16475SOL    HW261488   5.840   0.585   4.927
16476SOL     OW61489   6.986   0.798   5.002
16476SOL    HW161490   6.990   0.892   4.967
16476SOL    HW261491   7.079   0.767   5.024
16477SOL     OW61492   5.939   0.290   4.123
16477SOL    HW161493   5.893   0.330   4.202
16477SOL    HW261494   5.887   0.309   4.041
16478SOL     OW61495   7.067   1.817   5.035
16478SOL    HW161496   7.010   1.768   4.969
16478SOL    HW261497   7.153   1.844   4.992
16479SOL     OW61498   7.362   0.535   4.890
16479SOL    HW161499   7.419   0.617   4.892
16479SOL    HW261500   7.303   0.534   4.970
16480SOL     OW61501   7.379   1.761   4.803
16480SOL    HW161502   7.425   1.771   4.891
16480SOL    HW261503   7.446   1.764   4.730
16481SOL     OW61504   6.492   0.501   4.365
16481SOL    HW161505   6.568   0.529   4.424
16481SOL    HW261506   6.448   0.581   4.326
16482SOL     OW61507   6.727   0.965   3.882
16482SOL    HW161508   6.764   0.915   3.960
16482SOL    HW261509   6.657   0.910   3.837
16483SOL     OW61510   6.569   0.387   5.503
16483SOL    HW161511   6.632   0.392   5.580
16483SOL    HW261512   6.477   0.365   5.536
16484SOL     OW61513   7.310   0.634   3.961
16484SOL    HW161514   7.331   0.553   3.907
16484SOL    HW261515   7.327   0.615   4.058
16485SOL     OW61516   6.604   1.772   3.869
16485SOL    HW161517   6.638   1.685   3.834
16485SOL    HW261518   6.572   1.760   3.963
16486SOL     OW61519   6.285   0.039   5.401
16486SOL    HW161520   6.292  -0.055   5.368
16486SOL    HW261521   6.342   0.049   5.483
16487SOL     OW61522   7.208   0.640   4.669
16487SOL    HW161523   7.193   0.731   4.706
16487SOL    HW261524   7.278   0.593   4.723
16488SOL     OW61525   6.618   1.306   5.435
16488SOL    HW161526   6.640   1.216   5.397
16488SOL    HW261527   6.553   1.353   5.376
16489SOL     OW61528   6.273   1.148   5.439
16489SOL    HW161529   6.244   1.225   5.496
16489SOL    HW261530   6.283   1.067   5.497
16490SOL     OW61531   6.908   0.012   4.545
16490SOL    HW161532   6.857   0.096   4.527
16490SOL    HW261533   6.994   0.014   4.494
16491SOL     OW61534   7.263   0.218   5.474
16491SOL    HW161535   7.240   0.239   5.569
16491SOL    HW261536   7.239   0.123   5.454
16492SOL     OW61537   5.566   0.622   4.218
16492SOL    HW161538   5.568   0.573   4.305
16492SOL    HW261539   5.568   0.721   4.236
16493SOL     OW61540   5.887   0.210   4.539
16493SOL    HW161541   5.939   0.250   4.614
16493SOL    HW261542   5.940   0.137   4.496
16494SOL     OW61543   5.871   0.258   4.873
16494SOL    HW161544   5.836   0.165   4.873
16494SOL    HW261545   5.958   0.261   4.824
16495SOL     OW61546   6.538   0.880   4.613
16495SOL    HW161547   6.564   0.960   4.559
16495SOL    HW261548   6.532   0.800   4.553
16496SOL     OW61549   5.739   1.507   4.072
16496SOL    HW161550   5.766   1.413   4.092
16496SOL    HW261551   5.764   1.529   3.978
16497SOL     OW61552   7.021   1.376   4.946
16497SOL    HW161553   6.992   1.413   4.857
16497SOL    HW261554   6.943   1.376   5.008
16498SOL     OW61555   5.753   1.650   4.309
16498SOL    HW161556   5.669   1.701   4.327
16498SOL    HW261557   5.744   1.599   4.224
16499SOL     OW61558   7.274   1.447   4.984
16499SOL    HW161559   7.305   1.461   5.078
16499SOL    HW261560   7.175   1.434   4.983
16500SOL     OW61561   6.026   0.947   3.711
16500SOL    HW161562   5.995   0.981   3.623
16500SOL    HW261563   6.030   1.022   3.777
16501SOL     OW61564   6.543   1.134   5.010
16501SOL    HW161565   6.593   1.049   4.994
16501SOL    HW261566   6.497   1.161   4.925
16502SOL     OW61567   5.630   0.839   3.884
16502SOL    HW161568   5.690   0.786   3.944
16502SOL    HW261569   5.536   0.807   3.896
16503SOL     OW61570   7.150   0.837   4.084
16503SOL    HW161571   7.218   0.771   4.051
16503SOL    HW261572   7.165   0.925   4.040
16504SOL     OW61573   6.398   1.824   4.732
16504SOL    HW161574   6.444   1.757   4.674
16504SOL    HW261575   6.324   1.780   4.782
16505SOL     OW61576   6.305   0.893   3.768
16505SOL    HW161577   6.334   0.812   3.819
16505SOL    HW261578   6.205   0.892   3.759
16506SOL     OW61579   6.901   0.425   4.114
16506SOL    HW161580   6.838   0.483   4.062
16506SOL    HW261581   6.994   0.459   4.102
16507SOL     OW61582   5.798   0.626   5.214
16507SOL    HW161583   5.818   0.531   5.189
16507SOL    HW261584   5.761   0.629   5.307
16508SOL     OW61585   5.680   0.281   5.104
16508SOL    HW161586   5.752   0.291   5.035
16508SOL    HW261587   5.591   0.280   5.059
16509SOL     OW61588   6.578   0.902   4.869
16509SOL    HW161589   6.572   0.888   4.770
16509SOL    HW261590   6.497   0.863   4.913
16510SOL     OW61591   7.169   0.436   4.184
16510SOL    HW161592   7.265   0.407   4.181
16510SOL    HW261593   7.130   0.414   4.273
16511SOL     OW61594   6.453   1.511   4.621
16511SOL    HW161595   6.511   1.522   4.540
16511SOL    HW261596   6.359   1.535   4.599
16512SOL     OW61597   6.403   0.377   3.906
16512SOL    HW161598   6.312   0.390   3.944
16512SOL    HW261599   6.463   0.337   3.976
16513SOL     OW61600   6.514   1.322   3.841
16513SOL    HW161601   6.567   1.262   3.901
16513SOL    HW261602   6.553   1.323   3.750
16514SOL     OW61603   7.265   1.617   4.326
16514SOL    HW161604   7.232   1.710   4.345
16514SOL    HW261605   7.263   1.601   4.227
16515SOL     OW61606   6.680   0.890   4.315
16515SOL    HW161607   6.745   0.918   4.386
16515SOL    HW261608   6.601   0.951   4.317
16516SOL     OW61609   6.428   1.616   5.339
16516SOL    HW161610   6.416   1.547   5.268
16516SOL    HW261611   6.391   1.581   5.426
16517SOL     OW61612   6.872   0.930   4.518
16517SOL    HW161613   6.893   0.872   4.596
16517SOL    HW261614   6.881   1.026   4.544
16518SOL     OW61615   5.828   1.059   4.564
16518SOL    HW161616   5.751   1.121   4.557
16518SOL    HW261617   5.865   1.060   4.657
16519SOL     OW61618   6.461   1.007   4.263
16519SOL    HW161619   6.448   0.918   4.220
16519SOL    HW261620   6.392   1.021   4.334
16520SOL     OW61621   5.572   0.312   4.166
16520SOL    HW161622   5.632   0.263   4.104
16520SOL    HW261623   5.627   0.364   4.231
16521SOL     OW61624   7.195   1.810   3.857
16521SOL    HW161625   7.285   1.854   3.859
16521SOL    HW261626   7.194   1.741   3.785
16522SOL     OW61627   6.359   0.777   5.015
16522SOL    HW161628   6.361   0.863   5.066
16522SOL    HW261629   6.416   0.709   5.062
16523SOL     OW61630   5.596   1.804   5.086
16523SOL    HW161631   5.604   1.904   5.084
16523SOL    HW261632   5.572   1.775   5.179
16524SOL     OW61633   6.377   0.823   4.080
16524SOL    HW161634   6.288   0.851   4.045
16524SOL    HW261635   6.418   0.757   4.016
16525SOL     OW61636   5.899   0.541   4.619
16525SOL    HW161637   5.955   0.534   4.536
16525SOL    HW261638   5.956   0.519   4.699
16526SOL     OW61639   5.896   1.739   3.890
16526SOL    HW161640   5.988   1.769   3.865
16526SOL    HW261641   5.871   1.778   3.979
16527SOL     OW61642   6.872   1.761   4.827
16527SOL    HW161643   6.891   1.824   4.753
16527SOL    HW261644   6.880   1.667   4.794
16528SOL     OW61645   5.577   1.156   4.639
16528SOL    HW161646   5.487   1.172   4.600
16528SOL    HW261647   5.575   1.072   4.694
16529SOL     OW61648   6.328   0.061   4.089
16529SOL    HW161649   6.289   0.050   3.998
16529SOL    HW261650   6.284   0.137   4.136
16530SOL     OW61651   5.573   1.197   4.183
16530SOL    HW161652   5.651   1.255   4.207
16530SOL    HW261653   5.592   1.148   4.098
16531SOL     OW61654   7.103   0.325   5.267
16531SOL    HW161655   7.042   0.403   5.264
16531SOL    HW261656   7.158   0.329   5.350
16532SOL     OW61657   6.819   0.271   4.558
16532SOL    HW161658   6.818   0.349   4.495
16532SOL    HW261659   6.862   0.298   4.644
16533SOL     OW61660   6.939   0.077   3.854
16533SOL    HW161661   7.019   0.017   3.851
16533SOL    HW261662   6.865   0.030   3.902
16534SOL     OW61663   7.152   0.049   5.288
16534SOL    HW161664   7.178   0.006   5.202
16534SOL    HW261665   7.102   0.133   5.270
16535SOL     OW61666   6.254   0.308   4.420
16535SOL    HW161667   6.243   0.250   4.501
16535SOL    HW261668   6.339   0.360   4.428
16536SOL     OW61669   6.834   0.659   4.812
16536SOL    HW161670   6.888   0.699   4.738
16536SOL    HW261671   6.872   0.688   4.900
16537SOL     OW61672   7.127   0.065   4.128
16537SOL    HW161673   7.134   0.019   4.040
16537SOL    HW261674   7.031   0.075   4.153
16538SOL     OW61675   6.103   1.380   5.491
16538SOL    HW161676   6.064   1.443   5.424
16538SOL    HW261677   6.186   1.420   5.531
16539SOL     OW61678   5.979   1.112   5.323
16539SOL    HW161679   5.998   1.136   5.228
16539SOL    HW261680   5.972   1.195   5.378
16540SOL     OW61681   5.640   1.402   4.797
16540SOL    HW161682   5.609   1.328   4.738
16540SOL    HW261683   5.572   1.420   4.868
16541SOL     OW61684   6.726   0.603   4.530
16541SOL    HW161685   6.808   0.580   4.478
16541SOL    HW261686   6.721   0.544   4.611
16542SOL     OW61687   7.326   0.630   5.366
16542SOL    HW161688   7.315   0.716   5.315
16542SOL    HW261689   7.420   0.621   5.396
16543SOL     OW61690   6.897   0.403   4.785
16543SOL    HW161691   6.871   0.500   4.791
16543SOL    HW261692   6.897   0.363   4.877
16544SOL     OW61693   7.127   0.535   5.536
16544SOL    HW161694   7.207   0.560   5.480
16544SOL    HW261695   7.158   0.500   5.624
16545SOL     OW61696   6.838   0.838   4.116
16545SOL    HW161697   6.784   0.836   4.200
16545SOL    HW261698   6.915   0.901   4.127
16546SOL     OW61699   7.135   0.934   4.336
16546SOL    HW161700   7.149   0.897   4.243
16546SOL    HW261701   7.046   0.904   4.370
16547SOL     OW61702   7.291   0.871   5.231
16547SOL    HW161703   7.193   0.892   5.233
16547SOL    HW261704   7.340   0.947   5.190
16548SOL     OW61705   7.145   0.291   3.910
16548SOL    HW161706   7.150   0.333   4.001
16548SOL    HW261707   7.078   0.216   3.912
16549SOL     OW61708   6.292   1.506   5.130
16549SOL    HW161709   6.229   1.584   5.137
16549SOL    HW261710   6.260   1.444   5.058
16550SOL     OW61711   5.683   0.301   5.395
16550SOL    HW161712   5.701   0.290   5.297
16550SOL    HW261713   5.585   0.297   5.412
16551SOL     OW61714   5.563   1.715   5.339
16551SOL    HW161715   5.635   1.701   5.407
16551SOL    HW261716   5.474   1.718   5.384
16552SOL     OW61717   5.731   0.371   4.363
16552SOL    HW161718   5.674   0.426   4.424
16552SOL    HW261719   5.801   0.323   4.416
16553SOL     OW61720   5.868   0.562   3.961
16553SOL    HW161721   5.940   0.591   3.898
16553SOL    HW261722   5.824   0.642   4.001
16554SOL     OW61723   7.254   0.224   5.064
16554SOL    HW161724   7.210   0.272   5.140
16554SOL    HW261725   7.232   0.270   4.978
16555SOL     OW61726   5.983   1.825   4.427
16555SOL    HW161727   5.907   1.791   4.372
16555SOL    HW261728   6.069   1.788   4.392
16556SOL     OW61729   5.908   1.334   4.872
16556SOL    HW161730   5.920   1.350   4.969
16556SOL    HW261731   5.821   1.374   4.842
16557SOL     OW61732   6.792   1.538   5.518
16557SOL    HW161733   6.751   1.453   5.484
16557SOL    HW261734   6.772   1.612   5.454
16558SOL     OW61735   6.282   1.258   4.208
16558SOL    HW161736   6.325   1.189   4.150
16558SOL    HW261737   6.246   1.215   4.291
16559SOL     OW61738   5.914   0.809   4.410
16559SOL    HW161739   5.906   0.907   4.428
16559SOL    HW261740   5.998   0.775   4.451
16560SOL     OW61741   5.760   0.289   3.925
16560SOL    HW161742   5.804   0.258   3.842
16560SOL    HW261743   5.761   0.389   3.929
16561SOL     OW61744   5.613   0.541   4.536
16561SOL    HW161745   5.577   0.634   4.528
16561SOL    HW261746   5.696   0.542   4.592
16562SOL     OW61747   6.048   1.128   3.922
16562SOL    HW161748   6.148   1.128   3.933
16562SOL    HW261749   6.017   1.221   3.901
16563SOL     OW61750   6.674   0.720   3.738
16563SOL    HW161751   6.605   0.777   3.694
16563SOL    HW261752   6.755   0.714   3.679
16564SOL     OW61753   6.409   0.639   3.881
16564SOL    HW161754   6.499   0.640   3.836
16564SOL    HW261755   6.386   0.545   3.906
16565SOL     OW61756   6.860   0.156   4.175
16565SOL    HW161757   6.770   0.140   4.216
16565SOL    HW261758   6.868   0.252   4.149
16566SOL     OW61759   6.974   0.556   5.191
16566SOL    HW161760   6.926   0.579   5.275
16566SOL    HW261761   6.908   0.526   5.122
16567SOL     OW61762   5.609   0.071   3.835
16567SOL    HW161763   5.672  -0.006   3.843
16567SOL    HW261764   5.629   0.139   3.906
16568SOL     OW61765   5.882   1.046   4.836
16568SOL    HW161766   5.893   1.001   4.925
16568SOL    HW261767   5.909   1.142   4.843
16569SOL     OW61768   7.181   1.058   3.936
16569SOL    HW161769   7.252   1.128   3.938
16569SOL    HW261770   7.168   1.028   3.841
16570SOL     OW61771   6.163   0.659   4.858
16570SOL    HW161772   6.238   0.702   4.907
16570SOL    HW261773   6.096   0.624   4.924
16571SOL     OW61774   6.306   1.028   5.175
16571SOL    HW161775   6.375   1.080   5.125
16571SOL    HW261776   6.301   1.061   5.270
16572SOL     OW61777   6.698   1.049   5.335
16572SOL    HW161778   6.620   0.995   5.368
16572SOL    HW261779   6.779   1.027   5.390
16573SOL     OW61780   6.627   0.231   4.331
16573SOL    HW161781   6.686   0.291   4.386
16573SOL    HW261782   6.554   0.195   4.388
16574SOL     OW61783   6.737   1.763   5.371
16574SOL    HW161784   6.642   1.761   5.339
16574SOL    HW261785   6.758   1.854   5.408
16575SOL     OW61786   6.155   0.108   4.602
16575SOL    HW161787   6.083   0.041   4.588
16575SOL    HW261788   6.237   0.062   4.637
16576SOL     OW61789   5.855   1.773   4.969
16576SOL    HW161790   5.835   1.755   4.873
16576SOL    HW261791   5.782   1.735   5.026
16577SOL     OW61792   6.548   1.237   4.514
16577SOL    HW161793   6.587   1.280   4.433
16577SOL    HW261794   6.621   1.220   4.581
16578SOL     OW61795   6.242   0.965   4.716
16578SOL    HW161796   6.240   0.881   4.661
16578SOL    HW261797   6.191   0.951   4.801
16579SOL     OW61798   5.581   0.975   4.842
16579SOL    HW161799   5.670   0.953   4.882
16579SOL    HW261800   5.526   0.891   4.838
16580SOL     OW61801   5.809   0.020   4.122
16580SOL    HW161802   5.847   0.108   4.149
16580SOL    HW261803   5.732  -0.004   4.182
16581SOL     OW61804   6.225   0.637   5.450
16581SOL    HW161805   6.177   0.688   5.379
16581SOL    HW261806   6.318   0.616   5.420
16582SOL     OW61807   5.631   1.107   3.942
16582SOL    HW161808   5.621   1.010   3.921
16582SOL    HW261809   5.684   1.152   3.870
16583SOL     OW61810   7.328   0.219   4.543
16583SOL    HW161811   7.283   0.201   4.630
16583SOL    HW261812   7.426   0.236   4.559
16584SOL     OW61813   6.376   1.195   4.795
16584SOL    HW161814   6.327   1.110   4.776
16584SOL    HW261815   6.446   1.210   4.726
16585SOL     OW61816   6.714   0.618   4.004
16585SOL    HW161817   6.766   0.690   4.050
16585SOL    HW261818   6.727   0.625   3.906
16586SOL     OW61819   5.832   0.875   5.071
16586SOL    HW161820   5.796   0.785   5.097
16586SOL    HW261821   5.793   0.945   5.131
16587SOL     OW61822   6.334   1.501   3.729
16587SOL    HW161823   6.309   1.578   3.788
16587SOL    HW261824   6.398   1.441   3.777
16588SOL     OW61825   6.152   1.708   4.763
16588SOL    HW161826   6.172   1.678   4.670
16588SOL    HW261827   6.077   1.653   4.800
16589SOL     OW61828   6.295   1.119   4.480
16589SOL    HW161829   6.384   1.165   4.480
16589SOL    HW261830   6.288   1.059   4.559
16590SOL     OW61831   6.473   1.466   4.149
16590SOL    HW161832   6.523   1.454   4.064
16590SOL    HW261833   6.419   1.383   4.168
16591SOL     OW61834   5.663   0.813   4.549
16591SOL    HW161835   5.758   0.804   4.517
16591SOL    HW261836   5.629   0.905   4.528
16592SOL     OW61837   5.600   0.930   5.476
16592SOL    HW161838   5.515   0.881   5.457
16592SOL    HW261839   5.627   0.917   5.571
16593SOL     OW61840   6.497   1.839   5.182
16593SOL    HW161841   6.469   1.752   5.223
16593SOL    HW261842   6.441   1.913   5.219
16594SOL     OW61843   6.726   1.186   4.712
16594SOL    HW161844   6.710   1.280   4.743
16594SOL    HW261845   6.729   1.125   4.792
16595SOL     OW61846   6.000   0.457   5.476
16595SOL    HW161847   6.036   0.404   5.399
16595SOL    HW261848   6.061   0.534   5.494
16596SOL     OW61849   6.064   0.874   4.048
16596SOL    HW161850   6.014   0.939   3.992
16596SOL    HW261851   6.006   0.795   4.067
16597SOL     OW61852   7.145   0.905   4.746
16597SOL    HW161853   7.164   0.944   4.655
16597SOL    HW261854   7.099   0.974   4.802
16598SOL     OW61855   6.837   0.348   5.042
16598SOL    HW161856   6.908   0.320   5.106
16598SOL    HW261857   6.784   0.268   5.014
16599SOL     OW61858   5.538   0.047   4.243
16599SOL    HW161859   5.451   0.034   4.196
16599SOL    HW261860   5.546   0.142   4.273
16600SOL     OW61861   6.759   0.148   5.484
16600SOL    HW161862   6.818   0.164   5.564
16600SOL    HW261863   6.706   0.231   5.465
16601SOL     OW61864   5.975   1.567   5.309
16601SOL    HW161865   5.917   1.632   5.358
16601SOL    HW261866   6.037   1.617   5.249
16602SOL     OW61867   7.331   1.454   5.250
16602SOL    HW161868   7.359   1.547   5.272
16602SOL    HW261869   7.238   1.438   5.283
16603SOL     OW61870   6.581   0.567   4.800
16603SOL    HW161871   6.667   0.618   4.799
16603SOL    HW261872   6.587   0.493   4.867
16604SOL     OW61873   5.985   1.513   4.372
16604SOL    HW161874   5.983   1.414   4.385
16604SOL    HW261875   5.894   1.546   4.349
16605SOL     OW61876   5.835   1.760   5.459
16605SOL    HW161877   5.878   1.844   5.425
16605SOL    HW261878   5.860   1.747   5.555
16606SOL     OW61879   5.695   1.296   5.330
16606SOL    HW161880   5.674   1.201   5.303
16606SOL    HW261881   5.626   1.357   5.292
16607SOL     OW61882   5.784   1.661   4.734
16607SOL    HW161883   5.726   1.581   4.748
16607SOL    HW261884   5.808   1.668   4.637
16608SOL     OW61885   6.530   0.182   4.589
16608SOL    HW161886   6.626   0.183   4.617
16608SOL    HW261887   6.475   0.139   4.661
16609SOL     OW61888   6.592   1.188   4.105
16609SOL    HW161889   6.672   1.224   4.153
16609SOL    HW261890   6.550   1.115   4.161
16610SOL     OW61891   7.183   0.455   4.469
16610SOL    HW161892   7.202   0.541   4.516
16610SOL    HW261893   7.251   0.386   4.497
16611SOL     OW61894   6.326   1.127   3.955
16611SOL    HW161895   6.398   1.186   3.920
16611SOL    HW261896   6.366   1.043   3.991
16612SOL     OW61897   6.397   0.103   3.807
16612SOL    HW161898   6.472   0.037   3.819
16612SOL    HW261899   6.428   0.194   3.835
16613SOL     OW61900   6.076   0.532   4.419
16613SOL    HW161901   6.114   0.443   4.445
16613SOL    HW261902   6.143   0.582   4.364
16614SOL     OW61903   6.064   1.090   5.073
16614SOL    HW161904   6.160   1.070   5.093
16614SOL    HW261905   6.053   1.188   5.055
16615SOL     OW61906   7.286   1.133   5.042
16615SOL    HW161907   7.300   1.231   5.056
16615SOL    HW261908   7.343   1.102   4.966
16616SOL     OW61909   5.769   1.242   3.734
16616SOL    HW161910   5.761   1.254   3.635
16616SOL    HW261911   5.828   1.313   3.772
16617SOL     OW61912   6.196   1.681   3.894
16617SOL    HW161913   6.171   1.776   3.878
16617SOL    HW261914   6.163   1.653   3.984
16618SOL     OW61915   6.846   1.104   5.118
16618SOL    HW161916   6.790   1.063   5.189
16618SOL    HW261917   6.826   1.202   5.112
16619SOL     OW61918   6.113   1.720   5.118
16619SOL    HW161919   6.162   1.800   5.082
16619SOL    HW261920   6.021   1.718   5.079
16620SOL     OW61921   5.756   0.601   5.480
16620SOL    HW161922   5.773   0.502   5.485
16620SOL    HW261923   5.820   0.649   5.541
16621SOL     OW61924   7.195   1.562   4.719
16621SOL    HW161925   7.167   1.655   4.743
16621SOL    HW261926   7.245   1.521   4.795
16622SOL     OW61927   5.591   0.935   4.280
16622SOL    HW161928   5.598   1.034   4.267
16622SOL    HW261929   5.500   0.912   4.314
16623SOL     OW61930   6.100   0.733   5.218
16623SOL    HW161931   6.006   0.703   5.199
16623SOL    HW261932   6.109   0.830   5.195
16624SOL     OW61933   7.167   1.109   4.530
16624SOL    HW161934   7.129   1.198   4.503
16624SOL    HW261935   7.167   1.047   4.452
16625SOL     OW61936   6.325   0.515   4.699
16625SOL    HW161937   6.417   0.543   4.726
16625SOL    HW261938   6.257   0.566   4.753
16626SOL     OW61939   6.178   1.366   4.926
16626SOL    HW161940   6.091   1.365   4.877
16626SOL    HW261941   6.244   1.306   4.879
16627SOL     OW61942   5.744   0.708   4.840
16627SOL    HW161943   5.782   0.767   4.911
16627SOL    HW261944   5.727   0.761   4.758
16628SOL     OW61945   5.915   1.354   5.138
16628SOL    HW161946   5.934   1.442   5.182
16628SOL    HW261947   5.820   1.328   5.156
16629SOL     OW61948   7.158   1.670   5.486
16629SOL    HW161949   7.127   1.592   5.431
16629SOL    HW261950   7.127   1.755   5.444
16630SOL     OW61951   6.866   1.208   4.207
16630SOL    HW161952   6.965   1.212   4.223
16630SOL    HW261953   6.849   1.194   4.109
16631SOL     OW61954   6.219   0.374   4.155
16631SOL    HW161955   6.121   0.368   4.135
16631SOL    HW261956   6.238   0.331   4.243
16632SOL     OW61957   7.139   0.057   4.414
16632SOL    HW161958   7.134   0.098   4.323
16632SOL    HW261959   7.220   0.091   4.461
16633SOL     OW61960   6.742   0.813   5.107
16633SOL    HW161961   6.841   0.822   5.097
16633SOL    HW261962   6.698   0.815   5.017
16634SOL     OW61963   6.236   0.773   4.509
16634SOL    HW161964   6.258   0.695   4.567
16634SOL    HW261965   6.245   0.747   4.413
16635SOL     OW61966   6.901   1.480   4.721
16635SOL    HW161967   6.815   1.437   4.750
16635SOL    HW261968   6.890   1.520   4.630
16636SOL     OW61969   6.904   0.465   4.396
16636SOL    HW161970   6.903   0.457   4.297
16636SOL    HW261971   6.993   0.437   4.431
16637SOL     OW61972   6.631   1.481   6.228
16637SOL    HW161973   6.722   1.515   6.251
16637SOL    HW261974   6.603   1.519   6.140
16638SOL     OW61975   7.142   1.277   6.086
16638SOL    HW161976   7.153   1.361   6.140
16638SOL    HW261977   7.232   1.240   6.063
16639SOL     OW61978   7.222   0.559   6.950
16639SOL    HW161979   7.124   0.551   6.972
16639SOL    HW261980   7.275   0.548   7.034
16640SOL     OW61981   5.889   0.196   5.555
16640SOL    HW161982   5.802   0.193   5.506
16640SOL    HW261983   5.940   0.278   5.527
16641SOL     OW61984   6.876   1.585   6.330
16641SOL    HW161985   6.865   1.682   6.353
16641SOL    HW261986   6.969   1.568   6.300
16642SOL     OW61987   6.754   0.096   6.888
16642SOL    HW161988   6.678   0.051   6.935
16642SOL    HW261989   6.783   0.041   6.810
16643SOL     OW61990   6.492   0.876   7.265
16643SOL    HW161991   6.457   0.851   7.175
16643SOL    HW261992   6.416   0.897   7.326
16644SOL     OW61993   6.117   0.083   5.681
16644SOL    HW161994   6.205   0.111   5.642
16644SOL    HW261995   6.045   0.146   5.651
16645SOL     OW61996   7.087   1.068   7.064
16645SOL    HW161997   6.995   1.073   7.026
16645SOL    HW261998   7.152   1.106   6.998
16646SOL     OW61999   6.987   1.075   6.745
16646SOL    HW162000   6.912   1.064   6.810
16646SOL    HW262001   7.024   1.168   6.751
16647SOL     OW62002   6.483   1.330   7.045
16647SOL    HW162003   6.426   1.393   6.991
16647SOL    HW262004   6.516   1.256   6.986
16648SOL     OW62005   6.026   1.223   6.254
16648SOL    HW162006   5.959   1.177   6.313
16648SOL    HW262007   6.118   1.191   6.277
16649SOL     OW62008   6.873   0.537   7.294
16649SOL    HW162009   6.969   0.541   7.320
16649SOL    HW262010   6.829   0.461   7.341
16650SOL     OW62011   5.804   0.774   5.966
16650SOL    HW162012   5.819   0.708   6.040
16650SOL    HW262013   5.754   0.853   6.001
16651SOL     OW62014   6.390   1.719   6.143
16651SOL    HW162015   6.455   1.652   6.107
16651SOL    HW262016   6.380   1.795   6.079
16652SOL     OW62017   7.282   1.601   5.885
16652SOL    HW162018   7.378   1.575   5.878
16652SOL    HW262019   7.258   1.661   5.809
16653SOL     OW62020   7.194   0.294   6.656
16653SOL    HW162021   7.245   0.366   6.609
16653SOL    HW262022   7.099   0.321   6.665
16654SOL     OW62023   5.718   1.036   7.110
16654SOL    HW162024   5.814   1.051   7.128
16654SOL    HW262025   5.680   0.974   7.179
16655SOL     OW62026   6.044   0.681   5.653
16655SOL    HW162027   6.004   0.760   5.606
16655SOL    HW262028   6.133   0.660   5.613
16656SOL     OW62029   7.163   1.437   6.327
16656SOL    HW162030   7.159   1.472   6.420
16656SOL    HW262031   7.222   1.496   6.271
16657SOL     OW62032   6.752   0.313   5.714
16657SOL    HW162033   6.846   0.283   5.732
16657SOL    HW262034   6.700   0.313   5.800
16658SOL     OW62035   6.986   0.798   6.847
16658SOL    HW162036   6.990   0.892   6.812
16658SOL    HW262037   7.079   0.767   6.869
16659SOL     OW62038   5.939   0.290   5.968
16659SOL    HW162039   5.893   0.330   6.047
16659SOL    HW262040   5.887   0.309   5.886
16660SOL     OW62041   7.067   1.817   6.880
16660SOL    HW162042   7.010   1.768   6.814
16660SOL    HW262043   7.153   1.844   6.837
16661SOL     OW62044   7.362   0.535   6.735
16661SOL    HW162045   7.419   0.617   6.737
16661SOL    HW262046   7.303   0.534   6.815
16662SOL     OW62047   7.379   1.761   6.648
16662SOL    HW162048   7.425   1.771   6.736
16662SOL    HW262049   7.446   1.764   6.575
16663SOL     OW62050   6.727   0.965   5.727
16663SOL    HW162051   6.764   0.915   5.805
16663SOL    HW262052   6.657   0.910   5.682
16664SOL     OW62053   6.569   0.387   7.348
16664SOL    HW162054   6.632   0.392   7.425
16664SOL    HW262055   6.477   0.365   7.381
16665SOL     OW62056   6.604   1.772   5.714
16665SOL    HW162057   6.638   1.685   5.679
16665SOL    HW262058   6.572   1.760   5.808
16666SOL     OW62059   6.285   0.039   7.246
16666SOL    HW162060   6.292  -0.055   7.213
16666SOL    HW262061   6.342   0.049   7.328
16667SOL     OW62062   7.208   0.640   6.514
16667SOL    HW162063   7.193   0.731   6.551
16667SOL    HW262064   7.278   0.593   6.568
16668SOL     OW62065   6.908   0.012   6.390
16668SOL    HW162066   6.857   0.096   6.372
16668SOL    HW262067   6.994   0.014   6.339
16669SOL     OW62068   7.263   0.218   7.319
16669SOL    HW162069   7.240   0.239   7.414
16669SOL    HW262070   7.239   0.123   7.299
16670SOL     OW62071   5.566   0.622   6.063
16670SOL    HW162072   5.568   0.573   6.150
16670SOL    HW262073   5.568   0.721   6.081
16671SOL     OW62074   5.887   0.210   6.384
16671SOL    HW162075   5.939   0.250   6.459
16671SOL    HW262076   5.940   0.137   6.341
16672SOL     OW62077   5.871   0.258   6.718
16672SOL    HW162078   5.836   0.165   6.718
16672SOL    HW262079   5.958   0.261   6.669
16673SOL     OW62080   6.538   0.880   6.458
16673SOL    HW162081   6.564   0.960   6.404
16673SOL    HW262082   6.532   0.800   6.398
16674SOL     OW62083   7.021   1.376   6.791
16674SOL    HW162084   6.992   1.413   6.702
16674SOL    HW262085   6.943   1.376   6.853
16675SOL     OW62086   7.274   1.447   6.829
16675SOL    HW162087   7.305   1.461   6.923
16675SOL    HW262088   7.175   1.434   6.828
16676SOL     OW62089   6.026   0.947   5.556
16676SOL    HW162090   5.995   0.981   5.468
16676SOL    HW262091   6.030   1.022   5.622
16677SOL     OW62092   6.543   1.134   6.855
16677SOL    HW162093   6.593   1.049   6.839
16677SOL    HW262094   6.497   1.161   6.770
16678SOL     OW62095   5.630   0.839   5.729
16678SOL    HW162096   5.690   0.786   5.789
16678SOL    HW262097   5.536   0.807   5.741
16679SOL     OW62098   6.398   1.824   6.577
16679SOL    HW162099   6.444   1.757   6.519
16679SOL    HW262100   6.324   1.780   6.627
16680SOL     OW62101   6.305   0.893   5.613
16680SOL    HW162102   6.334   0.812   5.664
16680SOL    HW262103   6.205   0.892   5.604
16681SOL     OW62104   5.680   0.281   6.949
16681SOL    HW162105   5.752   0.291   6.880
16681SOL    HW262106   5.591   0.280   6.904
16682SOL     OW62107   6.578   0.902   6.714
16682SOL    HW162108   6.572   0.888   6.615
16682SOL    HW262109   6.497   0.863   6.758
16683SOL     OW62110   7.169   0.436   6.029
16683SOL    HW162111   7.265   0.407   6.026
16683SOL    HW262112   7.130   0.414   6.118
16684SOL     OW62113   6.453   1.511   6.466
16684SOL    HW162114   6.511   1.522   6.385
16684SOL    HW262115   6.359   1.535   6.444
16685SOL     OW62116   6.403   0.377   5.751
16685SOL    HW162117   6.312   0.390   5.789
16685SOL    HW262118   6.463   0.337   5.821
16686SOL     OW62119   6.514   1.322   5.686
16686SOL    HW162120   6.567   1.262   5.746
16686SOL    HW262121   6.553   1.323   5.595
16687SOL     OW62122   7.265   1.617   6.171
16687SOL    HW162123   7.232   1.710   6.190
16687SOL    HW262124   7.263   1.601   6.072
16688SOL     OW62125   6.680   0.890   6.160
16688SOL    HW162126   6.745   0.918   6.231
16688SOL    HW262127   6.601   0.951   6.162
16689SOL     OW62128   6.872   0.930   6.363
16689SOL    HW162129   6.893   0.872   6.441
16689SOL    HW262130   6.881   1.026   6.389
16690SOL     OW62131   5.828   1.059   6.409
16690SOL    HW162132   5.751   1.121   6.402
16690SOL    HW262133   5.865   1.060   6.502
16691SOL     OW62134   6.461   1.007   6.108
16691SOL    HW162135   6.448   0.918   6.065
16691SOL    HW262136   6.392   1.021   6.179
16692SOL     OW62137   5.572   0.312   6.011
16692SOL    HW162138   5.632   0.263   5.949
16692SOL    HW262139   5.627   0.364   6.076
16693SOL     OW62140   7.195   1.810   5.702
16693SOL    HW162141   7.285   1.854   5.704
16693SOL    HW262142   7.194   1.741   5.630
16694SOL     OW62143   6.377   0.823   5.925
16694SOL    HW162144   6.288   0.851   5.890
16694SOL    HW262145   6.418   0.757   5.861
16695SOL     OW62146   5.899   0.541   6.464
16695SOL    HW162147   5.955   0.534   6.381
16695SOL    HW262148   5.956   0.519   6.544
16696SOL     OW62149   5.896   1.739   5.735
16696SOL    HW162150   5.988   1.769   5.710
16696SOL    HW262151   5.871   1.778   5.824
16697SOL     OW62152   6.872   1.761   6.672
16697SOL    HW162153   6.891   1.824   6.598
16697SOL    HW262154   6.880   1.667   6.639
16698SOL     OW62155   5.577   1.156   6.484
16698SOL    HW162156   5.487   1.172   6.445
16698SOL    HW262157   5.575   1.072   6.539
16699SOL     OW62158   6.328   0.061   5.934
16699SOL    HW162159   6.289   0.050   5.843
16699SOL    HW262160   6.284   0.137   5.981
16700SOL     OW62161   5.573   1.197   6.028
16700SOL    HW162162   5.651   1.255   6.052
16700SOL    HW262163   5.592   1.148   5.943
16701SOL     OW62164   7.103   0.325   7.112
16701SOL    HW162165   7.042   0.403   7.109
16701SOL    HW262166   7.158   0.329   7.195
16702SOL     OW62167   6.939   0.077   5.699
16702SOL    HW162168   7.019   0.017   5.696
16702SOL    HW262169   6.865   0.030   5.747
16703SOL     OW62170   7.152   0.049   7.133
16703SOL    HW162171   7.178   0.006   7.047
16703SOL    HW262172   7.102   0.133   7.115
16704SOL     OW62173   6.834   0.659   6.657
16704SOL    HW162174   6.888   0.699   6.583
16704SOL    HW262175   6.872   0.688   6.745
16705SOL     OW62176   7.127   0.065   5.973
16705SOL    HW162177   7.134   0.019   5.885
16705SOL    HW262178   7.031   0.075   5.998
16706SOL     OW62179   5.979   1.112   7.168
16706SOL    HW162180   5.998   1.136   7.073
16706SOL    HW262181   5.972   1.195   7.223
16707SOL     OW62182   5.640   1.402   6.642
16707SOL    HW162183   5.609   1.328   6.583
16707SOL    HW262184   5.572   1.420   6.713
16708SOL     OW62185   7.326   0.630   7.211
16708SOL    HW162186   7.315   0.716   7.160
16708SOL    HW262187   7.420   0.621   7.241
16709SOL     OW62188   6.897   0.403   6.630
16709SOL    HW162189   6.871   0.500   6.636
16709SOL    HW262190   6.897   0.363   6.722
16710SOL     OW62191   7.127   0.535   7.381
16710SOL    HW162192   7.207   0.560   7.325
16710SOL    HW262193   7.158   0.500   7.469
16711SOL     OW62194   7.291   0.871   7.076
16711SOL    HW162195   7.193   0.892   7.078
16711SOL    HW262196   7.340   0.947   7.035
16712SOL     OW62197   7.145   0.291   5.755
16712SOL    HW162198   7.150   0.333   5.846
16712SOL    HW262199   7.078   0.216   5.757
16713SOL     OW62200   5.683   0.301   7.240
16713SOL    HW162201   5.701   0.290   7.142
16713SOL    HW262202   5.585   0.297   7.257
16714SOL     OW62203   5.731   0.371   6.208
16714SOL    HW162204   5.674   0.426   6.269
16714SOL    HW262205   5.801   0.323   6.261
16715SOL     OW62206   5.868   0.562   5.806
16715SOL    HW162207   5.940   0.591   5.743
16715SOL    HW262208   5.824   0.642   5.846
16716SOL     OW62209   7.254   0.224   6.909
16716SOL    HW162210   7.210   0.272   6.985
16716SOL    HW262211   7.232   0.270   6.823
16717SOL     OW62212   5.908   1.334   6.717
16717SOL    HW162213   5.920   1.350   6.814
16717SOL    HW262214   5.821   1.374   6.687
16718SOL     OW62215   5.914   0.809   6.255
16718SOL    HW162216   5.906   0.907   6.273
16718SOL    HW262217   5.998   0.775   6.296
16719SOL     OW62218   5.760   0.289   5.770
16719SOL    HW162219   5.804   0.258   5.687
16719SOL    HW262220   5.761   0.389   5.774
16720SOL     OW62221   5.613   0.541   6.381
16720SOL    HW162222   5.577   0.634   6.373
16720SOL    HW262223   5.696   0.542   6.437
16721SOL     OW62224   6.048   1.128   5.767
16721SOL    HW162225   6.148   1.128   5.778
16721SOL    HW262226   6.017   1.221   5.746
16722SOL     OW62227   6.674   0.720   5.583
16722SOL    HW162228   6.605   0.777   5.539
16722SOL    HW262229   6.755   0.714   5.524
16723SOL     OW62230   6.409   0.639   5.726
16723SOL    HW162231   6.499   0.640   5.681
16723SOL    HW262232   6.386   0.545   5.751
16724SOL     OW62233   6.860   0.156   6.020
16724SOL    HW162234   6.770   0.140   6.061
16724SOL    HW262235   6.868   0.252   5.994
16725SOL     OW62236   6.974   0.556   7.036
16725SOL    HW162237   6.926   0.579   7.120
16725SOL    HW262238   6.908   0.526   6.967
16726SOL     OW62239   5.609   0.071   5.680
16726SOL    HW162240   5.672  -0.006   5.688
16726SOL    HW262241   5.629   0.139   5.751
16727SOL     OW62242   5.882   1.046   6.681
16727SOL    HW162243   5.893   1.001   6.770
16727SOL    HW262244   5.909   1.142   6.688
16728SOL     OW62245   6.698   1.049   7.180
16728SOL    HW162246   6.620   0.995   7.213
16728SOL    HW262247   6.779   1.027   7.235
16729SOL     OW62248   6.155   0.108   6.447
16729SOL    HW162249   6.083   0.041   6.433
16729SOL    HW262250   6.237   0.062   6.482
16730SOL     OW62251   6.548   1.237   6.359
16730SOL    HW162252   6.587   1.280   6.278
16730SOL    HW262253   6.621   1.220   6.426
16731SOL     OW62254   5.581   0.975   6.687
16731SOL    HW162255   5.670   0.953   6.727
16731SOL    HW262256   5.526   0.891   6.683
16732SOL     OW62257   5.809   0.020   5.967
16732SOL    HW162258   5.847   0.108   5.994
16732SOL    HW262259   5.732  -0.004   6.027
16733SOL     OW62260   7.328   0.219   6.388
16733SOL    HW162261   7.283   0.201   6.475
16733SOL    HW262262   7.426   0.236   6.404
16734SOL     OW62263   6.376   1.195   6.640
16734SOL    HW162264   6.327   1.110   6.621
16734SOL    HW262265   6.446   1.210   6.571
16735SOL     OW62266   6.334   1.501   5.574
16735SOL    HW162267   6.309   1.578   5.633
16735SOL    HW262268   6.398   1.441   5.622
16736SOL     OW62269   6.152   1.708   6.608
16736SOL    HW162270   6.172   1.678   6.515
16736SOL    HW262271   6.077   1.653   6.645
16737SOL     OW62272   6.295   1.119   6.325
16737SOL    HW162273   6.384   1.165   6.325
16737SOL    HW262274   6.288   1.059   6.404
16738SOL     OW62275   6.473   1.466   5.994
16738SOL    HW162276   6.523   1.454   5.909
16738SOL    HW262277   6.419   1.383   6.013
16739SOL     OW62278   5.663   0.813   6.394
16739SOL    HW162279   5.758   0.804   6.362
16739SOL    HW262280   5.629   0.905   6.373
16740SOL     OW62281   5.600   0.930   7.321
16740SOL    HW162282   5.515   0.881   7.302
16740SOL    HW262283   5.627   0.917   7.416
16741SOL     OW62284   6.497   1.839   7.027
16741SOL    HW162285   6.469   1.752   7.068
16741SOL    HW262286   6.441   1.913   7.064
16742SOL     OW62287   6.726   1.186   6.557
16742SOL    HW162288   6.710   1.280   6.588
16742SOL    HW262289   6.729   1.125   6.637
16743SOL     OW62290   6.000   0.457   7.321
16743SOL    HW162291   6.036   0.404   7.244
16743SOL    HW262292   6.061   0.534   7.339
16744SOL     OW62293   6.064   0.874   5.893
16744SOL    HW162294   6.014   0.939   5.837
16744SOL    HW262295   6.006   0.795   5.912
16745SOL     OW62296   7.145   0.905   6.591
16745SOL    HW162297   7.164   0.944   6.500
16745SOL    HW262298   7.099   0.974   6.647
16746SOL     OW62299   6.837   0.348   6.887
16746SOL    HW162300   6.908   0.320   6.951
16746SOL    HW262301   6.784   0.268   6.859
16747SOL     OW62302   5.538   0.047   6.088
16747SOL    HW162303   5.451   0.034   6.041
16747SOL    HW262304   5.546   0.142   6.118
16748SOL     OW62305   6.759   0.148   7.329
16748SOL    HW162306   6.818   0.164   7.409
16748SOL    HW262307   6.706   0.231   7.310
16749SOL     OW62308   6.581   0.567   6.645
16749SOL    HW162309   6.667   0.618   6.644
16749SOL    HW262310   6.587   0.493   6.712
16750SOL     OW62311   6.626   1.630   6.805
16750SOL    HW162312   6.552   1.694   6.823
16750SOL    HW262313   6.705   1.679   6.767
16751SOL     OW62314   5.695   1.296   7.175
16751SOL    HW162315   5.674   1.201   7.148
16751SOL    HW262316   5.626   1.357   7.137
16752SOL     OW62317   5.784   1.661   6.579
16752SOL    HW162318   5.726   1.581   6.593
16752SOL    HW262319   5.808   1.668   6.482
16753SOL     OW62320   6.530   0.182   6.434
16753SOL    HW162321   6.626   0.183   6.462
16753SOL    HW262322   6.475   0.139   6.506
16754SOL     OW62323   6.592   1.188   5.950
16754SOL    HW162324   6.672   1.224   5.998
16754SOL    HW262325   6.550   1.115   6.006
16755SOL     OW62326   7.183   0.455   6.314
16755SOL    HW162327   7.202   0.541   6.361
16755SOL    HW262328   7.251   0.386   6.342
16756SOL     OW62329   6.326   1.127   5.800
16756SOL    HW162330   6.398   1.186   5.765
16756SOL    HW262331   6.366   1.043   5.836
16757SOL     OW62332   6.397   0.103   5.652
16757SOL    HW162333   6.472   0.037   5.664
16757SOL    HW262334   6.428   0.194   5.680
16758SOL     OW62335   6.076   0.532   6.264
16758SOL    HW162336   6.114   0.443   6.290
16758SOL    HW262337   6.143   0.582   6.209
16759SOL     OW62338   6.064   1.090   6.918
16759SOL    HW162339   6.160   1.070   6.938
16759SOL    HW262340   6.053   1.188   6.900
16760SOL     OW62341   7.286   1.133   6.887
16760SOL    HW162342   7.300   1.231   6.901
16760SOL    HW262343   7.343   1.102   6.811
16761SOL     OW62344   5.769   1.242   5.579
16761SOL    HW162345   5.761   1.254   5.480
16761SOL    HW262346   5.828   1.313   5.617
16762SOL     OW62347   6.196   1.681   5.739
16762SOL    HW162348   6.171   1.776   5.723
16762SOL    HW262349   6.163   1.653   5.829
16763SOL     OW62350   6.846   1.104   6.963
16763SOL    HW162351   6.790   1.063   7.034
16763SOL    HW262352   6.826   1.202   6.957
16764SOL     OW62353   5.756   0.601   7.325
16764SOL    HW162354   5.773   0.502   7.330
16764SOL    HW262355   5.820   0.649   7.386
16765SOL     OW62356   7.195   1.562   6.564
16765SOL    HW162357   7.167   1.655   6.588
16765SOL    HW262358   7.245   1.521   6.640
16766SOL     OW62359   5.591   0.935   6.125
16766SOL    HW162360   5.598   1.034   6.112
16766SOL    HW262361   5.500   0.912   6.159
16767SOL     OW62362   7.167   1.109   6.375
16767SOL    HW162363   7.129   1.198   6.348
16767SOL    HW262364   7.167   1.047   6.297
16768SOL     OW62365   6.178   1.366   6.771
16768SOL    HW162366   6.091   1.365   6.722
16768SOL    HW262367   6.244   1.306   6.724
16769SOL     OW62368   5.915   1.354   6.983
16769SOL    HW162369   5.934   1.442   7.027
16769SOL    HW262370   5.820   1.328   7.001
16770SOL     OW62371   7.158   1.670   7.331
16770SOL    HW162372   7.127   1.592   7.276
16770SOL    HW262373   7.127   1.755   7.289
16771SOL     OW62374   6.866   1.208   6.052
16771SOL    HW162375   6.965   1.212   6.068
16771SOL    HW262376   6.849   1.194   5.954
16772SOL     OW62377   6.219   0.374   6.000
16772SOL    HW162378   6.121   0.368   5.980
16772SOL    HW262379   6.238   0.331   6.088
16773SOL     OW62380   7.139   0.057   6.259
16773SOL    HW162381   7.134   0.098   6.168
16773SOL    HW262382   7.220   0.091   6.306
16774SOL     OW62383   6.742   0.813   6.952
16774SOL    HW162384   6.841   0.822   6.942
16774SOL    HW262385   6.698   0.815   6.862
16775SOL     OW62386   6.901   1.480   6.566
16775SOL    HW162387   6.815   1.437   6.595
16775SOL    HW262388   6.890   1.520   6.475
16776SOL     OW62389   7.142   1.277   7.932
16776SOL    HW162390   7.153   1.361   7.986
16776SOL    HW262391   7.232   1.240   7.909
16777SOL     OW62392   5.889   0.196   7.401
16777SOL    HW162393   5.802   0.193   7.352
16777SOL    HW262394   5.940   0.278   7.373
16778SOL     OW62395   6.754   0.096   8.734
16778SOL    HW162396   6.678   0.051   8.781
16778SOL    HW262397   6.783   0.041   8.656
16779SOL     OW62398   6.492   0.876   9.111
16779SOL    HW162399   6.457   0.851   9.021
16779SOL    HW262400   6.416   0.897   9.172
16780SOL     OW62401   6.099   1.550   7.805
16780SOL    HW162402   6.055   1.559   7.894
16780SOL    HW262403   6.170   1.480   7.809
16781SOL     OW62404   6.117   0.083   7.527
16781SOL    HW162405   6.205   0.111   7.488
16781SOL    HW262406   6.045   0.146   7.497
16782SOL     OW62407   6.987   1.075   8.591
16782SOL    HW162408   6.912   1.064   8.656
16782SOL    HW262409   7.024   1.168   8.597
16783SOL     OW62410   6.026   1.223   8.100
16783SOL    HW162411   5.959   1.177   8.159
16783SOL    HW262412   6.118   1.191   8.123
16784SOL     OW62413   6.253   0.629   7.931
16784SOL    HW162414   6.292   0.699   7.872
16784SOL    HW262415   6.227   0.549   7.877
16785SOL     OW62416   6.873   0.537   9.140
16785SOL    HW162417   6.969   0.541   9.166
16785SOL    HW262418   6.829   0.461   9.187
16786SOL     OW62419   6.107   0.348   8.394
16786SOL    HW162420   6.183   0.413   8.390
16786SOL    HW262421   6.137   0.259   8.361
16787SOL     OW62422   5.804   0.774   7.812
16787SOL    HW162423   5.819   0.708   7.886
16787SOL    HW262424   5.754   0.853   7.847
16788SOL     OW62425   6.390   1.719   7.989
16788SOL    HW162426   6.455   1.652   7.953
16788SOL    HW262427   6.380   1.795   7.925
16789SOL     OW62428   7.282   1.601   7.731
16789SOL    HW162429   7.378   1.575   7.724
16789SOL    HW262430   7.258   1.661   7.655
16790SOL     OW62431   7.194   0.294   8.502
16790SOL    HW162432   7.245   0.366   8.455
16790SOL    HW262433   7.099   0.321   8.511
16791SOL     OW62434   6.594   0.323   7.771
16791SOL    HW162435   6.619   0.417   7.792
16791SOL    HW262436   6.595   0.269   7.855
16792SOL     OW62437   5.718   1.036   8.956
16792SOL    HW162438   5.814   1.051   8.974
16792SOL    HW262439   5.680   0.974   9.025
16793SOL     OW62440   6.217   1.605   8.197
16793SOL    HW162441   6.290   1.628   8.133
16793SOL    HW262442   6.146   1.552   8.151
16794SOL     OW62443   6.559   0.637   8.951
16794SOL    HW162444   6.592   0.554   8.998
16794SOL    HW262445   6.632   0.705   8.950
16795SOL     OW62446   5.894   1.258   7.849
16795SOL    HW162447   5.940   1.232   7.934
16795SOL    HW262448   5.914   1.190   7.778
16796SOL     OW62449   6.752   0.313   7.560
16796SOL    HW162450   6.846   0.283   7.578
16796SOL    HW262451   6.700   0.313   7.646
16797SOL     OW62452   5.904   0.518   8.655
16797SOL    HW162453   5.894   0.431   8.607
16797SOL    HW262454   5.840   0.585   8.618
16798SOL     OW62455   6.986   0.798   8.693
16798SOL    HW162456   6.990   0.892   8.658
16798SOL    HW262457   7.079   0.767   8.715
16799SOL     OW62458   5.939   0.290   7.814
16799SOL    HW162459   5.893   0.330   7.893
16799SOL    HW262460   5.887   0.309   7.732
16800SOL     OW62461   7.067   1.817   8.726
16800SOL    HW162462   7.010   1.768   8.660
16800SOL    HW262463   7.153   1.844   8.683
16801SOL     OW62464   7.379   1.761   8.494
16801SOL    HW162465   7.425   1.771   8.582
16801SOL    HW262466   7.446   1.764   8.421
16802SOL     OW62467   6.492   0.501   8.056
16802SOL    HW162468   6.568   0.529   8.115
16802SOL    HW262469   6.448   0.581   8.017
16803SOL     OW62470   6.727   0.965   7.573
16803SOL    HW162471   6.764   0.915   7.651
16803SOL    HW262472   6.657   0.910   7.528
16804SOL     OW62473   6.569   0.387   9.194
16804SOL    HW162474   6.632   0.392   9.271
16804SOL    HW262475   6.477   0.365   9.227
16805SOL     OW62476   7.310   0.634   7.652
16805SOL    HW162477   7.331   0.553   7.598
16805SOL    HW262478   7.327   0.615   7.749
16806SOL     OW62479   6.285   0.039   9.092
16806SOL    HW162480   6.292  -0.055   9.059
16806SOL    HW262481   6.342   0.049   9.174
16807SOL     OW62482   7.208   0.640   8.360
16807SOL    HW162483   7.193   0.731   8.397
16807SOL    HW262484   7.278   0.593   8.414
16808SOL     OW62485   6.908   0.012   8.236
16808SOL    HW162486   6.857   0.096   8.218
16808SOL    HW262487   6.994   0.014   8.185
16809SOL     OW62488   7.263   0.218   9.165
16809SOL    HW162489   7.240   0.239   9.260
16809SOL    HW262490   7.239   0.123   9.145
16810SOL     OW62491   5.566   0.622   7.909
16810SOL    HW162492   5.568   0.573   7.996
16810SOL    HW262493   5.568   0.721   7.927
16811SOL     OW62494   5.887   0.210   8.230
16811SOL    HW162495   5.939   0.250   8.305
16811SOL    HW262496   5.940   0.137   8.187
16812SOL     OW62497   5.871   0.258   8.564
16812SOL    HW162498   5.836   0.165   8.564
16812SOL    HW262499   5.958   0.261   8.515
16813SOL     OW62500   5.739   1.507   7.763
16813SOL    HW162501   5.766   1.413   7.783
16813SOL    HW262502   5.764   1.529   7.669
16814SOL     OW62503   7.021   1.376   8.637
16814SOL    HW162504   6.992   1.413   8.548
16814SOL    HW262505   6.943   1.376   8.699
16815SOL     OW62506   5.753   1.650   8.000
16815SOL    HW162507   5.669   1.701   8.018
16815SOL    HW262508   5.744   1.599   7.915
16816SOL     OW62509   7.274   1.447   8.675
16816SOL    HW162510   7.305   1.461   8.769
16816SOL    HW262511   7.175   1.434   8.674
16817SOL     OW62512   5.630   0.839   7.575
16817SOL    HW162513   5.690   0.786   7.635
16817SOL    HW262514   5.536   0.807   7.587
16818SOL     OW62515   7.150   0.837   7.775
16818SOL    HW162516   7.218   0.771   7.742
16818SOL    HW262517   7.165   0.925   7.731
16819SOL     OW62518   6.398   1.824   8.423
16819SOL    HW162519   6.444   1.757   8.365
16819SOL    HW262520   6.324   1.780   8.473
16820SOL     OW62521   6.901   0.425   7.805
16820SOL    HW162522   6.838   0.483   7.753
16820SOL    HW262523   6.994   0.459   7.793
16821SOL     OW62524   5.798   0.626   8.905
16821SOL    HW162525   5.818   0.531   8.880
16821SOL    HW262526   5.761   0.629   8.998
16822SOL     OW62527   5.680   0.281   8.795
16822SOL    HW162528   5.752   0.291   8.726
16822SOL    HW262529   5.591   0.280   8.750
16823SOL     OW62530   6.578   0.902   8.560
16823SOL    HW162531   6.572   0.888   8.461
16823SOL    HW262532   6.497   0.863   8.604
16824SOL     OW62533   7.169   0.436   7.875
16824SOL    HW162534   7.265   0.407   7.872
16824SOL    HW262535   7.130   0.414   7.964
16825SOL     OW62536   6.403   0.377   7.597
16825SOL    HW162537   6.312   0.390   7.635
16825SOL    HW262538   6.463   0.337   7.667
16826SOL     OW62539   6.514   1.322   7.532
16826SOL    HW162540   6.567   1.262   7.592
16826SOL    HW262541   6.553   1.323   7.441
16827SOL     OW62542   7.265   1.617   8.017
16827SOL    HW162543   7.232   1.710   8.036
16827SOL    HW262544   7.263   1.601   7.918
16828SOL     OW62545   6.680   0.890   8.006
16828SOL    HW162546   6.745   0.918   8.077
16828SOL    HW262547   6.601   0.951   8.008
16829SOL     OW62548   6.872   0.930   8.209
16829SOL    HW162549   6.893   0.872   8.287
16829SOL    HW262550   6.881   1.026   8.235
16830SOL     OW62551   5.828   1.059   8.255
16830SOL    HW162552   5.751   1.121   8.248
16830SOL    HW262553   5.865   1.060   8.348
16831SOL     OW62554   6.461   1.007   7.954
16831SOL    HW162555   6.448   0.918   7.911
16831SOL    HW262556   6.392   1.021   8.025
16832SOL     OW62557   5.572   0.312   7.857
16832SOL    HW162558   5.632   0.263   7.795
16832SOL    HW262559   5.627   0.364   7.922
16833SOL     OW62560   7.195   1.810   7.548
16833SOL    HW162561   7.285   1.854   7.550
16833SOL    HW262562   7.194   1.741   7.476
16834SOL     OW62563   6.359   0.777   8.706
16834SOL    HW162564   6.361   0.863   8.757
16834SOL    HW262565   6.416   0.709   8.753
16835SOL     OW62566   5.596   1.804   8.777
16835SOL    HW162567   5.604   1.904   8.775
16835SOL    HW262568   5.572   1.775   8.870
16836SOL     OW62569   6.377   0.823   7.771
16836SOL    HW162570   6.288   0.851   7.736
16836SOL    HW262571   6.418   0.757   7.707
16837SOL     OW62572   5.899   0.541   8.310
16837SOL    HW162573   5.955   0.534   8.227
16837SOL    HW262574   5.956   0.519   8.390
16838SOL     OW62575   5.896   1.739   7.581
16838SOL    HW162576   5.988   1.769   7.556
16838SOL    HW262577   5.871   1.778   7.670
16839SOL     OW62578   5.577   1.156   8.330
16839SOL    HW162579   5.487   1.172   8.291
16839SOL    HW262580   5.575   1.072   8.385
16840SOL     OW62581   6.328   0.061   7.780
16840SOL    HW162582   6.289   0.050   7.689
16840SOL    HW262583   6.284   0.137   7.827
16841SOL     OW62584   5.573   1.197   7.874
16841SOL    HW162585   5.651   1.255   7.898
16841SOL    HW262586   5.592   1.148   7.789
16842SOL     OW62587   7.103   0.325   8.958
16842SOL    HW162588   7.042   0.403   8.955
16842SOL    HW262589   7.158   0.329   9.041
16843SOL     OW62590   6.819   0.271   8.249
16843SOL    HW162591   6.818   0.349   8.186
16843SOL    HW262592   6.862   0.298   8.335
16844SOL     OW62593   6.939   0.077   7.545
16844SOL    HW162594   7.019   0.017   7.542
16844SOL    HW262595   6.865   0.030   7.593
16845SOL     OW62596   7.152   0.049   8.979
16845SOL    HW162597   7.178   0.006   8.893
16845SOL    HW262598   7.102   0.133   8.961
16846SOL     OW62599   6.254   0.308   8.111
16846SOL    HW162600   6.243   0.250   8.192
16846SOL    HW262601   6.339   0.360   8.119
16847SOL     OW62602   6.834   0.659   8.503
16847SOL    HW162603   6.888   0.699   8.429
16847SOL    HW262604   6.872   0.688   8.591
16848SOL     OW62605   7.127   0.065   7.819
16848SOL    HW162606   7.134   0.019   7.731
16848SOL    HW262607   7.031   0.075   7.844
16849SOL     OW62608   6.103   1.380   9.182
16849SOL    HW162609   6.064   1.443   9.115
16849SOL    HW262610   6.186   1.420   9.222
16850SOL     OW62611   5.979   1.112   9.014
16850SOL    HW162612   5.998   1.136   8.919
16850SOL    HW262613   5.972   1.195   9.069
16851SOL     OW62614   5.640   1.402   8.488
16851SOL    HW162615   5.609   1.328   8.429
16851SOL    HW262616   5.572   1.420   8.559
16852SOL     OW62617   6.726   0.603   8.221
16852SOL    HW162618   6.808   0.580   8.169
16852SOL    HW262619   6.721   0.544   8.302
16853SOL     OW62620   6.897   0.403   8.476
16853SOL    HW162621   6.871   0.500   8.482
16853SOL    HW262622   6.897   0.363   8.568
16854SOL     OW62623   7.127   0.535   9.227
16854SOL    HW162624   7.207   0.560   9.171
16854SOL    HW262625   7.158   0.500   9.315
16855SOL     OW62626   6.838   0.838   7.807
16855SOL    HW162627   6.784   0.836   7.891
16855SOL    HW262628   6.915   0.901   7.818
16856SOL     OW62629   7.135   0.934   8.027
16856SOL    HW162630   7.149   0.897   7.934
16856SOL    HW262631   7.046   0.904   8.061
16857SOL     OW62632   7.291   0.871   8.922
16857SOL    HW162633   7.193   0.892   8.924
16857SOL    HW262634   7.340   0.947   8.881
16858SOL     OW62635   7.145   0.291   7.601
16858SOL    HW162636   7.150   0.333   7.692
16858SOL    HW262637   7.078   0.216   7.603
16859SOL     OW62638   6.292   1.506   8.821
16859SOL    HW162639   6.229   1.584   8.828
16859SOL    HW262640   6.260   1.444   8.749
16860SOL     OW62641   5.683   0.301   9.086
16860SOL    HW162642   5.701   0.290   8.988
16860SOL    HW262643   5.585   0.297   9.103
16861SOL     OW62644   5.563   1.715   9.030
16861SOL    HW162645   5.635   1.701   9.098
16861SOL    HW262646   5.474   1.718   9.075
16862SOL     OW62647   5.731   0.371   8.054
16862SOL    HW162648   5.674   0.426   8.115
16862SOL    HW262649   5.801   0.323   8.107
16863SOL     OW62650   6.903   1.603   8.917
16863SOL    HW162651   6.856   1.671   8.972
16863SOL    HW262652   6.970   1.649   8.858
16864SOL     OW62653   5.868   0.562   7.652
16864SOL    HW162654   5.940   0.591   7.589
16864SOL    HW262655   5.824   0.642   7.692
16865SOL     OW62656   7.254   0.224   8.755
16865SOL    HW162657   7.210   0.272   8.831
16865SOL    HW262658   7.232   0.270   8.669
16866SOL     OW62659   5.983   1.825   8.118
16866SOL    HW162660   5.907   1.791   8.063
16866SOL    HW262661   6.069   1.788   8.083
16867SOL     OW62662   5.908   1.334   8.563
16867SOL    HW162663   5.920   1.350   8.660
16867SOL    HW262664   5.821   1.374   8.533
16868SOL     OW62665   6.792   1.538   9.209
16868SOL    HW162666   6.751   1.453   9.175
16868SOL    HW262667   6.772   1.612   9.145
16869SOL     OW62668   6.282   1.258   7.899
16869SOL    HW162669   6.325   1.189   7.841
16869SOL    HW262670   6.246   1.215   7.982
16870SOL     OW62671   5.914   0.809   8.101
16870SOL    HW162672   5.906   0.907   8.119
16870SOL    HW262673   5.998   0.775   8.142
16871SOL     OW62674   5.760   0.289   7.616
16871SOL    HW162675   5.804   0.258   7.533
16871SOL    HW262676   5.761   0.389   7.620
16872SOL     OW62677   5.613   0.541   8.227
16872SOL    HW162678   5.577   0.634   8.219
16872SOL    HW262679   5.696   0.542   8.283
16873SOL     OW62680   6.674   0.720   7.429
16873SOL    HW162681   6.605   0.777   7.385
16873SOL    HW262682   6.755   0.714   7.370
16874SOL     OW62683   6.409   0.639   7.572
16874SOL    HW162684   6.499   0.640   7.527
16874SOL    HW262685   6.386   0.545   7.597
16875SOL     OW62686   6.860   0.156   7.866
16875SOL    HW162687   6.770   0.140   7.907
16875SOL    HW262688   6.868   0.252   7.840
16876SOL     OW62689   6.974   0.556   8.882
16876SOL    HW162690   6.926   0.579   8.966
16876SOL    HW262691   6.908   0.526   8.813
16877SOL     OW62692   5.609   0.071   7.526
16877SOL    HW162693   5.672  -0.006   7.534
16877SOL    HW262694   5.629   0.139   7.597
16878SOL     OW62695   5.882   1.046   8.527
16878SOL    HW162696   5.893   1.001   8.616
16878SOL    HW262697   5.909   1.142   8.534
16879SOL     OW62698   7.181   1.058   7.627
16879SOL    HW162699   7.252   1.128   7.629
16879SOL    HW262700   7.168   1.028   7.532
16880SOL     OW62701   6.163   0.659   8.549
16880SOL    HW162702   6.238   0.702   8.598
16880SOL    HW262703   6.096   0.624   8.615
16881SOL     OW62704   6.627   0.231   8.022
16881SOL    HW162705   6.686   0.291   8.077
16881SOL    HW262706   6.554   0.195   8.079
16882SOL     OW62707   6.737   1.763   9.062
16882SOL    HW162708   6.642   1.761   9.030
16882SOL    HW262709   6.758   1.854   9.099
16883SOL     OW62710   6.155   0.108   8.293
16883SOL    HW162711   6.083   0.041   8.279
16883SOL    HW262712   6.237   0.062   8.328
16884SOL     OW62713   5.855   1.773   8.660
16884SOL    HW162714   5.835   1.755   8.564
16884SOL    HW262715   5.782   1.735   8.717
16885SOL     OW62716   6.242   0.965   8.407
16885SOL    HW162717   6.240   0.881   8.352
16885SOL    HW262718   6.191   0.951   8.492
16886SOL     OW62719   5.581   0.975   8.533
16886SOL    HW162720   5.670   0.953   8.573
16886SOL    HW262721   5.526   0.891   8.529
16887SOL     OW62722   5.809   0.020   7.813
16887SOL    HW162723   5.847   0.108   7.840
16887SOL    HW262724   5.732  -0.004   7.873
16888SOL     OW62725   6.225   0.637   9.141
16888SOL    HW162726   6.177   0.688   9.070
16888SOL    HW262727   6.318   0.616   9.111
16889SOL     OW62728   5.631   1.107   7.633
16889SOL    HW162729   5.621   1.010   7.612
16889SOL    HW262730   5.684   1.152   7.561
16890SOL     OW62731   7.328   0.219   8.234
16890SOL    HW162732   7.283   0.201   8.321
16890SOL    HW262733   7.426   0.236   8.250
16891SOL     OW62734   6.714   0.618   7.695
16891SOL    HW162735   6.766   0.690   7.741
16891SOL    HW262736   6.727   0.625   7.597
16892SOL     OW62737   7.075   1.433   9.022
16892SOL    HW162738   7.060   1.335   9.036
16892SOL    HW262739   6.992   1.475   8.986
16893SOL     OW62740   5.832   0.875   8.762
16893SOL    HW162741   5.796   0.785   8.788
16893SOL    HW262742   5.793   0.945   8.822
16894SOL     OW62743   6.152   1.708   8.454
16894SOL    HW162744   6.172   1.678   8.361
16894SOL    HW262745   6.077   1.653   8.491
16895SOL     OW62746   6.295   1.119   8.171
16895SOL    HW162747   6.384   1.165   8.171
16895SOL    HW262748   6.288   1.059   8.250
16896SOL     OW62749   5.663   0.813   8.240
16896SOL    HW162750   5.758   0.804   8.208
16896SOL    HW262751   5.629   0.905   8.219
16897SOL     OW62752   5.600   0.930   9.167
16897SOL    HW162753   5.515   0.881   9.148
16897SOL    HW262754   5.627   0.917   9.262
16898SOL     OW62755   6.497   1.839   8.873
16898SOL    HW162756   6.469   1.752   8.914
16898SOL    HW262757   6.441   1.913   8.910
16899SOL     OW62758   6.000   0.457   9.167
16899SOL    HW162759   6.036   0.404   9.090
16899SOL    HW262760   6.061   0.534   9.185
16900SOL     OW62761   7.145   0.905   8.437
16900SOL    HW162762   7.164   0.944   8.346
16900SOL    HW262763   7.099   0.974   8.493
16901SOL     OW62764   6.837   0.348   8.733
16901SOL    HW162765   6.908   0.320   8.797
16901SOL    HW262766   6.784   0.268   8.705
16902SOL     OW62767   5.538   0.047   7.934
16902SOL    HW162768   5.451   0.034   7.887
16902SOL    HW262769   5.546   0.142   7.964
16903SOL     OW62770   6.759   0.148   9.175
16903SOL    HW162771   6.818   0.164   9.255
16903SOL    HW262772   6.706   0.231   9.156
16904SOL     OW62773   5.975   1.567   9.000
16904SOL    HW162774   5.917   1.632   9.049
16904SOL    HW262775   6.037   1.617   8.940
16905SOL     OW62776   7.331   1.454   8.941
16905SOL    HW162777   7.359   1.547   8.963
16905SOL    HW262778   7.238   1.438   8.974
16906SOL     OW62779   6.581   0.567   8.491
16906SOL    HW162780   6.667   0.618   8.490
16906SOL    HW262781   6.587   0.493   8.558
16907SOL     OW62782   5.985   1.513   8.063
16907SOL    HW162783   5.983   1.414   8.076
16907SOL    HW262784   5.894   1.546   8.040
16908SOL     OW62785   5.835   1.760   9.150
16908SOL    HW162786   5.878   1.844   9.116
16908SOL    HW262787   5.860   1.747   9.246
16909SOL     OW62788   5.695   1.296   9.021
16909SOL    HW162789   5.674   1.201   8.994
16909SOL    HW262790   5.626   1.357   8.983
16910SOL     OW62791   5.784   1.661   8.425
16910SOL    HW162792   5.726   1.581   8.439
16910SOL    HW262793   5.808   1.668   8.328
16911SOL     OW62794   6.530   0.182   8.280
16911SOL    HW162795   6.626   0.183   8.308
16911SOL    HW262796   6.475   0.139   8.352
16912SOL     OW62797   6.592   1.188   7.796
16912SOL    HW162798   6.672   1.224   7.844
16912SOL    HW262799   6.550   1.115   7.852
16913SOL     OW62800   7.183   0.455   8.160
16913SOL    HW162801   7.202   0.541   8.207
16913SOL    HW262802   7.251   0.386   8.188
16914SOL     OW62803   6.326   1.127   7.646
16914SOL    HW162804   6.398   1.186   7.611
16914SOL    HW262805   6.366   1.043   7.682
16915SOL     OW62806   6.397   0.103   7.498
16915SOL    HW162807   6.472   0.037   7.510
16915SOL    HW262808   6.428   0.194   7.526
16916SOL     OW62809   6.076   0.532   8.110
16916SOL    HW162810   6.114   0.443   8.136
16916SOL    HW262811   6.143   0.582   8.055
16917SOL     OW62812   6.064   1.090   8.764
16917SOL    HW162813   6.160   1.070   8.784
16917SOL    HW262814   6.053   1.188   8.746
16918SOL     OW62815   7.286   1.133   8.733
16918SOL    HW162816   7.300   1.231   8.747
16918SOL    HW262817   7.343   1.102   8.657
16919SOL     OW62818   6.196   1.681   7.585
16919SOL    HW162819   6.171   1.776   7.569
16919SOL    HW262820   6.163   1.653   7.675
16920SOL     OW62821   6.113   1.720   8.809
16920SOL    HW162822   6.162   1.800   8.773
16920SOL    HW262823   6.021   1.718   8.770
16921SOL     OW62824   5.756   0.601   9.171
16921SOL    HW162825   5.773   0.502   9.176
16921SOL    HW262826   5.820   0.649   9.232
16922SOL     OW62827   7.195   1.562   8.410
16922SOL    HW162828   7.167   1.655   8.434
16922SOL    HW262829   7.245   1.521   8.486
16923SOL     OW62830   5.591   0.935   7.971
16923SOL    HW162831   5.598   1.034   7.958
16923SOL    HW262832   5.500   0.912   8.005
16924SOL     OW62833   6.100   0.733   8.909
16924SOL    HW162834   6.006   0.703   8.890
16924SOL    HW262835   6.109   0.830   8.886
16925SOL     OW62836   7.167   1.109   8.221
16925SOL    HW162837   7.129   1.198   8.194
16925SOL    HW262838   7.167   1.047   8.143
16926SOL     OW62839   6.325   0.515   8.390
16926SOL    HW162840   6.417   0.543   8.417
16926SOL    HW262841   6.257   0.566   8.444
16927SOL     OW62842   6.178   1.366   8.617
16927SOL    HW162843   6.091   1.365   8.568
16927SOL    HW262844   6.244   1.306   8.570
16928SOL     OW62845   5.744   0.708   8.531
16928SOL    HW162846   5.782   0.767   8.602
16928SOL    HW262847   5.727   0.761   8.449
16929SOL     OW62848   5.915   1.354   8.829
16929SOL    HW162849   5.934   1.442   8.873
16929SOL    HW262850   5.820   1.328   8.847
16930SOL     OW62851   7.158   1.670   9.177
16930SOL    HW162852   7.127   1.592   9.122
16930SOL    HW262853   7.127   1.755   9.135
16931SOL     OW62854   6.866   1.208   7.898
16931SOL    HW162855   6.965   1.212   7.914
16931SOL    HW262856   6.849   1.194   7.800
16932SOL     OW62857   6.219   0.374   7.846
16932SOL    HW162858   6.121   0.368   7.826
16932SOL    HW262859   6.238   0.331   7.934
16933SOL     OW62860   7.139   0.057   8.105
16933SOL    HW162861   7.134   0.098   8.014
16933SOL    HW262862   7.220   0.091   8.152
16934SOL     OW62863   6.742   0.813   8.798
16934SOL    HW162864   6.841   0.822   8.788
16934SOL    HW262865   6.698   0.815   8.708
16935SOL     OW62866   6.236   0.773   8.200
16935SOL    HW162867   6.258   0.695   8.258
16935SOL    HW262868   6.245   0.747   8.104
16936SOL     OW62869   6.904   0.465   8.087
16936SOL    HW162870   6.903   0.457   7.988
16936SOL    HW262871   6.993   0.437   8.122
16937SOL     OW62872   6.631   1.481   9.919
16937SOL    HW162873   6.722   1.515   9.942
16937SOL    HW262874   6.603   1.519   9.831
16938SOL     OW62875   7.142   1.277   9.777
16938SOL    HW162876   7.153   1.361   9.831
16938SOL    HW262877   7.232   1.240   9.754
16939SOL     OW62878   5.889   0.196   9.246
16939SOL    HW162879   5.802   0.193   9.197
16939SOL    HW262880   5.940   0.278   9.218
16940SOL     OW62881   6.099   1.550   9.650
16940SOL    HW162882   6.055   1.559   9.739
16940SOL    HW262883   6.170   1.480   9.654
16941SOL     OW62884   6.117   0.083   9.372
16941SOL    HW162885   6.205   0.111   9.333
16941SOL    HW262886   6.045   0.146   9.342
16942SOL     OW62887   5.956   1.392   9.429
16942SOL    HW162888   6.020   1.408   9.354
16942SOL    HW262889   5.980   1.450   9.507
16943SOL     OW62890   5.804   0.774   9.657
16943SOL    HW162891   5.819   0.708   9.731
16943SOL    HW262892   5.754   0.853   9.692
16944SOL     OW62893   6.390   1.719   9.834
16944SOL    HW162894   6.455   1.652   9.798
16944SOL    HW262895   6.380   1.795   9.770
16945SOL     OW62896   6.594   0.323   9.616
16945SOL    HW162897   6.619   0.417   9.637
16945SOL    HW262898   6.595   0.269   9.700
16946SOL     OW62899   6.044   0.681   9.344
16946SOL    HW162900   6.004   0.760   9.297
16946SOL    HW262901   6.133   0.660   9.304
16947SOL     OW62902   7.163   1.437  10.018
16947SOL    HW162903   7.159   1.472  10.111
16947SOL    HW262904   7.222   1.496   9.962
16948SOL     OW62905   5.894   1.258   9.694
16948SOL    HW162906   5.940   1.232   9.779
16948SOL    HW262907   5.914   1.190   9.623
16949SOL     OW62908   6.752   0.313   9.405
16949SOL    HW162909   6.846   0.283   9.423
16949SOL    HW262910   6.700   0.313   9.491
16950SOL     OW62911   5.939   0.290   9.659
16950SOL    HW162912   5.893   0.330   9.738
16950SOL    HW262913   5.887   0.309   9.577
16951SOL     OW62914   7.379   1.761  10.339
16951SOL    HW162915   7.425   1.771  10.427
16951SOL    HW262916   7.446   1.764  10.266
16952SOL     OW62917   7.310   0.634   9.497
16952SOL    HW162918   7.331   0.553   9.443
16952SOL    HW262919   7.327   0.615   9.594
16953SOL     OW62920   6.604   1.772   9.405
16953SOL    HW162921   6.638   1.685   9.370
16953SOL    HW262922   6.572   1.760   9.499
16954SOL     OW62923   5.566   0.622   9.754
16954SOL    HW162924   5.568   0.573   9.841
16954SOL    HW262925   5.568   0.721   9.772
16955SOL     OW62926   5.739   1.507   9.608
16955SOL    HW162927   5.766   1.413   9.628
16955SOL    HW262928   5.764   1.529   9.514
16956SOL     OW62929   5.753   1.650   9.845
16956SOL    HW162930   5.669   1.701   9.863
16956SOL    HW262931   5.744   1.599   9.760
16957SOL     OW62932   6.026   0.947   9.247
16957SOL    HW162933   5.995   0.981   9.159
16957SOL    HW262934   6.030   1.022   9.313
16958SOL     OW62935   5.630   0.839   9.420
16958SOL    HW162936   5.690   0.786   9.480
16958SOL    HW262937   5.536   0.807   9.432
16959SOL     OW62938   7.150   0.837   9.620
16959SOL    HW162939   7.218   0.771   9.587
16959SOL    HW262940   7.165   0.925   9.576
16960SOL     OW62941   6.305   0.893   9.304
16960SOL    HW162942   6.334   0.812   9.355
16960SOL    HW262943   6.205   0.892   9.295
16961SOL     OW62944   6.901   0.425   9.650
16961SOL    HW162945   6.838   0.483   9.598
16961SOL    HW262946   6.994   0.459   9.638
16962SOL     OW62947   7.169   0.436   9.720
16962SOL    HW162948   7.265   0.407   9.717
16962SOL    HW262949   7.130   0.414   9.809
16963SOL     OW62950   6.403   0.377   9.442
16963SOL    HW162951   6.312   0.390   9.480
16963SOL    HW262952   6.463   0.337   9.512
16964SOL     OW62953   6.872   0.930  10.054
16964SOL    HW162954   6.893   0.872  10.132
16964SOL    HW262955   6.881   1.026  10.080
16965SOL     OW62956   6.461   1.007   9.799
16965SOL    HW162957   6.448   0.918   9.756
16965SOL    HW262958   6.392   1.021   9.870
16966SOL     OW62959   5.572   0.312   9.702
16966SOL    HW162960   5.632   0.263   9.640
16966SOL    HW262961   5.627   0.364   9.767
16967SOL     OW62962   5.896   1.739   9.426
16967SOL    HW162963   5.988   1.769   9.401
16967SOL    HW262964   5.871   1.778   9.515
16968SOL     OW62965   6.328   0.061   9.625
16968SOL    HW162966   6.289   0.050   9.534
16968SOL    HW262967   6.284   0.137   9.672
16969SOL     OW62968   6.939   0.077   9.390
16969SOL    HW162969   7.019   0.017   9.387
16969SOL    HW262970   6.865   0.030   9.438
16970SOL     OW62971   7.127   0.065   9.664
16970SOL    HW162972   7.134   0.019   9.576
16970SOL    HW262973   7.031   0.075   9.689
16971SOL     OW62974   7.135   0.934   9.872
16971SOL    HW162975   7.149   0.897   9.779
16971SOL    HW262976   7.046   0.904   9.906
16972SOL     OW62977   7.145   0.291   9.446
16972SOL    HW162978   7.150   0.333   9.537
16972SOL    HW262979   7.078   0.216   9.448
16973SOL     OW62980   5.868   0.562   9.497
16973SOL    HW162981   5.940   0.591   9.434
16973SOL    HW262982   5.824   0.642   9.537
16974SOL     OW62983   5.983   1.825   9.963
16974SOL    HW162984   5.907   1.791   9.908
16974SOL    HW262985   6.069   1.788   9.928
16975SOL     OW62986   6.282   1.258   9.744
16975SOL    HW162987   6.325   1.189   9.686
16975SOL    HW262988   6.246   1.215   9.827
16976SOL     OW62989   5.760   0.289   9.461
16976SOL    HW162990   5.804   0.258   9.378
16976SOL    HW262991   5.761   0.389   9.465
16977SOL     OW62992   6.048   1.128   9.458
16977SOL    HW162993   6.148   1.128   9.469
16977SOL    HW262994   6.017   1.221   9.437
16978SOL     OW62995   6.409   0.639   9.417
16978SOL    HW162996   6.499   0.640   9.372
16978SOL    HW262997   6.386   0.545   9.442
16979SOL     OW62998   6.860   0.156   9.711
16979SOL    HW162999   6.770   0.140   9.752
16979SOL    HW263000   6.868   0.252   9.685
16980SOL     OW63001   5.609   0.071   9.371
16980SOL    HW163002   5.672  -0.006   9.379
16980SOL    HW263003   5.629   0.139   9.442
16981SOL     OW63004   7.181   1.058   9.472
16981SOL    HW163005   7.252   1.128   9.474
16981SOL    HW263006   7.168   1.028   9.377
16982SOL     OW63007   6.627   0.231   9.867
16982SOL    HW163008   6.686   0.291   9.922
16982SOL    HW263009   6.554   0.195   9.924
16983SOL     OW63010   5.809   0.020   9.658
16983SOL    HW163011   5.847   0.108   9.685
16983SOL    HW263012   5.732  -0.004   9.718
16984SOL     OW63013   5.631   1.107   9.478
16984SOL    HW163014   5.621   1.010   9.457
16984SOL    HW263015   5.684   1.152   9.406
16985SOL     OW63016   7.328   0.219  10.079
16985SOL    HW163017   7.283   0.201  10.166
16985SOL    HW263018   7.426   0.236  10.095
16986SOL     OW63019   6.334   1.501   9.265
16986SOL    HW163020   6.309   1.578   9.324
16986SOL    HW263021   6.398   1.441   9.313
16987SOL     OW63022   6.473   1.466   9.685
16987SOL    HW163023   6.523   1.454   9.600
16987SOL    HW263024   6.419   1.383   9.704
16988SOL     OW63025   5.538   0.047   9.779
16988SOL    HW163026   5.451   0.034   9.732
16988SOL    HW263027   5.546   0.142   9.809
16989SOL     OW63028   5.985   1.513   9.908
16989SOL    HW163029   5.983   1.414   9.921
16989SOL    HW263030   5.894   1.546   9.885
16990SOL     OW63031   7.183   0.455  10.005
16990SOL    HW163032   7.202   0.541  10.052
16990SOL    HW263033   7.251   0.386  10.033
16991SOL     OW63034   6.326   1.127   9.491
16991SOL    HW163035   6.398   1.186   9.456
16991SOL    HW263036   6.366   1.043   9.527
16992SOL     OW63037   6.397   0.103   9.343
16992SOL    HW163038   6.472   0.037   9.355
16992SOL    HW263039   6.428   0.194   9.371
16993SOL     OW63040   5.769   1.242   9.270
16993SOL    HW163041   5.761   1.254   9.171
16993SOL    HW263042   5.828   1.313   9.308
16994SOL     OW63043   6.196   1.681   9.430
16994SOL    HW163044   6.171   1.776   9.414
16994SOL    HW263045   6.163   1.653   9.520
16995SOL     OW63046   5.591   0.935   9.816
16995SOL    HW163047   5.598   1.034   9.803
16995SOL    HW263048   5.500   0.912   9.850
16996SOL     OW63049   6.866   1.208   9.743
16996SOL    HW163050   6.965   1.212   9.759
16996SOL    HW263051   6.849   1.194   9.645
16997SOL     OW63052   7.139   0.057   9.950
16997SOL    HW163053   7.134   0.098   9.859
16997SOL    HW263054   7.220   0.091   9.997
16998SOL     OW63055   6.631   3.326   0.692
16998SOL    HW163056   6.722   3.360   0.715
16998SOL    HW263057   6.603   3.364   0.604
16999SOL     OW63058   7.142   3.122   0.550
16999SOL    HW163059   7.153   3.206   0.604
16999SOL    HW263060   7.232   3.085   0.527
17000SOL     OW63061   7.222   2.404   1.414
17000SOL    HW163062   7.124   2.396   1.436
17000SOL    HW263063   7.275   2.393   1.498
17001SOL     OW63064   5.889   2.041   0.019
17001SOL    HW163065   5.802   2.038  -0.030
17001SOL    HW263066   5.940   2.123  -0.009
17002SOL     OW63067   6.876   3.430   0.794
17002SOL    HW163068   6.865   3.527   0.817
17002SOL    HW263069   6.969   3.413   0.764
17003SOL     OW63070   6.754   1.941   1.352
17003SOL    HW163071   6.678   1.896   1.399
17003SOL    HW263072   6.783   1.886   1.274
17004SOL     OW63073   6.492   2.721   1.729
17004SOL    HW163074   6.457   2.696   1.639
17004SOL    HW263075   6.416   2.742   1.790
17005SOL     OW63076   6.117   1.928   0.145
17005SOL    HW163077   6.205   1.956   0.106
17005SOL    HW263078   6.045   1.991   0.115
17006SOL     OW63079   7.087   2.913   1.528
17006SOL    HW163080   6.995   2.918   1.490
17006SOL    HW263081   7.152   2.951   1.462
17007SOL     OW63082   6.987   2.920   1.209
17007SOL    HW163083   6.912   2.909   1.274
17007SOL    HW263084   7.024   3.013   1.215
17008SOL     OW63085   6.483   3.175   1.509
17008SOL    HW163086   6.426   3.238   1.455
17008SOL    HW263087   6.516   3.101   1.450
17009SOL     OW63088   6.026   3.068   0.718
17009SOL    HW163089   5.959   3.022   0.777
17009SOL    HW263090   6.118   3.036   0.741
17010SOL     OW63091   6.253   2.474   0.549
17010SOL    HW163092   6.292   2.544   0.490
17010SOL    HW263093   6.227   2.394   0.495
17011SOL     OW63094   6.873   2.382   1.758
17011SOL    HW163095   6.969   2.386   1.784
17011SOL    HW263096   6.829   2.306   1.805
17012SOL     OW63097   5.956   3.237   0.202
17012SOL    HW163098   6.020   3.253   0.127
17012SOL    HW263099   5.980   3.295   0.280
17013SOL     OW63100   5.804   2.619   0.430
17013SOL    HW163101   5.819   2.553   0.504
17013SOL    HW263102   5.754   2.698   0.465
17014SOL     OW63103   6.390   3.564   0.607
17014SOL    HW163104   6.455   3.497   0.571
17014SOL    HW263105   6.380   3.640   0.543
17015SOL     OW63106   7.282   3.446   0.349
17015SOL    HW163107   7.378   3.420   0.342
17015SOL    HW263108   7.258   3.506   0.273
17016SOL     OW63109   7.194   2.139   1.120
17016SOL    HW163110   7.245   2.211   1.073
17016SOL    HW263111   7.099   2.166   1.129
17017SOL     OW63112   5.718   2.881   1.574
17017SOL    HW163113   5.814   2.896   1.592
17017SOL    HW263114   5.680   2.819   1.643
17018SOL     OW63115   6.044   2.526   0.117
17018SOL    HW163116   6.004   2.605   0.070
17018SOL    HW263117   6.133   2.505   0.077
17019SOL     OW63118   6.217   3.450   0.815
17019SOL    HW163119   6.290   3.473   0.751
17019SOL    HW263120   6.146   3.397   0.769
17020SOL     OW63121   6.559   2.482   1.569
17020SOL    HW163122   6.592   2.399   1.616
17020SOL    HW263123   6.632   2.550   1.568
17021SOL     OW63124   7.163   3.282   0.791
17021SOL    HW163125   7.159   3.317   0.884
17021SOL    HW263126   7.222   3.341   0.735
17022SOL     OW63127   5.894   3.103   0.467
17022SOL    HW163128   5.940   3.077   0.552
17022SOL    HW263129   5.914   3.035   0.396
17023SOL     OW63130   6.752   2.158   0.178
17023SOL    HW163131   6.846   2.128   0.196
17023SOL    HW263132   6.700   2.158   0.264
17024SOL     OW63133   5.904   2.363   1.273
17024SOL    HW163134   5.894   2.276   1.225
17024SOL    HW263135   5.840   2.430   1.236
17025SOL     OW63136   6.986   2.643   1.311
17025SOL    HW163137   6.990   2.737   1.276
17025SOL    HW263138   7.079   2.612   1.333
17026SOL     OW63139   5.939   2.135   0.432
17026SOL    HW163140   5.893   2.175   0.511
17026SOL    HW263141   5.887   2.154   0.350
17027SOL     OW63142   7.067   3.662   1.344
17027SOL    HW163143   7.010   3.613   1.278
17027SOL    HW263144   7.153   3.689   1.301
17028SOL     OW63145   7.362   2.380   1.199
17028SOL    HW163146   7.419   2.462   1.201
17028SOL    HW263147   7.303   2.379   1.279
17029SOL     OW63148   7.379   3.606   1.112
17029SOL    HW163149   7.425   3.616   1.200
17029SOL    HW263150   7.446   3.609   1.039
17030SOL     OW63151   6.569   2.232   1.812
17030SOL    HW163152   6.632   2.237   1.889
17030SOL    HW263153   6.477   2.210   1.845
17031SOL     OW63154   7.310   2.479   0.270
17031SOL    HW163155   7.331   2.398   0.216
17031SOL    HW263156   7.327   2.460   0.367
17032SOL     OW63157   6.285   1.884   1.710
17032SOL    HW163158   6.292   1.790   1.677
17032SOL    HW263159   6.342   1.894   1.792
17033SOL     OW63160   7.208   2.485   0.978
17033SOL    HW163161   7.193   2.576   1.015
17033SOL    HW263162   7.278   2.438   1.032
17034SOL     OW63163   6.618   3.151   1.744
17034SOL    HW163164   6.640   3.061   1.706
17034SOL    HW263165   6.553   3.198   1.685
17035SOL     OW63166   6.273   2.993   1.748
17035SOL    HW163167   6.244   3.070   1.805
17035SOL    HW263168   6.283   2.912   1.806
17036SOL     OW63169   6.908   1.857   0.854
17036SOL    HW163170   6.857   1.941   0.836
17036SOL    HW263171   6.994   1.859   0.803
17037SOL     OW63172   7.263   2.063   1.783
17037SOL    HW163173   7.240   2.084   1.878
17037SOL    HW263174   7.239   1.968   1.763
17038SOL     OW63175   5.566   2.467   0.527
17038SOL    HW163176   5.568   2.418   0.614
17038SOL    HW263177   5.568   2.566   0.545
17039SOL     OW63178   6.538   2.725   0.922
17039SOL    HW163179   6.564   2.805   0.868
17039SOL    HW263180   6.532   2.645   0.862
17040SOL     OW63181   5.739   3.352   0.381
17040SOL    HW163182   5.766   3.258   0.401
17040SOL    HW263183   5.764   3.374   0.287
17041SOL     OW63184   7.021   3.221   1.255
17041SOL    HW163185   6.992   3.258   1.166
17041SOL    HW263186   6.943   3.221   1.317
17042SOL     OW63187   5.753   3.495   0.618
17042SOL    HW163188   5.669   3.546   0.636
17042SOL    HW263189   5.744   3.444   0.533
17043SOL     OW63190   7.274   3.292   1.293
17043SOL    HW163191   7.305   3.306   1.387
17043SOL    HW263192   7.175   3.279   1.292
17044SOL     OW63193   6.026   2.792   0.020
17044SOL    HW163194   5.995   2.826  -0.068
17044SOL    HW263195   6.030   2.867   0.086
17045SOL     OW63196   6.543   2.979   1.319
17045SOL    HW163197   6.593   2.894   1.303
17045SOL    HW263198   6.497   3.006   1.234
17046SOL     OW63199   5.630   2.684   0.193
17046SOL    HW163200   5.690   2.631   0.253
17046SOL    HW263201   5.536   2.652   0.205
17047SOL     OW63202   7.150   2.682   0.393
17047SOL    HW163203   7.218   2.616   0.360
17047SOL    HW263204   7.165   2.770   0.349
17048SOL     OW63205   6.398   3.669   1.041
17048SOL    HW163206   6.444   3.602   0.983
17048SOL    HW263207   6.324   3.625   1.091
17049SOL     OW63208   5.798   2.471   1.523
17049SOL    HW163209   5.818   2.376   1.498
17049SOL    HW263210   5.761   2.474   1.616
17050SOL     OW63211   5.680   2.126   1.413
17050SOL    HW163212   5.752   2.136   1.344
17050SOL    HW263213   5.591   2.125   1.368
17051SOL     OW63214   6.578   2.747   1.178
17051SOL    HW163215   6.572   2.733   1.079
17051SOL    HW263216   6.497   2.708   1.222
17052SOL     OW63217   7.169   2.281   0.493
17052SOL    HW163218   7.265   2.252   0.490
17052SOL    HW263219   7.130   2.259   0.582
17053SOL     OW63220   6.453   3.356   0.930
17053SOL    HW163221   6.511   3.367   0.849
17053SOL    HW263222   6.359   3.380   0.908
17054SOL     OW63223   6.403   2.222   0.215
17054SOL    HW163224   6.312   2.235   0.253
17054SOL    HW263225   6.463   2.182   0.285
17055SOL     OW63226   7.265   3.462   0.635
17055SOL    HW163227   7.232   3.555   0.654
17055SOL    HW263228   7.263   3.446   0.536
17056SOL     OW63229   6.680   2.735   0.624
17056SOL    HW163230   6.745   2.763   0.695
17056SOL    HW263231   6.601   2.796   0.626
17057SOL     OW63232   6.428   3.461   1.648
17057SOL    HW163233   6.416   3.392   1.577
17057SOL    HW263234   6.391   3.426   1.735
17058SOL     OW63235   6.872   2.775   0.827
17058SOL    HW163236   6.893   2.717   0.905
17058SOL    HW263237   6.881   2.871   0.853
17059SOL     OW63238   5.828   2.904   0.873
17059SOL    HW163239   5.751   2.966   0.866
17059SOL    HW263240   5.865   2.905   0.966
17060SOL     OW63241   6.461   2.852   0.572
17060SOL    HW163242   6.448   2.763   0.529
17060SOL    HW263243   6.392   2.866   0.643
17061SOL     OW63244   6.765   3.240   1.411
17061SOL    HW163245   6.798   3.325   1.452
17061SOL    HW263246   6.666   3.236   1.418
17062SOL     OW63247   5.572   2.157   0.475
17062SOL    HW163248   5.632   2.108   0.413
17062SOL    HW263249   5.627   2.209   0.540
17063SOL     OW63250   7.195   3.655   0.166
17063SOL    HW163251   7.285   3.699   0.168
17063SOL    HW263252   7.194   3.586   0.094
17064SOL     OW63253   6.359   2.622   1.324
17064SOL    HW163254   6.361   2.708   1.375
17064SOL    HW263255   6.416   2.554   1.371
17065SOL     OW63256   5.596   3.649   1.395
17065SOL    HW163257   5.604   3.749   1.393
17065SOL    HW263258   5.572   3.620   1.488
17066SOL     OW63259   5.899   2.386   0.928
17066SOL    HW163260   5.955   2.379   0.845
17066SOL    HW263261   5.956   2.364   1.008
17067SOL     OW63262   6.872   3.606   1.136
17067SOL    HW163263   6.891   3.669   1.062
17067SOL    HW263264   6.880   3.512   1.103
17068SOL     OW63265   5.577   3.001   0.948
17068SOL    HW163266   5.487   3.017   0.909
17068SOL    HW263267   5.575   2.917   1.003
17069SOL     OW63268   6.328   1.906   0.398
17069SOL    HW163269   6.289   1.895   0.307
17069SOL    HW263270   6.284   1.982   0.445
17070SOL     OW63271   5.573   3.042   0.492
17070SOL    HW163272   5.651   3.100   0.516
17070SOL    HW263273   5.592   2.993   0.407
17071SOL     OW63274   7.103   2.170   1.576
17071SOL    HW163275   7.042   2.248   1.573
17071SOL    HW263276   7.158   2.174   1.659
17072SOL     OW63277   6.939   1.922   0.163
17072SOL    HW163278   7.019   1.862   0.160
17072SOL    HW263279   6.865   1.875   0.211
17073SOL     OW63280   7.152   1.894   1.597
17073SOL    HW163281   7.178   1.851   1.511
17073SOL    HW263282   7.102   1.978   1.579
17074SOL     OW63283   6.834   2.504   1.121
17074SOL    HW163284   6.888   2.544   1.047
17074SOL    HW263285   6.872   2.533   1.209
17075SOL     OW63286   7.127   1.910   0.437
17075SOL    HW163287   7.134   1.864   0.349
17075SOL    HW263288   7.031   1.920   0.462
17076SOL     OW63289   6.103   3.225   1.800
17076SOL    HW163290   6.064   3.288   1.733
17076SOL    HW263291   6.186   3.265   1.840
17077SOL     OW63292   5.979   2.957   1.632
17077SOL    HW163293   5.998   2.981   1.537
17077SOL    HW263294   5.972   3.040   1.687
17078SOL     OW63295   5.640   3.247   1.106
17078SOL    HW163296   5.609   3.173   1.047
17078SOL    HW263297   5.572   3.265   1.177
17079SOL     OW63298   7.326   2.475   1.675
17079SOL    HW163299   7.315   2.561   1.624
17079SOL    HW263300   7.420   2.466   1.705
17080SOL     OW63301   6.897   2.248   1.094
17080SOL    HW163302   6.871   2.345   1.100
17080SOL    HW263303   6.897   2.208   1.186
17081SOL     OW63304   7.127   2.380   1.845
17081SOL    HW163305   7.207   2.405   1.789
17081SOL    HW263306   7.158   2.345   1.933
17082SOL     OW63307   7.291   2.716   1.540
17082SOL    HW163308   7.193   2.737   1.542
17082SOL    HW263309   7.340   2.792   1.499
17083SOL     OW63310   7.145   2.136   0.219
17083SOL    HW163311   7.150   2.178   0.310
17083SOL    HW263312   7.078   2.061   0.221
17084SOL     OW63313   6.292   3.351   1.439
17084SOL    HW163314   6.229   3.429   1.446
17084SOL    HW263315   6.260   3.289   1.367
17085SOL     OW63316   5.683   2.146   1.704
17085SOL    HW163317   5.701   2.135   1.606
17085SOL    HW263318   5.585   2.142   1.721
17086SOL     OW63319   5.563   3.560   1.648
17086SOL    HW163320   5.635   3.546   1.716
17086SOL    HW263321   5.474   3.563   1.693
17087SOL     OW63322   6.903   3.448   1.535
17087SOL    HW163323   6.856   3.516   1.590
17087SOL    HW263324   6.970   3.494   1.476
17088SOL     OW63325   5.868   2.407   0.270
17088SOL    HW163326   5.940   2.436   0.207
17088SOL    HW263327   5.824   2.487   0.310
17089SOL     OW63328   7.254   2.069   1.373
17089SOL    HW163329   7.210   2.117   1.449
17089SOL    HW263330   7.232   2.115   1.287
17090SOL     OW63331   5.983   3.670   0.736
17090SOL    HW163332   5.907   3.636   0.681
17090SOL    HW263333   6.069   3.633   0.701
17091SOL     OW63334   5.908   3.179   1.181
17091SOL    HW163335   5.920   3.195   1.278
17091SOL    HW263336   5.821   3.219   1.151
17092SOL     OW63337   6.792   3.383   1.827
17092SOL    HW163338   6.751   3.298   1.793
17092SOL    HW263339   6.772   3.457   1.763
17093SOL     OW63340   6.282   3.103   0.517
17093SOL    HW163341   6.325   3.034   0.459
17093SOL    HW263342   6.246   3.060   0.600
17094SOL     OW63343   5.914   2.654   0.719
17094SOL    HW163344   5.906   2.752   0.737
17094SOL    HW263345   5.998   2.620   0.760
17095SOL     OW63346   5.760   2.134   0.234
17095SOL    HW163347   5.804   2.103   0.151
17095SOL    HW263348   5.761   2.234   0.238
17096SOL     OW63349   5.613   2.386   0.845
17096SOL    HW163350   5.577   2.479   0.837
17096SOL    HW263351   5.696   2.387   0.901
17097SOL     OW63352   6.048   2.973   0.231
17097SOL    HW163353   6.148   2.973   0.242
17097SOL    HW263354   6.017   3.066   0.210
17098SOL     OW63355   6.674   2.565   0.047
17098SOL    HW163356   6.605   2.622   0.003
17098SOL    HW263357   6.755   2.559  -0.012
17099SOL     OW63358   6.974   2.401   1.500
17099SOL    HW163359   6.926   2.424   1.584
17099SOL    HW263360   6.908   2.371   1.431
17100SOL     OW63361   5.882   2.891   1.145
17100SOL    HW163362   5.893   2.846   1.234
17100SOL    HW263363   5.909   2.987   1.152
17101SOL     OW63364   7.181   2.903   0.245
17101SOL    HW163365   7.252   2.973   0.247
17101SOL    HW263366   7.168   2.873   0.150
17102SOL     OW63367   6.163   2.504   1.167
17102SOL    HW163368   6.238   2.547   1.216
17102SOL    HW263369   6.096   2.469   1.233
17103SOL     OW63370   6.306   2.873   1.484
17103SOL    HW163371   6.375   2.925   1.434
17103SOL    HW263372   6.301   2.906   1.579
17104SOL     OW63373   6.698   2.894   1.644
17104SOL    HW163374   6.620   2.840   1.677
17104SOL    HW263375   6.779   2.872   1.699
17105SOL     OW63376   6.737   3.608   1.680
17105SOL    HW163377   6.642   3.606   1.648
17105SOL    HW263378   6.758   3.699   1.717
17106SOL     OW63379   5.855   3.618   1.278
17106SOL    HW163380   5.835   3.600   1.182
17106SOL    HW263381   5.782   3.580   1.335
17107SOL     OW63382   6.548   3.082   0.823
17107SOL    HW163383   6.587   3.125   0.742
17107SOL    HW263384   6.621   3.065   0.890
17108SOL     OW63385   6.242   2.810   1.025
17108SOL    HW163386   6.240   2.726   0.970
17108SOL    HW263387   6.191   2.796   1.110
17109SOL     OW63388   5.581   2.820   1.151
17109SOL    HW163389   5.670   2.798   1.191
17109SOL    HW263390   5.526   2.736   1.147
17110SOL     OW63391   6.225   2.482   1.759
17110SOL    HW163392   6.177   2.533   1.688
17110SOL    HW263393   6.318   2.461   1.729
17111SOL     OW63394   5.631   2.952   0.251
17111SOL    HW163395   5.621   2.855   0.230
17111SOL    HW263396   5.684   2.997   0.179
17112SOL     OW63397   7.328   2.064   0.852
17112SOL    HW163398   7.283   2.046   0.939
17112SOL    HW263399   7.426   2.081   0.868
17113SOL     OW63400   6.376   3.040   1.104
17113SOL    HW163401   6.327   2.955   1.085
17113SOL    HW263402   6.446   3.055   1.035
17114SOL     OW63403   7.075   3.278   1.640
17114SOL    HW163404   7.060   3.180   1.654
17114SOL    HW263405   6.992   3.320   1.604
17115SOL     OW63406   5.832   2.720   1.380
17115SOL    HW163407   5.796   2.630   1.406
17115SOL    HW263408   5.793   2.790   1.440
17116SOL     OW63409   6.152   3.553   1.072
17116SOL    HW163410   6.172   3.523   0.979
17116SOL    HW263411   6.077   3.498   1.109
17117SOL     OW63412   6.295   2.964   0.789
17117SOL    HW163413   6.384   3.010   0.789
17117SOL    HW263414   6.288   2.904   0.868
17118SOL     OW63415   5.663   2.658   0.858
17118SOL    HW163416   5.758   2.649   0.826
17118SOL    HW263417   5.629   2.750   0.837
17119SOL     OW63418   5.600   2.775   1.785
17119SOL    HW163419   5.515   2.726   1.766
17119SOL    HW263420   5.627   2.762   1.880
17120SOL     OW63421   6.497   3.684   1.491
17120SOL    HW163422   6.469   3.597   1.532
17120SOL    HW263423   6.441   3.758   1.528
17121SOL     OW63424   6.726   3.031   1.021
17121SOL    HW163425   6.710   3.125   1.052
17121SOL    HW263426   6.729   2.970   1.101
17122SOL     OW63427   6.000   2.302   1.785
17122SOL    HW163428   6.036   2.249   1.708
17122SOL    HW263429   6.061   2.379   1.803
17123SOL     OW63430   6.064   2.719   0.357
17123SOL    HW163431   6.014   2.784   0.301
17123SOL    HW263432   6.006   2.640   0.376
17124SOL     OW63433   7.145   2.750   1.055
17124SOL    HW163434   7.164   2.789   0.964
17124SOL    HW263435   7.099   2.819   1.111
17125SOL     OW63436   6.837   2.193   1.351
17125SOL    HW163437   6.908   2.165   1.415
17125SOL    HW263438   6.784   2.113   1.323
17126SOL     OW63439   6.759   1.993   1.793
17126SOL    HW163440   6.818   2.009   1.873
17126SOL    HW263441   6.706   2.076   1.774
17127SOL     OW63442   5.975   3.412   1.618
17127SOL    HW163443   5.917   3.477   1.667
17127SOL    HW263444   6.037   3.462   1.558
17128SOL     OW63445   7.331   3.299   1.559
17128SOL    HW163446   7.359   3.392   1.581
17128SOL    HW263447   7.238   3.283   1.592
17129SOL     OW63448   5.985   3.358   0.681
17129SOL    HW163449   5.983   3.259   0.694
17129SOL    HW263450   5.894   3.391   0.658
17130SOL     OW63451   6.626   3.475   1.269
17130SOL    HW163452   6.552   3.539   1.287
17130SOL    HW263453   6.705   3.524   1.231
17131SOL     OW63454   5.835   3.605   1.768
17131SOL    HW163455   5.878   3.689   1.734
17131SOL    HW263456   5.860   3.592   1.864
17132SOL     OW63457   5.695   3.141   1.639
17132SOL    HW163458   5.674   3.046   1.612
17132SOL    HW263459   5.626   3.202   1.601
17133SOL     OW63460   5.784   3.506   1.043
17133SOL    HW163461   5.726   3.426   1.057
17133SOL    HW263462   5.808   3.513   0.946
17134SOL     OW63463   7.183   2.300   0.778
17134SOL    HW163464   7.202   2.386   0.825
17134SOL    HW263465   7.251   2.231   0.806
17135SOL     OW63466   6.326   2.972   0.264
17135SOL    HW163467   6.398   3.031   0.229
17135SOL    HW263468   6.366   2.888   0.300
17136SOL     OW63469   6.397   1.948   0.116
17136SOL    HW163470   6.472   1.882   0.128
17136SOL    HW263471   6.428   2.039   0.144
17137SOL     OW63472   6.076   2.377   0.728
17137SOL    HW163473   6.114   2.288   0.754
17137SOL    HW263474   6.143   2.427   0.673
17138SOL     OW63475   6.064   2.935   1.382
17138SOL    HW163476   6.160   2.915   1.402
17138SOL    HW263477   6.053   3.033   1.364
17139SOL     OW63478   7.286   2.978   1.351
17139SOL    HW163479   7.300   3.076   1.365
17139SOL    HW263480   7.343   2.947   1.275
17140SOL     OW63481   5.769   3.087   0.043
17140SOL    HW163482   5.761   3.099  -0.056
17140SOL    HW263483   5.828   3.158   0.081
17141SOL     OW63484   6.846   2.949   1.427
17141SOL    HW163485   6.790   2.908   1.498
17141SOL    HW263486   6.826   3.047   1.421
17142SOL     OW63487   6.113   3.565   1.427
17142SOL    HW163488   6.162   3.645   1.391
17142SOL    HW263489   6.021   3.563   1.388
17143SOL     OW63490   5.756   2.446   1.789
17143SOL    HW163491   5.773   2.347   1.794
17143SOL    HW263492   5.820   2.494   1.850
17144SOL     OW63493   7.195   3.407   1.028
17144SOL    HW163494   7.167   3.500   1.052
17144SOL    HW263495   7.245   3.366   1.104
17145SOL     OW63496   5.591   2.780   0.589
17145SOL    HW163497   5.598   2.879   0.576
17145SOL    HW263498   5.500   2.757   0.623
17146SOL     OW63499   6.100   2.578   1.527
17146SOL    HW163500   6.006   2.548   1.508
17146SOL    HW263501   6.109   2.675   1.504
17147SOL     OW63502   7.167   2.954   0.839
17147SOL    HW163503   7.129   3.043   0.812
17147SOL    HW263504   7.167   2.892   0.761
17148SOL     OW63505   6.178   3.211   1.235
17148SOL    HW163506   6.091   3.210   1.186
17148SOL    HW263507   6.244   3.151   1.188
17149SOL     OW63508   5.744   2.553   1.149
17149SOL    HW163509   5.782   2.612   1.220
17149SOL    HW263510   5.727   2.606   1.067
17150SOL     OW63511   5.915   3.199   1.447
17150SOL    HW163512   5.934   3.287   1.491
17150SOL    HW263513   5.820   3.173   1.465
17151SOL     OW63514   7.158   3.515   1.795
17151SOL    HW163515   7.127   3.437   1.740
17151SOL    HW263516   7.127   3.600   1.753
17152SOL     OW63517   6.219   2.219   0.464
17152SOL    HW163518   6.121   2.213   0.444
17152SOL    HW263519   6.238   2.176   0.552
17153SOL     OW63520   7.139   1.902   0.723
17153SOL    HW163521   7.134   1.943   0.632
17153SOL    HW263522   7.220   1.936   0.770
17154SOL     OW63523   6.742   2.658   1.416
17154SOL    HW163524   6.841   2.667   1.406
17154SOL    HW263525   6.698   2.660   1.326
17155SOL     OW63526   6.236   2.618   0.818
17155SOL    HW163527   6.258   2.540   0.876
17155SOL    HW263528   6.245   2.592   0.722
17156SOL     OW63529   6.901   3.325   1.030
17156SOL    HW163530   6.815   3.282   1.059
17156SOL    HW263531   6.890   3.365   0.939
17157SOL     OW63532   6.631   3.326   2.537
17157SOL    HW163533   6.722   3.360   2.560
17157SOL    HW263534   6.603   3.364   2.449
17158SOL     OW63535   7.142   3.122   2.395
17158SOL    HW163536   7.153   3.206   2.449
17158SOL    HW263537   7.232   3.085   2.372
17159SOL     OW63538   7.222   2.404   3.259
17159SOL    HW163539   7.124   2.396   3.281
17159SOL    HW263540   7.275   2.393   3.343
17160SOL     OW63541   5.889   2.041   1.864
17160SOL    HW163542   5.802   2.038   1.815
17160SOL    HW263543   5.940   2.123   1.836
17161SOL     OW63544   6.754   1.941   3.197
17161SOL    HW163545   6.678   1.896   3.244
17161SOL    HW263546   6.783   1.886   3.119
17162SOL     OW63547   6.492   2.721   3.574
17162SOL    HW163548   6.457   2.696   3.484
17162SOL    HW263549   6.416   2.742   3.635
17163SOL     OW63550   6.099   3.395   2.268
17163SOL    HW163551   6.055   3.404   2.357
17163SOL    HW263552   6.170   3.325   2.272
17164SOL     OW63553   6.117   1.928   1.990
17164SOL    HW163554   6.205   1.956   1.951
17164SOL    HW263555   6.045   1.991   1.960
17165SOL     OW63556   7.087   2.913   3.373
17165SOL    HW163557   6.995   2.918   3.335
17165SOL    HW263558   7.152   2.951   3.307
17166SOL     OW63559   6.987   2.920   3.054
17166SOL    HW163560   6.912   2.909   3.119
17166SOL    HW263561   7.024   3.013   3.060
17167SOL     OW63562   6.483   3.175   3.354
17167SOL    HW163563   6.426   3.238   3.300
17167SOL    HW263564   6.516   3.101   3.295
17168SOL     OW63565   6.253   2.474   2.394
17168SOL    HW163566   6.292   2.544   2.335
17168SOL    HW263567   6.227   2.394   2.340
17169SOL     OW63568   6.873   2.382   3.603
17169SOL    HW163569   6.969   2.386   3.629
17169SOL    HW263570   6.829   2.306   3.650
17170SOL     OW63571   5.956   3.237   2.047
17170SOL    HW163572   6.020   3.253   1.972
17170SOL    HW263573   5.980   3.295   2.125
17171SOL     OW63574   6.107   2.193   2.857
17171SOL    HW163575   6.183   2.258   2.853
17171SOL    HW263576   6.137   2.104   2.824
17172SOL     OW63577   5.804   2.619   2.275
17172SOL    HW163578   5.819   2.553   2.349
17172SOL    HW263579   5.754   2.698   2.310
17173SOL     OW63580   6.390   3.564   2.452
17173SOL    HW163581   6.455   3.497   2.416
17173SOL    HW263582   6.380   3.640   2.388
17174SOL     OW63583   7.282   3.446   2.194
17174SOL    HW163584   7.378   3.420   2.187
17174SOL    HW263585   7.258   3.506   2.118
17175SOL     OW63586   7.194   2.139   2.965
17175SOL    HW163587   7.245   2.211   2.918
17175SOL    HW263588   7.099   2.166   2.974
17176SOL     OW63589   6.594   2.168   2.234
17176SOL    HW163590   6.619   2.262   2.255
17176SOL    HW263591   6.595   2.114   2.318
17177SOL     OW63592   6.044   2.526   1.962
17177SOL    HW163593   6.004   2.605   1.915
17177SOL    HW263594   6.133   2.505   1.922
17178SOL     OW63595   6.217   3.450   2.660
17178SOL    HW163596   6.290   3.473   2.596
17178SOL    HW263597   6.146   3.397   2.614
17179SOL     OW63598   6.559   2.482   3.414
17179SOL    HW163599   6.592   2.399   3.461
17179SOL    HW263600   6.632   2.550   3.413
17180SOL     OW63601   5.894   3.103   2.312
17180SOL    HW163602   5.940   3.077   2.397
17180SOL    HW263603   5.914   3.035   2.241
17181SOL     OW63604   6.752   2.158   2.023
17181SOL    HW163605   6.846   2.128   2.041
17181SOL    HW263606   6.700   2.158   2.109
17182SOL     OW63607   5.904   2.363   3.118
17182SOL    HW163608   5.894   2.276   3.070
17182SOL    HW263609   5.840   2.430   3.081
17183SOL     OW63610   6.986   2.643   3.156
17183SOL    HW163611   6.990   2.737   3.121
17183SOL    HW263612   7.079   2.612   3.178
17184SOL     OW63613   5.939   2.135   2.277
17184SOL    HW163614   5.893   2.175   2.356
17184SOL    HW263615   5.887   2.154   2.195
17185SOL     OW63616   7.362   2.380   3.044
17185SOL    HW163617   7.419   2.462   3.046
17185SOL    HW263618   7.303   2.379   3.124
17186SOL     OW63619   7.379   3.606   2.957
17186SOL    HW163620   7.425   3.616   3.045
17186SOL    HW263621   7.446   3.609   2.884
17187SOL     OW63622   6.492   2.346   2.519
17187SOL    HW163623   6.568   2.374   2.578
17187SOL    HW263624   6.448   2.426   2.480
17188SOL     OW63625   6.727   2.810   2.036
17188SOL    HW163626   6.764   2.760   2.114
17188SOL    HW263627   6.657   2.755   1.991
17189SOL     OW63628   6.569   2.232   3.657
17189SOL    HW163629   6.632   2.237   3.734
17189SOL    HW263630   6.477   2.210   3.690
17190SOL     OW63631   7.310   2.479   2.115
17190SOL    HW163632   7.331   2.398   2.061
17190SOL    HW263633   7.327   2.460   2.212
17191SOL     OW63634   6.604   3.617   2.023
17191SOL    HW163635   6.638   3.530   1.988
17191SOL    HW263636   6.572   3.605   2.117
17192SOL     OW63637   6.285   1.884   3.555
17192SOL    HW163638   6.292   1.790   3.522
17192SOL    HW263639   6.342   1.894   3.637
17193SOL     OW63640   7.208   2.485   2.823
17193SOL    HW163641   7.193   2.576   2.860
17193SOL    HW263642   7.278   2.438   2.877
17194SOL     OW63643   6.618   3.151   3.589
17194SOL    HW163644   6.640   3.061   3.551
17194SOL    HW263645   6.553   3.198   3.530
17195SOL     OW63646   6.273   2.993   3.593
17195SOL    HW163647   6.244   3.070   3.650
17195SOL    HW263648   6.283   2.912   3.651
17196SOL     OW63649   6.908   1.857   2.699
17196SOL    HW163650   6.857   1.941   2.681
17196SOL    HW263651   6.994   1.859   2.648
17197SOL     OW63652   7.263   2.063   3.628
17197SOL    HW163653   7.240   2.084   3.723
17197SOL    HW263654   7.239   1.968   3.608
17198SOL     OW63655   5.566   2.467   2.372
17198SOL    HW163656   5.568   2.418   2.459
17198SOL    HW263657   5.568   2.566   2.390
17199SOL     OW63658   5.887   2.055   2.693
17199SOL    HW163659   5.939   2.095   2.768
17199SOL    HW263660   5.940   1.982   2.650
17200SOL     OW63661   5.871   2.103   3.027
17200SOL    HW163662   5.836   2.010   3.027
17200SOL    HW263663   5.958   2.106   2.978
17201SOL     OW63664   6.538   2.725   2.767
17201SOL    HW163665   6.564   2.805   2.713
17201SOL    HW263666   6.532   2.645   2.707
17202SOL     OW63667   5.739   3.352   2.226
17202SOL    HW163668   5.766   3.258   2.246
17202SOL    HW263669   5.764   3.374   2.132
17203SOL     OW63670   5.753   3.495   2.463
17203SOL    HW163671   5.669   3.546   2.481
17203SOL    HW263672   5.744   3.444   2.378
17204SOL     OW63673   7.274   3.292   3.138
17204SOL    HW163674   7.305   3.306   3.232
17204SOL    HW263675   7.175   3.279   3.137
17205SOL     OW63676   6.026   2.792   1.865
17205SOL    HW163677   5.995   2.826   1.777
17205SOL    HW263678   6.030   2.867   1.931
17206SOL     OW63679   5.630   2.684   2.038
17206SOL    HW163680   5.690   2.631   2.098
17206SOL    HW263681   5.536   2.652   2.050
17207SOL     OW63682   7.150   2.682   2.238
17207SOL    HW163683   7.218   2.616   2.205
17207SOL    HW263684   7.165   2.770   2.194
17208SOL     OW63685   6.398   3.669   2.886
17208SOL    HW163686   6.444   3.602   2.828
17208SOL    HW263687   6.324   3.625   2.936
17209SOL     OW63688   6.305   2.738   1.922
17209SOL    HW163689   6.334   2.657   1.973
17209SOL    HW263690   6.205   2.737   1.913
17210SOL     OW63691   6.901   2.270   2.268
17210SOL    HW163692   6.838   2.328   2.216
17210SOL    HW263693   6.994   2.304   2.256
17211SOL     OW63694   5.798   2.471   3.368
17211SOL    HW163695   5.818   2.376   3.343
17211SOL    HW263696   5.761   2.474   3.461
17212SOL     OW63697   5.680   2.126   3.258
17212SOL    HW163698   5.752   2.136   3.189
17212SOL    HW263699   5.591   2.125   3.213
17213SOL     OW63700   7.169   2.281   2.338
17213SOL    HW163701   7.265   2.252   2.335
17213SOL    HW263702   7.130   2.259   2.427
17214SOL     OW63703   6.453   3.356   2.775
17214SOL    HW163704   6.511   3.367   2.694
17214SOL    HW263705   6.359   3.380   2.753
17215SOL     OW63706   6.403   2.222   2.060
17215SOL    HW163707   6.312   2.235   2.098
17215SOL    HW263708   6.463   2.182   2.130
17216SOL     OW63709   6.514   3.167   1.995
17216SOL    HW163710   6.567   3.107   2.055
17216SOL    HW263711   6.553   3.168   1.904
17217SOL     OW63712   6.680   2.735   2.469
17217SOL    HW163713   6.745   2.763   2.540
17217SOL    HW263714   6.601   2.796   2.471
17218SOL     OW63715   6.428   3.461   3.493
17218SOL    HW163716   6.416   3.392   3.422
17218SOL    HW263717   6.391   3.426   3.580
17219SOL     OW63718   6.872   2.775   2.672
17219SOL    HW163719   6.893   2.717   2.750
17219SOL    HW263720   6.881   2.871   2.698
17220SOL     OW63721   6.461   2.852   2.417
17220SOL    HW163722   6.448   2.763   2.374
17220SOL    HW263723   6.392   2.866   2.488
17221SOL     OW63724   6.765   3.240   3.256
17221SOL    HW163725   6.798   3.325   3.297
17221SOL    HW263726   6.666   3.236   3.263
17222SOL     OW63727   5.572   2.157   2.320
17222SOL    HW163728   5.632   2.108   2.258
17222SOL    HW263729   5.627   2.209   2.385
17223SOL     OW63730   6.359   2.622   3.169
17223SOL    HW163731   6.361   2.708   3.220
17223SOL    HW263732   6.416   2.554   3.216
17224SOL     OW63733   5.596   3.649   3.240
17224SOL    HW163734   5.604   3.749   3.238
17224SOL    HW263735   5.572   3.620   3.333
17225SOL     OW63736   6.377   2.668   2.234
17225SOL    HW163737   6.288   2.696   2.199
17225SOL    HW263738   6.418   2.602   2.170
17226SOL     OW63739   5.899   2.386   2.773
17226SOL    HW163740   5.955   2.379   2.690
17226SOL    HW263741   5.956   2.364   2.853
17227SOL     OW63742   5.896   3.584   2.044
17227SOL    HW163743   5.988   3.614   2.019
17227SOL    HW263744   5.871   3.623   2.133
17228SOL     OW63745   5.577   3.001   2.793
17228SOL    HW163746   5.487   3.017   2.754
17228SOL    HW263747   5.575   2.917   2.848
17229SOL     OW63748   6.328   1.906   2.243
17229SOL    HW163749   6.289   1.895   2.152
17229SOL    HW263750   6.284   1.982   2.290
17230SOL     OW63751   5.573   3.042   2.337
17230SOL    HW163752   5.651   3.100   2.361
17230SOL    HW263753   5.592   2.993   2.252
17231SOL     OW63754   7.103   2.170   3.421
17231SOL    HW163755   7.042   2.248   3.418
17231SOL    HW263756   7.158   2.174   3.504
17232SOL     OW63757   6.819   2.116   2.712
17232SOL    HW163758   6.818   2.194   2.649
17232SOL    HW263759   6.862   2.143   2.798
17233SOL     OW63760   6.939   1.922   2.008
17233SOL    HW163761   7.019   1.862   2.005
17233SOL    HW263762   6.865   1.875   2.056
17234SOL     OW63763   7.152   1.894   3.442
17234SOL    HW163764   7.178   1.851   3.356
17234SOL    HW263765   7.102   1.978   3.424
17235SOL     OW63766   6.254   2.153   2.574
17235SOL    HW163767   6.243   2.095   2.655
17235SOL    HW263768   6.339   2.205   2.582
17236SOL     OW63769   6.834   2.504   2.966
17236SOL    HW163770   6.888   2.544   2.892
17236SOL    HW263771   6.872   2.533   3.054
17237SOL     OW63772   7.127   1.910   2.282
17237SOL    HW163773   7.134   1.864   2.194
17237SOL    HW263774   7.031   1.920   2.307
17238SOL     OW63775   6.103   3.225   3.645
17238SOL    HW163776   6.064   3.288   3.578
17238SOL    HW263777   6.186   3.265   3.685
17239SOL     OW63778   5.979   2.957   3.477
17239SOL    HW163779   5.998   2.981   3.382
17239SOL    HW263780   5.972   3.040   3.532
17240SOL     OW63781   5.640   3.247   2.951
17240SOL    HW163782   5.609   3.173   2.892
17240SOL    HW263783   5.572   3.265   3.022
17241SOL     OW63784   6.726   2.448   2.684
17241SOL    HW163785   6.808   2.425   2.632
17241SOL    HW263786   6.721   2.389   2.765
17242SOL     OW63787   7.326   2.475   3.520
17242SOL    HW163788   7.315   2.561   3.469
17242SOL    HW263789   7.420   2.466   3.550
17243SOL     OW63790   6.897   2.248   2.939
17243SOL    HW163791   6.871   2.345   2.945
17243SOL    HW263792   6.897   2.208   3.031
17244SOL     OW63793   7.127   2.380   3.690
17244SOL    HW163794   7.207   2.405   3.634
17244SOL    HW263795   7.158   2.345   3.778
17245SOL     OW63796   6.838   2.683   2.270
17245SOL    HW163797   6.784   2.681   2.354
17245SOL    HW263798   6.915   2.746   2.281
17246SOL     OW63799   7.135   2.779   2.490
17246SOL    HW163800   7.149   2.742   2.397
17246SOL    HW263801   7.046   2.749   2.524
17247SOL     OW63802   7.291   2.716   3.385
17247SOL    HW163803   7.193   2.737   3.387
17247SOL    HW263804   7.340   2.792   3.344
17248SOL     OW63805   7.145   2.136   2.064
17248SOL    HW163806   7.150   2.178   2.155
17248SOL    HW263807   7.078   2.061   2.066
17249SOL     OW63808   6.292   3.351   3.284
17249SOL    HW163809   6.229   3.429   3.291
17249SOL    HW263810   6.260   3.289   3.212
17250SOL     OW63811   5.683   2.146   3.549
17250SOL    HW163812   5.701   2.135   3.451
17250SOL    HW263813   5.585   2.142   3.566
17251SOL     OW63814   5.563   3.560   3.493
17251SOL    HW163815   5.635   3.546   3.561
17251SOL    HW263816   5.474   3.563   3.538
17252SOL     OW63817   5.731   2.216   2.517
17252SOL    HW163818   5.674   2.271   2.578
17252SOL    HW263819   5.801   2.168   2.570
17253SOL     OW63820   6.903   3.448   3.380
17253SOL    HW163821   6.856   3.516   3.435
17253SOL    HW263822   6.970   3.494   3.321
17254SOL     OW63823   5.868   2.407   2.115
17254SOL    HW163824   5.940   2.436   2.052
17254SOL    HW263825   5.824   2.487   2.155
17255SOL     OW63826   7.254   2.069   3.218
17255SOL    HW163827   7.210   2.117   3.294
17255SOL    HW263828   7.232   2.115   3.132
17256SOL     OW63829   5.983   3.670   2.581
17256SOL    HW163830   5.907   3.636   2.526
17256SOL    HW263831   6.069   3.633   2.546
17257SOL     OW63832   5.908   3.179   3.026
17257SOL    HW163833   5.920   3.195   3.123
17257SOL    HW263834   5.821   3.219   2.996
17258SOL     OW63835   6.792   3.383   3.672
17258SOL    HW163836   6.751   3.298   3.638
17258SOL    HW263837   6.772   3.457   3.608
17259SOL     OW63838   6.282   3.103   2.362
17259SOL    HW163839   6.325   3.034   2.304
17259SOL    HW263840   6.246   3.060   2.445
17260SOL     OW63841   5.760   2.134   2.079
17260SOL    HW163842   5.804   2.103   1.996
17260SOL    HW263843   5.761   2.234   2.083
17261SOL     OW63844   5.613   2.386   2.690
17261SOL    HW163845   5.577   2.479   2.682
17261SOL    HW263846   5.696   2.387   2.746
17262SOL     OW63847   6.048   2.973   2.076
17262SOL    HW163848   6.148   2.973   2.087
17262SOL    HW263849   6.017   3.066   2.055
17263SOL     OW63850   6.674   2.565   1.892
17263SOL    HW163851   6.605   2.622   1.848
17263SOL    HW263852   6.755   2.559   1.833
17264SOL     OW63853   6.409   2.484   2.035
17264SOL    HW163854   6.499   2.485   1.990
17264SOL    HW263855   6.386   2.390   2.060
17265SOL     OW63856   6.860   2.001   2.329
17265SOL    HW163857   6.770   1.985   2.370
17265SOL    HW263858   6.868   2.097   2.303
17266SOL     OW63859   6.974   2.401   3.345
17266SOL    HW163860   6.926   2.424   3.429
17266SOL    HW263861   6.908   2.371   3.276
17267SOL     OW63862   5.609   1.916   1.989
17267SOL    HW163863   5.672   1.839   1.997
17267SOL    HW263864   5.629   1.984   2.060
17268SOL     OW63865   5.882   2.891   2.990
17268SOL    HW163866   5.893   2.846   3.079
17268SOL    HW263867   5.909   2.987   2.997
17269SOL     OW63868   7.181   2.903   2.090
17269SOL    HW163869   7.252   2.973   2.092
17269SOL    HW263870   7.168   2.873   1.995
17270SOL     OW63871   6.163   2.504   3.012
17270SOL    HW163872   6.238   2.547   3.061
17270SOL    HW263873   6.096   2.469   3.078
17271SOL     OW63874   6.306   2.873   3.329
17271SOL    HW163875   6.375   2.925   3.279
17271SOL    HW263876   6.301   2.906   3.424
17272SOL     OW63877   6.698   2.894   3.489
17272SOL    HW163878   6.620   2.840   3.522
17272SOL    HW263879   6.779   2.872   3.544
17273SOL     OW63880   6.627   2.076   2.485
17273SOL    HW163881   6.686   2.136   2.540
17273SOL    HW263882   6.554   2.040   2.542
17274SOL     OW63883   6.737   3.608   3.525
17274SOL    HW163884   6.642   3.606   3.493
17274SOL    HW263885   6.758   3.699   3.562
17275SOL     OW63886   6.155   1.953   2.756
17275SOL    HW163887   6.083   1.886   2.742
17275SOL    HW263888   6.237   1.907   2.791
17276SOL     OW63889   5.855   3.618   3.123
17276SOL    HW163890   5.835   3.600   3.027
17276SOL    HW263891   5.782   3.580   3.180
17277SOL     OW63892   5.581   2.820   2.996
17277SOL    HW163893   5.670   2.798   3.036
17277SOL    HW263894   5.526   2.736   2.992
17278SOL     OW63895   5.809   1.865   2.276
17278SOL    HW163896   5.847   1.953   2.303
17278SOL    HW263897   5.732   1.841   2.336
17279SOL     OW63898   6.225   2.482   3.604
17279SOL    HW163899   6.177   2.533   3.533
17279SOL    HW263900   6.318   2.461   3.574
17280SOL     OW63901   5.631   2.952   2.096
17280SOL    HW163902   5.621   2.855   2.075
17280SOL    HW263903   5.684   2.997   2.024
17281SOL     OW63904   7.328   2.064   2.697
17281SOL    HW163905   7.283   2.046   2.784
17281SOL    HW263906   7.426   2.081   2.713
17282SOL     OW63907   6.714   2.463   2.158
17282SOL    HW163908   6.766   2.535   2.204
17282SOL    HW263909   6.727   2.470   2.060
17283SOL     OW63910   7.075   3.278   3.485
17283SOL    HW163911   7.060   3.180   3.499
17283SOL    HW263912   6.992   3.320   3.449
17284SOL     OW63913   5.832   2.720   3.225
17284SOL    HW163914   5.796   2.630   3.251
17284SOL    HW263915   5.793   2.790   3.285
17285SOL     OW63916   6.334   3.346   1.883
17285SOL    HW163917   6.309   3.423   1.942
17285SOL    HW263918   6.398   3.286   1.931
17286SOL     OW63919   6.152   3.553   2.917
17286SOL    HW163920   6.172   3.523   2.824
17286SOL    HW263921   6.077   3.498   2.954
17287SOL     OW63922   6.497   3.684   3.336
17287SOL    HW163923   6.469   3.597   3.377
17287SOL    HW263924   6.441   3.758   3.373
17288SOL     OW63925   6.000   2.302   3.630
17288SOL    HW163926   6.036   2.249   3.553
17288SOL    HW263927   6.061   2.379   3.648
17289SOL     OW63928   6.064   2.719   2.202
17289SOL    HW163929   6.014   2.784   2.146
17289SOL    HW263930   6.006   2.640   2.221
17290SOL     OW63931   7.145   2.750   2.900
17290SOL    HW163932   7.164   2.789   2.809
17290SOL    HW263933   7.099   2.819   2.956
17291SOL     OW63934   6.837   2.193   3.196
17291SOL    HW163935   6.908   2.165   3.260
17291SOL    HW263936   6.784   2.113   3.168
17292SOL     OW63937   5.538   1.892   2.397
17292SOL    HW163938   5.451   1.879   2.350
17292SOL    HW263939   5.546   1.987   2.427
17293SOL     OW63940   6.759   1.993   3.638
17293SOL    HW163941   6.818   2.009   3.718
17293SOL    HW263942   6.706   2.076   3.619
17294SOL     OW63943   5.975   3.412   3.463
17294SOL    HW163944   5.917   3.477   3.512
17294SOL    HW263945   6.037   3.462   3.403
17295SOL     OW63946   7.331   3.299   3.404
17295SOL    HW163947   7.359   3.392   3.426
17295SOL    HW263948   7.238   3.283   3.437
17296SOL     OW63949   6.581   2.412   2.954
17296SOL    HW163950   6.667   2.463   2.953
17296SOL    HW263951   6.587   2.338   3.021
17297SOL     OW63952   5.985   3.358   2.526
17297SOL    HW163953   5.983   3.259   2.539
17297SOL    HW263954   5.894   3.391   2.503
17298SOL     OW63955   6.626   3.475   3.114
17298SOL    HW163956   6.552   3.539   3.132
17298SOL    HW263957   6.705   3.524   3.076
17299SOL     OW63958   5.835   3.605   3.613
17299SOL    HW163959   5.878   3.689   3.579
17299SOL    HW263960   5.860   3.592   3.709
17300SOL     OW63961   5.695   3.141   3.484
17300SOL    HW163962   5.674   3.046   3.457
17300SOL    HW263963   5.626   3.202   3.446
17301SOL     OW63964   5.784   3.506   2.888
17301SOL    HW163965   5.726   3.426   2.902
17301SOL    HW263966   5.808   3.513   2.791
17302SOL     OW63967   6.530   2.027   2.743
17302SOL    HW163968   6.626   2.028   2.771
17302SOL    HW263969   6.475   1.984   2.815
17303SOL     OW63970   6.592   3.033   2.259
17303SOL    HW163971   6.672   3.069   2.307
17303SOL    HW263972   6.550   2.960   2.315
17304SOL     OW63973   7.183   2.300   2.623
17304SOL    HW163974   7.202   2.386   2.670
17304SOL    HW263975   7.251   2.231   2.651
17305SOL     OW63976   6.326   2.972   2.109
17305SOL    HW163977   6.398   3.031   2.074
17305SOL    HW263978   6.366   2.888   2.145
17306SOL     OW63979   6.397   1.948   1.961
17306SOL    HW163980   6.472   1.882   1.973
17306SOL    HW263981   6.428   2.039   1.989
17307SOL     OW63982   6.076   2.377   2.573
17307SOL    HW163983   6.114   2.288   2.599
17307SOL    HW263984   6.143   2.427   2.518
17308SOL     OW63985   6.064   2.935   3.227
17308SOL    HW163986   6.160   2.915   3.247
17308SOL    HW263987   6.053   3.033   3.209
17309SOL     OW63988   7.286   2.978   3.196
17309SOL    HW163989   7.300   3.076   3.210
17309SOL    HW263990   7.343   2.947   3.120
17310SOL     OW63991   5.769   3.087   1.888
17310SOL    HW163992   5.761   3.099   1.789
17310SOL    HW263993   5.828   3.158   1.926
17311SOL     OW63994   6.196   3.526   2.048
17311SOL    HW163995   6.171   3.621   2.032
17311SOL    HW263996   6.163   3.498   2.138
17312SOL     OW63997   6.846   2.949   3.272
17312SOL    HW163998   6.790   2.908   3.343
17312SOL    HW263999   6.826   3.047   3.266
17313SOL     OW64000   6.113   3.565   3.272
17313SOL    HW164001   6.162   3.645   3.236
17313SOL    HW264002   6.021   3.563   3.233
17314SOL     OW64003   5.756   2.446   3.634
17314SOL    HW164004   5.773   2.347   3.639
17314SOL    HW264005   5.820   2.494   3.695
17315SOL     OW64006   5.591   2.780   2.434
17315SOL    HW164007   5.598   2.879   2.421
17315SOL    HW264008   5.500   2.757   2.468
17316SOL     OW64009   6.100   2.578   3.372
17316SOL    HW164010   6.006   2.548   3.353
17316SOL    HW264011   6.109   2.675   3.349
17317SOL     OW64012   6.325   2.360   2.853
17317SOL    HW164013   6.417   2.388   2.880
17317SOL    HW264014   6.257   2.411   2.907
17318SOL     OW64015   6.178   3.211   3.080
17318SOL    HW164016   6.091   3.210   3.031
17318SOL    HW264017   6.244   3.151   3.033
17319SOL     OW64018   5.744   2.553   2.994
17319SOL    HW164019   5.782   2.612   3.065
17319SOL    HW264020   5.727   2.606   2.912
17320SOL     OW64021   5.915   3.199   3.292
17320SOL    HW164022   5.934   3.287   3.336
17320SOL    HW264023   5.820   3.173   3.310
17321SOL     OW64024   7.158   3.515   3.640
17321SOL    HW164025   7.127   3.437   3.585
17321SOL    HW264026   7.127   3.600   3.598
17322SOL     OW64027   6.866   3.053   2.361
17322SOL    HW164028   6.965   3.057   2.377
17322SOL    HW264029   6.849   3.039   2.263
17323SOL     OW64030   6.219   2.219   2.309
17323SOL    HW164031   6.121   2.213   2.289
17323SOL    HW264032   6.238   2.176   2.397
17324SOL     OW64033   7.139   1.902   2.568
17324SOL    HW164034   7.134   1.943   2.477
17324SOL    HW264035   7.220   1.936   2.615
17325SOL     OW64036   6.742   2.658   3.261
17325SOL    HW164037   6.841   2.667   3.251
17325SOL    HW264038   6.698   2.660   3.171
17326SOL     OW64039   6.904   2.310   2.550
17326SOL    HW164040   6.903   2.302   2.451
17326SOL    HW264041   6.993   2.282   2.585
17327SOL     OW64042   6.631   3.326   4.383
17327SOL    HW164043   6.722   3.360   4.406
17327SOL    HW264044   6.603   3.364   4.295
17328SOL     OW64045   7.142   3.122   4.241
17328SOL    HW164046   7.153   3.206   4.295
17328SOL    HW264047   7.232   3.085   4.218
17329SOL     OW64048   7.222   2.404   5.105
17329SOL    HW164049   7.124   2.396   5.127
17329SOL    HW264050   7.275   2.393   5.189
17330SOL     OW64051   5.889   2.041   3.710
17330SOL    HW164052   5.802   2.038   3.661
17330SOL    HW264053   5.940   2.123   3.682
17331SOL     OW64054   6.876   3.430   4.485
17331SOL    HW164055   6.865   3.527   4.508
17331SOL    HW264056   6.969   3.413   4.455
17332SOL     OW64057   6.754   1.941   5.043
17332SOL    HW164058   6.678   1.896   5.090
17332SOL    HW264059   6.783   1.886   4.965
17333SOL     OW64060   6.492   2.721   5.420
17333SOL    HW164061   6.457   2.696   5.330
17333SOL    HW264062   6.416   2.742   5.481
17334SOL     OW64063   6.099   3.395   4.114
17334SOL    HW164064   6.055   3.404   4.203
17334SOL    HW264065   6.170   3.325   4.118
17335SOL     OW64066   6.117   1.928   3.836
17335SOL    HW164067   6.205   1.956   3.797
17335SOL    HW264068   6.045   1.991   3.806
17336SOL     OW64069   7.087   2.913   5.219
17336SOL    HW164070   6.995   2.918   5.181
17336SOL    HW264071   7.152   2.951   5.153
17337SOL     OW64072   6.987   2.920   4.900
17337SOL    HW164073   6.912   2.909   4.965
17337SOL    HW264074   7.024   3.013   4.906
17338SOL     OW64075   6.483   3.175   5.200
17338SOL    HW164076   6.426   3.238   5.146
17338SOL    HW264077   6.516   3.101   5.141
17339SOL     OW64078   6.026   3.068   4.409
17339SOL    HW164079   5.959   3.022   4.468
17339SOL    HW264080   6.118   3.036   4.432
17340SOL     OW64081   6.873   2.382   5.449
17340SOL    HW164082   6.969   2.386   5.475
17340SOL    HW264083   6.829   2.306   5.496
17341SOL     OW64084   5.956   3.237   3.893
17341SOL    HW164085   6.020   3.253   3.818
17341SOL    HW264086   5.980   3.295   3.971
17342SOL     OW64087   5.804   2.619   4.121
17342SOL    HW164088   5.819   2.553   4.195
17342SOL    HW264089   5.754   2.698   4.156
17343SOL     OW64090   6.390   3.564   4.298
17343SOL    HW164091   6.455   3.497   4.262
17343SOL    HW264092   6.380   3.640   4.234
17344SOL     OW64093   7.282   3.446   4.040
17344SOL    HW164094   7.378   3.420   4.033
17344SOL    HW264095   7.258   3.506   3.964
17345SOL     OW64096   7.194   2.139   4.811
17345SOL    HW164097   7.245   2.211   4.764
17345SOL    HW264098   7.099   2.166   4.820
17346SOL     OW64099   6.594   2.168   4.080
17346SOL    HW164100   6.619   2.262   4.101
17346SOL    HW264101   6.595   2.114   4.164
17347SOL     OW64102   5.718   2.881   5.265
17347SOL    HW164103   5.814   2.896   5.283
17347SOL    HW264104   5.680   2.819   5.334
17348SOL     OW64105   6.044   2.526   3.808
17348SOL    HW164106   6.004   2.605   3.761
17348SOL    HW264107   6.133   2.505   3.768
17349SOL     OW64108   6.217   3.450   4.506
17349SOL    HW164109   6.290   3.473   4.442
17349SOL    HW264110   6.146   3.397   4.460
17350SOL     OW64111   6.559   2.482   5.260
17350SOL    HW164112   6.592   2.399   5.307
17350SOL    HW264113   6.632   2.550   5.259
17351SOL     OW64114   7.163   3.282   4.482
17351SOL    HW164115   7.159   3.317   4.575
17351SOL    HW264116   7.222   3.341   4.426
17352SOL     OW64117   5.894   3.103   4.158
17352SOL    HW164118   5.940   3.077   4.243
17352SOL    HW264119   5.914   3.035   4.087
17353SOL     OW64120   6.752   2.158   3.869
17353SOL    HW164121   6.846   2.128   3.887
17353SOL    HW264122   6.700   2.158   3.955
17354SOL     OW64123   5.904   2.363   4.964
17354SOL    HW164124   5.894   2.276   4.916
17354SOL    HW264125   5.840   2.430   4.927
17355SOL     OW64126   6.986   2.643   5.002
17355SOL    HW164127   6.990   2.737   4.967
17355SOL    HW264128   7.079   2.612   5.024
17356SOL     OW64129   5.939   2.135   4.123
17356SOL    HW164130   5.893   2.175   4.202
17356SOL    HW264131   5.887   2.154   4.041
17357SOL     OW64132   7.067   3.662   5.035
17357SOL    HW164133   7.010   3.613   4.969
17357SOL    HW264134   7.153   3.689   4.992
17358SOL     OW64135   7.362   2.380   4.890
17358SOL    HW164136   7.419   2.462   4.892
17358SOL    HW264137   7.303   2.379   4.970
17359SOL     OW64138   7.379   3.606   4.803
17359SOL    HW164139   7.425   3.616   4.891
17359SOL    HW264140   7.446   3.609   4.730
17360SOL     OW64141   6.727   2.810   3.882
17360SOL    HW164142   6.764   2.760   3.960
17360SOL    HW264143   6.657   2.755   3.837
17361SOL     OW64144   6.569   2.232   5.503
17361SOL    HW164145   6.632   2.237   5.580
17361SOL    HW264146   6.477   2.210   5.536
17362SOL     OW64147   7.310   2.479   3.961
17362SOL    HW164148   7.331   2.398   3.907
17362SOL    HW264149   7.327   2.460   4.058
17363SOL     OW64150   6.604   3.617   3.869
17363SOL    HW164151   6.638   3.530   3.834
17363SOL    HW264152   6.572   3.605   3.963
17364SOL     OW64153   6.285   1.884   5.401
17364SOL    HW164154   6.292   1.790   5.368
17364SOL    HW264155   6.342   1.894   5.483
17365SOL     OW64156   7.208   2.485   4.669
17365SOL    HW164157   7.193   2.576   4.706
17365SOL    HW264158   7.278   2.438   4.723
17366SOL     OW64159   6.618   3.151   5.435
17366SOL    HW164160   6.640   3.061   5.397
17366SOL    HW264161   6.553   3.198   5.376
17367SOL     OW64162   6.273   2.993   5.439
17367SOL    HW164163   6.244   3.070   5.496
17367SOL    HW264164   6.283   2.912   5.497
17368SOL     OW64165   6.908   1.857   4.545
17368SOL    HW164166   6.857   1.941   4.527
17368SOL    HW264167   6.994   1.859   4.494
17369SOL     OW64168   7.263   2.063   5.474
17369SOL    HW164169   7.240   2.084   5.569
17369SOL    HW264170   7.239   1.968   5.454
17370SOL     OW64171   5.566   2.467   4.218
17370SOL    HW164172   5.568   2.418   4.305
17370SOL    HW264173   5.568   2.566   4.236
17371SOL     OW64174   5.887   2.055   4.539
17371SOL    HW164175   5.939   2.095   4.614
17371SOL    HW264176   5.940   1.982   4.496
17372SOL     OW64177   5.871   2.103   4.873
17372SOL    HW164178   5.836   2.010   4.873
17372SOL    HW264179   5.958   2.106   4.824
17373SOL     OW64180   6.538   2.725   4.613
17373SOL    HW164181   6.564   2.805   4.559
17373SOL    HW264182   6.532   2.645   4.553
17374SOL     OW64183   5.739   3.352   4.072
17374SOL    HW164184   5.766   3.258   4.092
17374SOL    HW264185   5.764   3.374   3.978
17375SOL     OW64186   7.021   3.221   4.946
17375SOL    HW164187   6.992   3.258   4.857
17375SOL    HW264188   6.943   3.221   5.008
17376SOL     OW64189   5.753   3.495   4.309
17376SOL    HW164190   5.669   3.546   4.327
17376SOL    HW264191   5.744   3.444   4.224
17377SOL     OW64192   7.274   3.292   4.984
17377SOL    HW164193   7.305   3.306   5.078
17377SOL    HW264194   7.175   3.279   4.983
17378SOL     OW64195   6.026   2.792   3.711
17378SOL    HW164196   5.995   2.826   3.623
17378SOL    HW264197   6.030   2.867   3.777
17379SOL     OW64198   6.543   2.979   5.010
17379SOL    HW164199   6.593   2.894   4.994
17379SOL    HW264200   6.497   3.006   4.925
17380SOL     OW64201   5.630   2.684   3.884
17380SOL    HW164202   5.690   2.631   3.944
17380SOL    HW264203   5.536   2.652   3.896
17381SOL     OW64204   7.150   2.682   4.084
17381SOL    HW164205   7.218   2.616   4.051
17381SOL    HW264206   7.165   2.770   4.040
17382SOL     OW64207   6.398   3.669   4.732
17382SOL    HW164208   6.444   3.602   4.674
17382SOL    HW264209   6.324   3.625   4.782
17383SOL     OW64210   6.305   2.738   3.768
17383SOL    HW164211   6.334   2.657   3.819
17383SOL    HW264212   6.205   2.737   3.759
17384SOL     OW64213   6.901   2.270   4.114
17384SOL    HW164214   6.838   2.328   4.062
17384SOL    HW264215   6.994   2.304   4.102
17385SOL     OW64216   5.798   2.471   5.214
17385SOL    HW164217   5.818   2.376   5.189
17385SOL    HW264218   5.761   2.474   5.307
17386SOL     OW64219   5.680   2.126   5.104
17386SOL    HW164220   5.752   2.136   5.035
17386SOL    HW264221   5.591   2.125   5.059
17387SOL     OW64222   6.578   2.747   4.869
17387SOL    HW164223   6.572   2.733   4.770
17387SOL    HW264224   6.497   2.708   4.913
17388SOL     OW64225   7.169   2.281   4.184
17388SOL    HW164226   7.265   2.252   4.181
17388SOL    HW264227   7.130   2.259   4.273
17389SOL     OW64228   6.453   3.356   4.621
17389SOL    HW164229   6.511   3.367   4.540
17389SOL    HW264230   6.359   3.380   4.599
17390SOL     OW64231   6.403   2.222   3.906
17390SOL    HW164232   6.312   2.235   3.944
17390SOL    HW264233   6.463   2.182   3.976
17391SOL     OW64234   6.514   3.167   3.841
17391SOL    HW164235   6.567   3.107   3.901
17391SOL    HW264236   6.553   3.168   3.750
17392SOL     OW64237   7.265   3.462   4.326
17392SOL    HW164238   7.232   3.555   4.345
17392SOL    HW264239   7.263   3.446   4.227
17393SOL     OW64240   6.680   2.735   4.315
17393SOL    HW164241   6.745   2.763   4.386
17393SOL    HW264242   6.601   2.796   4.317
17394SOL     OW64243   6.428   3.461   5.339
17394SOL    HW164244   6.416   3.392   5.268
17394SOL    HW264245   6.391   3.426   5.426
17395SOL     OW64246   6.872   2.775   4.518
17395SOL    HW164247   6.893   2.717   4.596
17395SOL    HW264248   6.881   2.871   4.544
17396SOL     OW64249   5.828   2.904   4.564
17396SOL    HW164250   5.751   2.966   4.557
17396SOL    HW264251   5.865   2.905   4.657
17397SOL     OW64252   6.461   2.852   4.263
17397SOL    HW164253   6.448   2.763   4.220
17397SOL    HW264254   6.392   2.866   4.334
17398SOL     OW64255   6.765   3.240   5.102
17398SOL    HW164256   6.798   3.325   5.143
17398SOL    HW264257   6.666   3.236   5.109
17399SOL     OW64258   5.572   2.157   4.166
17399SOL    HW164259   5.632   2.108   4.104
17399SOL    HW264260   5.627   2.209   4.231
17400SOL     OW64261   7.195   3.655   3.857
17400SOL    HW164262   7.285   3.699   3.859
17400SOL    HW264263   7.194   3.586   3.785
17401SOL     OW64264   6.359   2.622   5.015
17401SOL    HW164265   6.361   2.708   5.066
17401SOL    HW264266   6.416   2.554   5.062
17402SOL     OW64267   6.377   2.668   4.080
17402SOL    HW164268   6.288   2.696   4.045
17402SOL    HW264269   6.418   2.602   4.016
17403SOL     OW64270   5.896   3.584   3.890
17403SOL    HW164271   5.988   3.614   3.865
17403SOL    HW264272   5.871   3.623   3.979
17404SOL     OW64273   6.872   3.606   4.827
17404SOL    HW164274   6.891   3.669   4.753
17404SOL    HW264275   6.880   3.512   4.794
17405SOL     OW64276   5.577   3.001   4.639
17405SOL    HW164277   5.487   3.017   4.600
17405SOL    HW264278   5.575   2.917   4.694
17406SOL     OW64279   6.328   1.906   4.089
17406SOL    HW164280   6.289   1.895   3.998
17406SOL    HW264281   6.284   1.982   4.136
17407SOL     OW64282   5.573   3.042   4.183
17407SOL    HW164283   5.651   3.100   4.207
17407SOL    HW264284   5.592   2.993   4.098
17408SOL     OW64285   7.103   2.170   5.267
17408SOL    HW164286   7.042   2.248   5.264
17408SOL    HW264287   7.158   2.174   5.350
17409SOL     OW64288   6.819   2.116   4.558
17409SOL    HW164289   6.818   2.194   4.495
17409SOL    HW264290   6.862   2.143   4.644
17410SOL     OW64291   6.939   1.922   3.854
17410SOL    HW164292   7.019   1.862   3.851
17410SOL    HW264293   6.865   1.875   3.902
17411SOL     OW64294   7.152   1.894   5.288
17411SOL    HW164295   7.178   1.851   5.202
17411SOL    HW264296   7.102   1.978   5.270
17412SOL     OW64297   6.254   2.153   4.420
17412SOL    HW164298   6.243   2.095   4.501
17412SOL    HW264299   6.339   2.205   4.428
17413SOL     OW64300   6.834   2.504   4.812
17413SOL    HW164301   6.888   2.544   4.738
17413SOL    HW264302   6.872   2.533   4.900
17414SOL     OW64303   7.127   1.910   4.128
17414SOL    HW164304   7.134   1.864   4.040
17414SOL    HW264305   7.031   1.920   4.153
17415SOL     OW64306   6.103   3.225   5.491
17415SOL    HW164307   6.064   3.288   5.424
17415SOL    HW264308   6.186   3.265   5.531
17416SOL     OW64309   5.979   2.957   5.323
17416SOL    HW164310   5.998   2.981   5.228
17416SOL    HW264311   5.972   3.040   5.378
17417SOL     OW64312   5.640   3.247   4.797
17417SOL    HW164313   5.609   3.173   4.738
17417SOL    HW264314   5.572   3.265   4.868
17418SOL     OW64315   6.726   2.448   4.530
17418SOL    HW164316   6.808   2.425   4.478
17418SOL    HW264317   6.721   2.389   4.611
17419SOL     OW64318   7.326   2.475   5.366
17419SOL    HW164319   7.315   2.561   5.315
17419SOL    HW264320   7.420   2.466   5.396
17420SOL     OW64321   6.897   2.248   4.785
17420SOL    HW164322   6.871   2.345   4.791
17420SOL    HW264323   6.897   2.208   4.877
17421SOL     OW64324   7.127   2.380   5.536
17421SOL    HW164325   7.207   2.405   5.480
17421SOL    HW264326   7.158   2.345   5.624
17422SOL     OW64327   6.838   2.683   4.116
17422SOL    HW164328   6.784   2.681   4.200
17422SOL    HW264329   6.915   2.746   4.127
17423SOL     OW64330   7.135   2.779   4.336
17423SOL    HW164331   7.149   2.742   4.243
17423SOL    HW264332   7.046   2.749   4.370
17424SOL     OW64333   7.291   2.716   5.231
17424SOL    HW164334   7.193   2.737   5.233
17424SOL    HW264335   7.340   2.792   5.190
17425SOL     OW64336   7.145   2.136   3.910
17425SOL    HW164337   7.150   2.178   4.001
17425SOL    HW264338   7.078   2.061   3.912
17426SOL     OW64339   6.292   3.351   5.130
17426SOL    HW164340   6.229   3.429   5.137
17426SOL    HW264341   6.260   3.289   5.058
17427SOL     OW64342   5.683   2.146   5.395
17427SOL    HW164343   5.701   2.135   5.297
17427SOL    HW264344   5.585   2.142   5.412
17428SOL     OW64345   5.731   2.216   4.363
17428SOL    HW164346   5.674   2.271   4.424
17428SOL    HW264347   5.801   2.168   4.416
17429SOL     OW64348   6.903   3.448   5.226
17429SOL    HW164349   6.856   3.516   5.281
17429SOL    HW264350   6.970   3.494   5.167
17430SOL     OW64351   5.868   2.407   3.961
17430SOL    HW164352   5.940   2.436   3.898
17430SOL    HW264353   5.824   2.487   4.001
17431SOL     OW64354   7.254   2.069   5.064
17431SOL    HW164355   7.210   2.117   5.140
17431SOL    HW264356   7.232   2.115   4.978
17432SOL     OW64357   5.983   3.670   4.427
17432SOL    HW164358   5.907   3.636   4.372
17432SOL    HW264359   6.069   3.633   4.392
17433SOL     OW64360   5.908   3.179   4.872
17433SOL    HW164361   5.920   3.195   4.969
17433SOL    HW264362   5.821   3.219   4.842
17434SOL     OW64363   6.792   3.383   5.518
17434SOL    HW164364   6.751   3.298   5.484
17434SOL    HW264365   6.772   3.457   5.454
17435SOL     OW64366   6.282   3.103   4.208
17435SOL    HW164367   6.325   3.034   4.150
17435SOL    HW264368   6.246   3.060   4.291
17436SOL     OW64369   5.914   2.654   4.410
17436SOL    HW164370   5.906   2.752   4.428
17436SOL    HW264371   5.998   2.620   4.451
17437SOL     OW64372   5.760   2.134   3.925
17437SOL    HW164373   5.804   2.103   3.842
17437SOL    HW264374   5.761   2.234   3.929
17438SOL     OW64375   5.613   2.386   4.536
17438SOL    HW164376   5.577   2.479   4.528
17438SOL    HW264377   5.696   2.387   4.592
17439SOL     OW64378   6.048   2.973   3.922
17439SOL    HW164379   6.148   2.973   3.933
17439SOL    HW264380   6.017   3.066   3.901
17440SOL     OW64381   6.674   2.565   3.738
17440SOL    HW164382   6.605   2.622   3.694
17440SOL    HW264383   6.755   2.559   3.679
17441SOL     OW64384   6.409   2.484   3.881
17441SOL    HW164385   6.499   2.485   3.836
17441SOL    HW264386   6.386   2.390   3.906
17442SOL     OW64387   6.860   2.001   4.175
17442SOL    HW164388   6.770   1.985   4.216
17442SOL    HW264389   6.868   2.097   4.149
17443SOL     OW64390   6.974   2.401   5.191
17443SOL    HW164391   6.926   2.424   5.275
17443SOL    HW264392   6.908   2.371   5.122
17444SOL     OW64393   5.609   1.916   3.835
17444SOL    HW164394   5.672   1.839   3.843
17444SOL    HW264395   5.629   1.984   3.906
17445SOL     OW64396   5.882   2.891   4.836
17445SOL    HW164397   5.893   2.846   4.925
17445SOL    HW264398   5.909   2.987   4.843
17446SOL     OW64399   7.181   2.903   3.936
17446SOL    HW164400   7.252   2.973   3.938
17446SOL    HW264401   7.168   2.873   3.841
17447SOL     OW64402   6.163   2.504   4.858
17447SOL    HW164403   6.238   2.547   4.907
17447SOL    HW264404   6.096   2.469   4.924
17448SOL     OW64405   6.306   2.873   5.175
17448SOL    HW164406   6.375   2.925   5.125
17448SOL    HW264407   6.301   2.906   5.270
17449SOL     OW64408   6.698   2.894   5.335
17449SOL    HW164409   6.620   2.840   5.368
17449SOL    HW264410   6.779   2.872   5.390
17450SOL     OW64411   6.627   2.076   4.331
17450SOL    HW164412   6.686   2.136   4.386
17450SOL    HW264413   6.554   2.040   4.388
17451SOL     OW64414   6.737   3.608   5.371
17451SOL    HW164415   6.642   3.606   5.339
17451SOL    HW264416   6.758   3.699   5.408
17452SOL     OW64417   6.155   1.953   4.602
17452SOL    HW164418   6.083   1.886   4.588
17452SOL    HW264419   6.237   1.907   4.637
17453SOL     OW64420   6.548   3.082   4.514
17453SOL    HW164421   6.587   3.125   4.433
17453SOL    HW264422   6.621   3.065   4.581
17454SOL     OW64423   6.242   2.810   4.716
17454SOL    HW164424   6.240   2.726   4.661
17454SOL    HW264425   6.191   2.796   4.801
17455SOL     OW64426   5.581   2.820   4.842
17455SOL    HW164427   5.670   2.798   4.882
17455SOL    HW264428   5.526   2.736   4.838
17456SOL     OW64429   5.809   1.865   4.122
17456SOL    HW164430   5.847   1.953   4.149
17456SOL    HW264431   5.732   1.841   4.182
17457SOL     OW64432   6.225   2.482   5.450
17457SOL    HW164433   6.177   2.533   5.379
17457SOL    HW264434   6.318   2.461   5.420
17458SOL     OW64435   5.631   2.952   3.942
17458SOL    HW164436   5.621   2.855   3.921
17458SOL    HW264437   5.684   2.997   3.870
17459SOL     OW64438   7.328   2.064   4.543
17459SOL    HW164439   7.283   2.046   4.630
17459SOL    HW264440   7.426   2.081   4.559
17460SOL     OW64441   6.376   3.040   4.795
17460SOL    HW164442   6.327   2.955   4.776
17460SOL    HW264443   6.446   3.055   4.726
17461SOL     OW64444   6.714   2.463   4.004
17461SOL    HW164445   6.766   2.535   4.050
17461SOL    HW264446   6.727   2.470   3.906
17462SOL     OW64447   7.075   3.278   5.331
17462SOL    HW164448   7.060   3.180   5.345
17462SOL    HW264449   6.992   3.320   5.295
17463SOL     OW64450   5.832   2.720   5.071
17463SOL    HW164451   5.796   2.630   5.097
17463SOL    HW264452   5.793   2.790   5.131
17464SOL     OW64453   6.334   3.346   3.729
17464SOL    HW164454   6.309   3.423   3.788
17464SOL    HW264455   6.398   3.286   3.777
17465SOL     OW64456   6.152   3.553   4.763
17465SOL    HW164457   6.172   3.523   4.670
17465SOL    HW264458   6.077   3.498   4.800
17466SOL     OW64459   6.295   2.964   4.480
17466SOL    HW164460   6.384   3.010   4.480
17466SOL    HW264461   6.288   2.904   4.559
17467SOL     OW64462   6.473   3.311   4.149
17467SOL    HW164463   6.523   3.299   4.064
17467SOL    HW264464   6.419   3.228   4.168
17468SOL     OW64465   5.663   2.658   4.549
17468SOL    HW164466   5.758   2.649   4.517
17468SOL    HW264467   5.629   2.750   4.528
17469SOL     OW64468   5.600   2.775   5.476
17469SOL    HW164469   5.515   2.726   5.457
17469SOL    HW264470   5.627   2.762   5.571
17470SOL     OW64471   6.497   3.684   5.182
17470SOL    HW164472   6.469   3.597   5.223
17470SOL    HW264473   6.441   3.758   5.219
17471SOL     OW64474   6.726   3.031   4.712
17471SOL    HW164475   6.710   3.125   4.743
17471SOL    HW264476   6.729   2.970   4.792
17472SOL     OW64477   6.000   2.302   5.476
17472SOL    HW164478   6.036   2.249   5.399
17472SOL    HW264479   6.061   2.379   5.494
17473SOL     OW64480   6.064   2.719   4.048
17473SOL    HW164481   6.014   2.784   3.992
17473SOL    HW264482   6.006   2.640   4.067
17474SOL     OW64483   7.145   2.750   4.746
17474SOL    HW164484   7.164   2.789   4.655
17474SOL    HW264485   7.099   2.819   4.802
17475SOL     OW64486   6.837   2.193   5.042
17475SOL    HW164487   6.908   2.165   5.106
17475SOL    HW264488   6.784   2.113   5.014
17476SOL     OW64489   5.538   1.892   4.243
17476SOL    HW164490   5.451   1.879   4.196
17476SOL    HW264491   5.546   1.987   4.273
17477SOL     OW64492   6.759   1.993   5.484
17477SOL    HW164493   6.818   2.009   5.564
17477SOL    HW264494   6.706   2.076   5.465
17478SOL     OW64495   5.975   3.412   5.309
17478SOL    HW164496   5.917   3.477   5.358
17478SOL    HW264497   6.037   3.462   5.249
17479SOL     OW64498   7.331   3.299   5.250
17479SOL    HW164499   7.359   3.392   5.272
17479SOL    HW264500   7.238   3.283   5.283
17480SOL     OW64501   6.581   2.412   4.800
17480SOL    HW164502   6.667   2.463   4.799
17480SOL    HW264503   6.587   2.338   4.867
17481SOL     OW64504   5.985   3.358   4.372
17481SOL    HW164505   5.983   3.259   4.385
17481SOL    HW264506   5.894   3.391   4.349
17482SOL     OW64507   6.626   3.475   4.960
17482SOL    HW164508   6.552   3.539   4.978
17482SOL    HW264509   6.705   3.524   4.922
17483SOL     OW64510   5.695   3.141   5.330
17483SOL    HW164511   5.674   3.046   5.303
17483SOL    HW264512   5.626   3.202   5.292
17484SOL     OW64513   5.784   3.506   4.734
17484SOL    HW164514   5.726   3.426   4.748
17484SOL    HW264515   5.808   3.513   4.637
17485SOL     OW64516   6.530   2.027   4.589
17485SOL    HW164517   6.626   2.028   4.617
17485SOL    HW264518   6.475   1.984   4.661
17486SOL     OW64519   6.592   3.033   4.105
17486SOL    HW164520   6.672   3.069   4.153
17486SOL    HW264521   6.550   2.960   4.161
17487SOL     OW64522   7.183   2.300   4.469
17487SOL    HW164523   7.202   2.386   4.516
17487SOL    HW264524   7.251   2.231   4.497
17488SOL     OW64525   6.326   2.972   3.955
17488SOL    HW164526   6.398   3.031   3.920
17488SOL    HW264527   6.366   2.888   3.991
17489SOL     OW64528   6.397   1.948   3.807
17489SOL    HW164529   6.472   1.882   3.819
17489SOL    HW264530   6.428   2.039   3.835
17490SOL     OW64531   6.064   2.935   5.073
17490SOL    HW164532   6.160   2.915   5.093
17490SOL    HW264533   6.053   3.033   5.055
17491SOL     OW64534   7.286   2.978   5.042
17491SOL    HW164535   7.300   3.076   5.056
17491SOL    HW264536   7.343   2.947   4.966
17492SOL     OW64537   5.769   3.087   3.734
17492SOL    HW164538   5.761   3.099   3.635
17492SOL    HW264539   5.828   3.158   3.772
17493SOL     OW64540   6.196   3.526   3.894
17493SOL    HW164541   6.171   3.621   3.878
17493SOL    HW264542   6.163   3.498   3.984
17494SOL     OW64543   6.846   2.949   5.118
17494SOL    HW164544   6.790   2.908   5.189
17494SOL    HW264545   6.826   3.047   5.112
17495SOL     OW64546   6.113   3.565   5.118
17495SOL    HW164547   6.162   3.645   5.082
17495SOL    HW264548   6.021   3.563   5.079
17496SOL     OW64549   5.756   2.446   5.480
17496SOL    HW164550   5.773   2.347   5.485
17496SOL    HW264551   5.820   2.494   5.541
17497SOL     OW64552   7.195   3.407   4.719
17497SOL    HW164553   7.167   3.500   4.743
17497SOL    HW264554   7.245   3.366   4.795
17498SOL     OW64555   5.591   2.780   4.280
17498SOL    HW164556   5.598   2.879   4.267
17498SOL    HW264557   5.500   2.757   4.314
17499SOL     OW64558   6.100   2.578   5.218
17499SOL    HW164559   6.006   2.548   5.199
17499SOL    HW264560   6.109   2.675   5.195
17500SOL     OW64561   7.167   2.954   4.530
17500SOL    HW164562   7.129   3.043   4.503
17500SOL    HW264563   7.167   2.892   4.452
17501SOL     OW64564   6.178   3.211   4.926
17501SOL    HW164565   6.091   3.210   4.877
17501SOL    HW264566   6.244   3.151   4.879
17502SOL     OW64567   5.744   2.553   4.840
17502SOL    HW164568   5.782   2.612   4.911
17502SOL    HW264569   5.727   2.606   4.758
17503SOL     OW64570   5.915   3.199   5.138
17503SOL    HW164571   5.934   3.287   5.182
17503SOL    HW264572   5.820   3.173   5.156
17504SOL     OW64573   7.158   3.515   5.486
17504SOL    HW164574   7.127   3.437   5.431
17504SOL    HW264575   7.127   3.600   5.444
17505SOL     OW64576   6.866   3.053   4.207
17505SOL    HW164577   6.965   3.057   4.223
17505SOL    HW264578   6.849   3.039   4.109
17506SOL     OW64579   6.219   2.219   4.155
17506SOL    HW164580   6.121   2.213   4.135
17506SOL    HW264581   6.238   2.176   4.243
17507SOL     OW64582   7.139   1.902   4.414
17507SOL    HW164583   7.134   1.943   4.323
17507SOL    HW264584   7.220   1.936   4.461
17508SOL     OW64585   6.742   2.658   5.107
17508SOL    HW164586   6.841   2.667   5.097
17508SOL    HW264587   6.698   2.660   5.017
17509SOL     OW64588   6.901   3.325   4.721
17509SOL    HW164589   6.815   3.282   4.750
17509SOL    HW264590   6.890   3.365   4.630
17510SOL     OW64591   6.904   2.310   4.396
17510SOL    HW164592   6.903   2.302   4.297
17510SOL    HW264593   6.993   2.282   4.431
17511SOL     OW64594   6.631   3.326   6.228
17511SOL    HW164595   6.722   3.360   6.251
17511SOL    HW264596   6.603   3.364   6.140
17512SOL     OW64597   7.142   3.122   6.086
17512SOL    HW164598   7.153   3.206   6.140
17512SOL    HW264599   7.232   3.085   6.063
17513SOL     OW64600   5.889   2.041   5.555
17513SOL    HW164601   5.802   2.038   5.506
17513SOL    HW264602   5.940   2.123   5.527
17514SOL     OW64603   6.876   3.430   6.330
17514SOL    HW164604   6.865   3.527   6.353
17514SOL    HW264605   6.969   3.413   6.300
17515SOL     OW64606   6.754   1.941   6.888
17515SOL    HW164607   6.678   1.896   6.935
17515SOL    HW264608   6.783   1.886   6.810
17516SOL     OW64609   6.492   2.721   7.265
17516SOL    HW164610   6.457   2.696   7.175
17516SOL    HW264611   6.416   2.742   7.326
17517SOL     OW64612   6.099   3.395   5.959
17517SOL    HW164613   6.055   3.404   6.048
17517SOL    HW264614   6.170   3.325   5.963
17518SOL     OW64615   7.087   2.913   7.064
17518SOL    HW164616   6.995   2.918   7.026
17518SOL    HW264617   7.152   2.951   6.998
17519SOL     OW64618   6.987   2.920   6.745
17519SOL    HW164619   6.912   2.909   6.810
17519SOL    HW264620   7.024   3.013   6.751
17520SOL     OW64621   6.483   3.175   7.045
17520SOL    HW164622   6.426   3.238   6.991
17520SOL    HW264623   6.516   3.101   6.986
17521SOL     OW64624   6.873   2.382   7.294
17521SOL    HW164625   6.969   2.386   7.320
17521SOL    HW264626   6.829   2.306   7.341
17522SOL     OW64627   5.956   3.237   5.738
17522SOL    HW164628   6.020   3.253   5.663
17522SOL    HW264629   5.980   3.295   5.816
17523SOL     OW64630   6.107   2.193   6.548
17523SOL    HW164631   6.183   2.258   6.544
17523SOL    HW264632   6.137   2.104   6.515
17524SOL     OW64633   5.804   2.619   5.966
17524SOL    HW164634   5.819   2.553   6.040
17524SOL    HW264635   5.754   2.698   6.001
17525SOL     OW64636   6.390   3.564   6.143
17525SOL    HW164637   6.455   3.497   6.107
17525SOL    HW264638   6.380   3.640   6.079
17526SOL     OW64639   7.282   3.446   5.885
17526SOL    HW164640   7.378   3.420   5.878
17526SOL    HW264641   7.258   3.506   5.809
17527SOL     OW64642   7.194   2.139   6.656
17527SOL    HW164643   7.245   2.211   6.609
17527SOL    HW264644   7.099   2.166   6.665
17528SOL     OW64645   6.594   2.168   5.925
17528SOL    HW164646   6.619   2.262   5.946
17528SOL    HW264647   6.595   2.114   6.009
17529SOL     OW64648   5.718   2.881   7.110
17529SOL    HW164649   5.814   2.896   7.128
17529SOL    HW264650   5.680   2.819   7.179
17530SOL     OW64651   6.044   2.526   5.653
17530SOL    HW164652   6.004   2.605   5.606
17530SOL    HW264653   6.133   2.505   5.613
17531SOL     OW64654   6.217   3.450   6.351
17531SOL    HW164655   6.290   3.473   6.287
17531SOL    HW264656   6.146   3.397   6.305
17532SOL     OW64657   6.559   2.482   7.105
17532SOL    HW164658   6.592   2.399   7.152
17532SOL    HW264659   6.632   2.550   7.104
17533SOL     OW64660   7.163   3.282   6.327
17533SOL    HW164661   7.159   3.317   6.420
17533SOL    HW264662   7.222   3.341   6.271
17534SOL     OW64663   5.894   3.103   6.003
17534SOL    HW164664   5.940   3.077   6.088
17534SOL    HW264665   5.914   3.035   5.932
17535SOL     OW64666   6.752   2.158   5.714
17535SOL    HW164667   6.846   2.128   5.732
17535SOL    HW264668   6.700   2.158   5.800
17536SOL     OW64669   5.904   2.363   6.809
17536SOL    HW164670   5.894   2.276   6.761
17536SOL    HW264671   5.840   2.430   6.772
17537SOL     OW64672   6.986   2.643   6.847
17537SOL    HW164673   6.990   2.737   6.812
17537SOL    HW264674   7.079   2.612   6.869
17538SOL     OW64675   5.939   2.135   5.968
17538SOL    HW164676   5.893   2.175   6.047
17538SOL    HW264677   5.887   2.154   5.886
17539SOL     OW64678   7.067   3.662   6.880
17539SOL    HW164679   7.010   3.613   6.814
17539SOL    HW264680   7.153   3.689   6.837
17540SOL     OW64681   7.362   2.380   6.735
17540SOL    HW164682   7.419   2.462   6.737
17540SOL    HW264683   7.303   2.379   6.815
17541SOL     OW64684   7.379   3.606   6.648
17541SOL    HW164685   7.425   3.616   6.736
17541SOL    HW264686   7.446   3.609   6.575
17542SOL     OW64687   6.727   2.810   5.727
17542SOL    HW164688   6.764   2.760   5.805
17542SOL    HW264689   6.657   2.755   5.682
17543SOL     OW64690   6.569   2.232   7.348
17543SOL    HW164691   6.632   2.237   7.425
17543SOL    HW264692   6.477   2.210   7.381
17544SOL     OW64693   7.310   2.479   5.806
17544SOL    HW164694   7.331   2.398   5.752
17544SOL    HW264695   7.327   2.460   5.903
17545SOL     OW64696   6.604   3.617   5.714
17545SOL    HW164697   6.638   3.530   5.679
17545SOL    HW264698   6.572   3.605   5.808
17546SOL     OW64699   7.208   2.485   6.514
17546SOL    HW164700   7.193   2.576   6.551
17546SOL    HW264701   7.278   2.438   6.568
17547SOL     OW64702   6.618   3.151   7.280
17547SOL    HW164703   6.640   3.061   7.242
17547SOL    HW264704   6.553   3.198   7.221
17548SOL     OW64705   6.273   2.993   7.284
17548SOL    HW164706   6.244   3.070   7.341
17548SOL    HW264707   6.283   2.912   7.342
17549SOL     OW64708   6.908   1.857   6.390
17549SOL    HW164709   6.857   1.941   6.372
17549SOL    HW264710   6.994   1.859   6.339
17550SOL     OW64711   5.566   2.467   6.063
17550SOL    HW164712   5.568   2.418   6.150
17550SOL    HW264713   5.568   2.566   6.081
17551SOL     OW64714   6.538   2.725   6.458
17551SOL    HW164715   6.564   2.805   6.404
17551SOL    HW264716   6.532   2.645   6.398
17552SOL     OW64717   5.739   3.352   5.917
17552SOL    HW164718   5.766   3.258   5.937
17552SOL    HW264719   5.764   3.374   5.823
17553SOL     OW64720   7.021   3.221   6.791
17553SOL    HW164721   6.992   3.258   6.702
17553SOL    HW264722   6.943   3.221   6.853
17554SOL     OW64723   7.274   3.292   6.829
17554SOL    HW164724   7.305   3.306   6.923
17554SOL    HW264725   7.175   3.279   6.828
17555SOL     OW64726   6.026   2.792   5.556
17555SOL    HW164727   5.995   2.826   5.468
17555SOL    HW264728   6.030   2.867   5.622
17556SOL     OW64729   6.543   2.979   6.855
17556SOL    HW164730   6.593   2.894   6.839
17556SOL    HW264731   6.497   3.006   6.770
17557SOL     OW64732   5.630   2.684   5.729
17557SOL    HW164733   5.690   2.631   5.789
17557SOL    HW264734   5.536   2.652   5.741
17558SOL     OW64735   7.150   2.682   5.929
17558SOL    HW164736   7.218   2.616   5.896
17558SOL    HW264737   7.165   2.770   5.885
17559SOL     OW64738   6.398   3.669   6.577
17559SOL    HW164739   6.444   3.602   6.519
17559SOL    HW264740   6.324   3.625   6.627
17560SOL     OW64741   6.305   2.738   5.613
17560SOL    HW164742   6.334   2.657   5.664
17560SOL    HW264743   6.205   2.737   5.604
17561SOL     OW64744   6.901   2.270   5.959
17561SOL    HW164745   6.838   2.328   5.907
17561SOL    HW264746   6.994   2.304   5.947
17562SOL     OW64747   6.578   2.747   6.714
17562SOL    HW164748   6.572   2.733   6.615
17562SOL    HW264749   6.497   2.708   6.758
17563SOL     OW64750   7.169   2.281   6.029
17563SOL    HW164751   7.265   2.252   6.026
17563SOL    HW264752   7.130   2.259   6.118
17564SOL     OW64753   6.453   3.356   6.466
17564SOL    HW164754   6.511   3.367   6.385
17564SOL    HW264755   6.359   3.380   6.444
17565SOL     OW64756   6.403   2.222   5.751
17565SOL    HW164757   6.312   2.235   5.789
17565SOL    HW264758   6.463   2.182   5.821
17566SOL     OW64759   6.514   3.167   5.686
17566SOL    HW164760   6.567   3.107   5.746
17566SOL    HW264761   6.553   3.168   5.595
17567SOL     OW64762   7.265   3.462   6.171
17567SOL    HW164763   7.232   3.555   6.190
17567SOL    HW264764   7.263   3.446   6.072
17568SOL     OW64765   6.680   2.735   6.160
17568SOL    HW164766   6.745   2.763   6.231
17568SOL    HW264767   6.601   2.796   6.162
17569SOL     OW64768   6.428   3.461   7.184
17569SOL    HW164769   6.416   3.392   7.113
17569SOL    HW264770   6.391   3.426   7.271
17570SOL     OW64771   6.872   2.775   6.363
17570SOL    HW164772   6.893   2.717   6.441
17570SOL    HW264773   6.881   2.871   6.389
17571SOL     OW64774   6.461   2.852   6.108
17571SOL    HW164775   6.448   2.763   6.065
17571SOL    HW264776   6.392   2.866   6.179
17572SOL     OW64777   6.765   3.240   6.947
17572SOL    HW164778   6.798   3.325   6.988
17572SOL    HW264779   6.666   3.236   6.954
17573SOL     OW64780   5.572   2.157   6.011
17573SOL    HW164781   5.632   2.108   5.949
17573SOL    HW264782   5.627   2.209   6.076
17574SOL     OW64783   7.195   3.655   5.702
17574SOL    HW164784   7.285   3.699   5.704
17574SOL    HW264785   7.194   3.586   5.630
17575SOL     OW64786   6.359   2.622   6.860
17575SOL    HW164787   6.361   2.708   6.911
17575SOL    HW264788   6.416   2.554   6.907
17576SOL     OW64789   5.596   3.649   6.931
17576SOL    HW164790   5.604   3.749   6.929
17576SOL    HW264791   5.572   3.620   7.024
17577SOL     OW64792   6.377   2.668   5.925
17577SOL    HW164793   6.288   2.696   5.890
17577SOL    HW264794   6.418   2.602   5.861
17578SOL     OW64795   5.896   3.584   5.735
17578SOL    HW164796   5.988   3.614   5.710
17578SOL    HW264797   5.871   3.623   5.824
17579SOL     OW64798   6.872   3.606   6.672
17579SOL    HW164799   6.891   3.669   6.598
17579SOL    HW264800   6.880   3.512   6.639
17580SOL     OW64801   6.819   2.116   6.403
17580SOL    HW164802   6.818   2.194   6.340
17580SOL    HW264803   6.862   2.143   6.489
17581SOL     OW64804   6.939   1.922   5.699
17581SOL    HW164805   7.019   1.862   5.696
17581SOL    HW264806   6.865   1.875   5.747
17582SOL     OW64807   6.834   2.504   6.657
17582SOL    HW164808   6.888   2.544   6.583
17582SOL    HW264809   6.872   2.533   6.745
17583SOL     OW64810   7.127   1.910   5.973
17583SOL    HW164811   7.134   1.864   5.885
17583SOL    HW264812   7.031   1.920   5.998
17584SOL     OW64813   6.103   3.225   7.336
17584SOL    HW164814   6.064   3.288   7.269
17584SOL    HW264815   6.186   3.265   7.376
17585SOL     OW64816   5.979   2.957   7.168
17585SOL    HW164817   5.998   2.981   7.073
17585SOL    HW264818   5.972   3.040   7.223
17586SOL     OW64819   6.726   2.448   6.375
17586SOL    HW164820   6.808   2.425   6.323
17586SOL    HW264821   6.721   2.389   6.456
17587SOL     OW64822   7.326   2.475   7.211
17587SOL    HW164823   7.315   2.561   7.160
17587SOL    HW264824   7.420   2.466   7.241
17588SOL     OW64825   6.897   2.248   6.630
17588SOL    HW164826   6.871   2.345   6.636
17588SOL    HW264827   6.897   2.208   6.722
17589SOL     OW64828   7.127   2.380   7.381
17589SOL    HW164829   7.207   2.405   7.325
17589SOL    HW264830   7.158   2.345   7.469
17590SOL     OW64831   6.838   2.683   5.961
17590SOL    HW164832   6.784   2.681   6.045
17590SOL    HW264833   6.915   2.746   5.972
17591SOL     OW64834   7.135   2.779   6.181
17591SOL    HW164835   7.149   2.742   6.088
17591SOL    HW264836   7.046   2.749   6.215
17592SOL     OW64837   7.291   2.716   7.076
17592SOL    HW164838   7.193   2.737   7.078
17592SOL    HW264839   7.340   2.792   7.035
17593SOL     OW64840   7.145   2.136   5.755
17593SOL    HW164841   7.150   2.178   5.846
17593SOL    HW264842   7.078   2.061   5.757
17594SOL     OW64843   6.292   3.351   6.975
17594SOL    HW164844   6.229   3.429   6.982
17594SOL    HW264845   6.260   3.289   6.903
17595SOL     OW64846   5.563   3.560   7.184
17595SOL    HW164847   5.635   3.546   7.252
17595SOL    HW264848   5.474   3.563   7.229
17596SOL     OW64849   6.903   3.448   7.071
17596SOL    HW164850   6.856   3.516   7.126
17596SOL    HW264851   6.970   3.494   7.012
17597SOL     OW64852   5.868   2.407   5.806
17597SOL    HW164853   5.940   2.436   5.743
17597SOL    HW264854   5.824   2.487   5.846
17598SOL     OW64855   5.983   3.670   6.272
17598SOL    HW164856   5.907   3.636   6.217
17598SOL    HW264857   6.069   3.633   6.237
17599SOL     OW64858   6.792   3.383   7.363
17599SOL    HW164859   6.751   3.298   7.329
17599SOL    HW264860   6.772   3.457   7.299
17600SOL     OW64861   6.282   3.103   6.053
17600SOL    HW164862   6.325   3.034   5.995
17600SOL    HW264863   6.246   3.060   6.136
17601SOL     OW64864   5.760   2.134   5.770
17601SOL    HW164865   5.804   2.103   5.687
17601SOL    HW264866   5.761   2.234   5.774
17602SOL     OW64867   6.048   2.973   5.767
17602SOL    HW164868   6.148   2.973   5.778
17602SOL    HW264869   6.017   3.066   5.746
17603SOL     OW64870   6.674   2.565   5.583
17603SOL    HW164871   6.605   2.622   5.539
17603SOL    HW264872   6.755   2.559   5.524
17604SOL     OW64873   6.409   2.484   5.726
17604SOL    HW164874   6.499   2.485   5.681
17604SOL    HW264875   6.386   2.390   5.751
17605SOL     OW64876   6.860   2.001   6.020
17605SOL    HW164877   6.770   1.985   6.061
17605SOL    HW264878   6.868   2.097   5.994
17606SOL     OW64879   6.974   2.401   7.036
17606SOL    HW164880   6.926   2.424   7.120
17606SOL    HW264881   6.908   2.371   6.967
17607SOL     OW64882   5.609   1.916   5.680
17607SOL    HW164883   5.672   1.839   5.688
17607SOL    HW264884   5.629   1.984   5.751
17608SOL     OW64885   7.181   2.903   5.781
17608SOL    HW164886   7.252   2.973   5.783
17608SOL    HW264887   7.168   2.873   5.686
17609SOL     OW64888   6.163   2.504   6.703
17609SOL    HW164889   6.238   2.547   6.752
17609SOL    HW264890   6.096   2.469   6.769
17610SOL     OW64891   6.306   2.873   7.020
17610SOL    HW164892   6.375   2.925   6.970
17610SOL    HW264893   6.301   2.906   7.115
17611SOL     OW64894   6.698   2.894   7.180
17611SOL    HW164895   6.620   2.840   7.213
17611SOL    HW264896   6.779   2.872   7.235
17612SOL     OW64897   6.627   2.076   6.176
17612SOL    HW164898   6.686   2.136   6.231
17612SOL    HW264899   6.554   2.040   6.233
17613SOL     OW64900   6.737   3.608   7.216
17613SOL    HW164901   6.642   3.606   7.184
17613SOL    HW264902   6.758   3.699   7.253
17614SOL     OW64903   5.855   3.618   6.814
17614SOL    HW164904   5.835   3.600   6.718
17614SOL    HW264905   5.782   3.580   6.871
17615SOL     OW64906   6.548   3.082   6.359
17615SOL    HW164907   6.587   3.125   6.278
17615SOL    HW264908   6.621   3.065   6.426
17616SOL     OW64909   6.242   2.810   6.561
17616SOL    HW164910   6.240   2.726   6.506
17616SOL    HW264911   6.191   2.796   6.646
17617SOL     OW64912   5.581   2.820   6.687
17617SOL    HW164913   5.670   2.798   6.727
17617SOL    HW264914   5.526   2.736   6.683
17618SOL     OW64915   5.809   1.865   5.967
17618SOL    HW164916   5.847   1.953   5.994
17618SOL    HW264917   5.732   1.841   6.027
17619SOL     OW64918   6.225   2.482   7.295
17619SOL    HW164919   6.177   2.533   7.224
17619SOL    HW264920   6.318   2.461   7.265
17620SOL     OW64921   5.631   2.952   5.787
17620SOL    HW164922   5.621   2.855   5.766
17620SOL    HW264923   5.684   2.997   5.715
17621SOL     OW64924   7.328   2.064   6.388
17621SOL    HW164925   7.283   2.046   6.475
17621SOL    HW264926   7.426   2.081   6.404
17622SOL     OW64927   6.376   3.040   6.640
17622SOL    HW164928   6.327   2.955   6.621
17622SOL    HW264929   6.446   3.055   6.571
17623SOL     OW64930   6.714   2.463   5.849
17623SOL    HW164931   6.766   2.535   5.895
17623SOL    HW264932   6.727   2.470   5.751
17624SOL     OW64933   7.075   3.278   7.176
17624SOL    HW164934   7.060   3.180   7.190
17624SOL    HW264935   6.992   3.320   7.140
17625SOL     OW64936   5.832   2.720   6.916
17625SOL    HW164937   5.796   2.630   6.942
17625SOL    HW264938   5.793   2.790   6.976
17626SOL     OW64939   6.334   3.346   5.574
17626SOL    HW164940   6.309   3.423   5.633
17626SOL    HW264941   6.398   3.286   5.622
17627SOL     OW64942   6.152   3.553   6.608
17627SOL    HW164943   6.172   3.523   6.515
17627SOL    HW264944   6.077   3.498   6.645
17628SOL     OW64945   6.473   3.311   5.994
17628SOL    HW164946   6.523   3.299   5.909
17628SOL    HW264947   6.419   3.228   6.013
17629SOL     OW64948   5.600   2.775   7.321
17629SOL    HW164949   5.515   2.726   7.302
17629SOL    HW264950   5.627   2.762   7.416
17630SOL     OW64951   6.497   3.684   7.027
17630SOL    HW164952   6.469   3.597   7.068
17630SOL    HW264953   6.441   3.758   7.064
17631SOL     OW64954   6.726   3.031   6.557
17631SOL    HW164955   6.710   3.125   6.588
17631SOL    HW264956   6.729   2.970   6.637
17632SOL     OW64957   6.000   2.302   7.321
17632SOL    HW164958   6.036   2.249   7.244
17632SOL    HW264959   6.061   2.379   7.339
17633SOL     OW64960   6.064   2.719   5.893
17633SOL    HW164961   6.014   2.784   5.837
17633SOL    HW264962   6.006   2.640   5.912
17634SOL     OW64963   7.145   2.750   6.591
17634SOL    HW164964   7.164   2.789   6.500
17634SOL    HW264965   7.099   2.819   6.647
17635SOL     OW64966   6.837   2.193   6.887
17635SOL    HW164967   6.908   2.165   6.951
17635SOL    HW264968   6.784   2.113   6.859
17636SOL     OW64969   5.538   1.892   6.088
17636SOL    HW164970   5.451   1.879   6.041
17636SOL    HW264971   5.546   1.987   6.118
17637SOL     OW64972   5.975   3.412   7.154
17637SOL    HW164973   5.917   3.477   7.203
17637SOL    HW264974   6.037   3.462   7.094
17638SOL     OW64975   7.331   3.299   7.095
17638SOL    HW164976   7.359   3.392   7.117
17638SOL    HW264977   7.238   3.283   7.128
17639SOL     OW64978   6.581   2.412   6.645
17639SOL    HW164979   6.667   2.463   6.644
17639SOL    HW264980   6.587   2.338   6.712
17640SOL     OW64981   5.985   3.358   6.217
17640SOL    HW164982   5.983   3.259   6.230
17640SOL    HW264983   5.894   3.391   6.194
17641SOL     OW64984   6.626   3.475   6.805
17641SOL    HW164985   6.552   3.539   6.823
17641SOL    HW264986   6.705   3.524   6.767
17642SOL     OW64987   5.835   3.605   7.304
17642SOL    HW164988   5.878   3.689   7.270
17642SOL    HW264989   5.860   3.592   7.400
17643SOL     OW64990   5.695   3.141   7.175
17643SOL    HW164991   5.674   3.046   7.148
17643SOL    HW264992   5.626   3.202   7.137
17644SOL     OW64993   6.530   2.027   6.434
17644SOL    HW164994   6.626   2.028   6.462
17644SOL    HW264995   6.475   1.984   6.506
17645SOL     OW64996   6.592   3.033   5.950
17645SOL    HW164997   6.672   3.069   5.998
17645SOL    HW264998   6.550   2.960   6.006
17646SOL     OW64999   7.183   2.300   6.314
17646SOL    HW165000   7.202   2.386   6.361
17646SOL    HW265001   7.251   2.231   6.342
17647SOL     OW65002   6.326   2.972   5.800
17647SOL    HW165003   6.398   3.031   5.765
17647SOL    HW265004   6.366   2.888   5.836
17648SOL     OW65005   6.397   1.948   5.652
17648SOL    HW165006   6.472   1.882   5.664
17648SOL    HW265007   6.428   2.039   5.680
17649SOL     OW65008   6.064   2.935   6.918
17649SOL    HW165009   6.160   2.915   6.938
17649SOL    HW265010   6.053   3.033   6.900
17650SOL     OW65011   7.286   2.978   6.887
17650SOL    HW165012   7.300   3.076   6.901
17650SOL    HW265013   7.343   2.947   6.811
17651SOL     OW65014   5.769   3.087   5.579
17651SOL    HW165015   5.761   3.099   5.480
17651SOL    HW265016   5.828   3.158   5.617
17652SOL     OW65017   6.196   3.526   5.739
17652SOL    HW165018   6.171   3.621   5.723
17652SOL    HW265019   6.163   3.498   5.829
17653SOL     OW65020   6.846   2.949   6.963
17653SOL    HW165021   6.790   2.908   7.034
17653SOL    HW265022   6.826   3.047   6.957
17654SOL     OW65023   6.113   3.565   6.963
17654SOL    HW165024   6.162   3.645   6.927
17654SOL    HW265025   6.021   3.563   6.924
17655SOL     OW65026   5.756   2.446   7.325
17655SOL    HW165027   5.773   2.347   7.330
17655SOL    HW265028   5.820   2.494   7.386
17656SOL     OW65029   7.195   3.407   6.564
17656SOL    HW165030   7.167   3.500   6.588
17656SOL    HW265031   7.245   3.366   6.640
17657SOL     OW65032   6.100   2.578   7.063
17657SOL    HW165033   6.006   2.548   7.044
17657SOL    HW265034   6.109   2.675   7.040
17658SOL     OW65035   7.167   2.954   6.375
17658SOL    HW165036   7.129   3.043   6.348
17658SOL    HW265037   7.167   2.892   6.297
17659SOL     OW65038   6.178   3.211   6.771
17659SOL    HW165039   6.091   3.210   6.722
17659SOL    HW265040   6.244   3.151   6.724
17660SOL     OW65041   5.744   2.553   6.685
17660SOL    HW165042   5.782   2.612   6.756
17660SOL    HW265043   5.727   2.606   6.603
17661SOL     OW65044   5.915   3.199   6.983
17661SOL    HW165045   5.934   3.287   7.027
17661SOL    HW265046   5.820   3.173   7.001
17662SOL     OW65047   7.158   3.515   7.331
17662SOL    HW165048   7.127   3.437   7.276
17662SOL    HW265049   7.127   3.600   7.289
17663SOL     OW65050   6.866   3.053   6.052
17663SOL    HW165051   6.965   3.057   6.068
17663SOL    HW265052   6.849   3.039   5.954
17664SOL     OW65053   7.139   1.902   6.259
17664SOL    HW165054   7.134   1.943   6.168
17664SOL    HW265055   7.220   1.936   6.306
17665SOL     OW65056   6.742   2.658   6.952
17665SOL    HW165057   6.841   2.667   6.942
17665SOL    HW265058   6.698   2.660   6.862
17666SOL     OW65059   6.901   3.325   6.566
17666SOL    HW165060   6.815   3.282   6.595
17666SOL    HW265061   6.890   3.365   6.475
17667SOL     OW65062   6.904   2.310   6.241
17667SOL    HW165063   6.903   2.302   6.142
17667SOL    HW265064   6.993   2.282   6.276
17668SOL     OW65065   6.631   3.326   8.074
17668SOL    HW165066   6.722   3.360   8.097
17668SOL    HW265067   6.603   3.364   7.986
17669SOL     OW65068   7.142   3.122   7.932
17669SOL    HW165069   7.153   3.206   7.986
17669SOL    HW265070   7.232   3.085   7.909
17670SOL     OW65071   7.222   2.404   8.796
17670SOL    HW165072   7.124   2.396   8.818
17670SOL    HW265073   7.275   2.393   8.880
17671SOL     OW65074   5.889   2.041   7.401
17671SOL    HW165075   5.802   2.038   7.352
17671SOL    HW265076   5.940   2.123   7.373
17672SOL     OW65077   6.876   3.430   8.176
17672SOL    HW165078   6.865   3.527   8.199
17672SOL    HW265079   6.969   3.413   8.146
17673SOL     OW65080   6.754   1.941   8.734
17673SOL    HW165081   6.678   1.896   8.781
17673SOL    HW265082   6.783   1.886   8.656
17674SOL     OW65083   6.492   2.721   9.111
17674SOL    HW165084   6.457   2.696   9.021
17674SOL    HW265085   6.416   2.742   9.172
17675SOL     OW65086   6.099   3.395   7.805
17675SOL    HW165087   6.055   3.404   7.894
17675SOL    HW265088   6.170   3.325   7.809
17676SOL     OW65089   6.117   1.928   7.527
17676SOL    HW165090   6.205   1.956   7.488
17676SOL    HW265091   6.045   1.991   7.497
17677SOL     OW65092   7.087   2.913   8.910
17677SOL    HW165093   6.995   2.918   8.872
17677SOL    HW265094   7.152   2.951   8.844
17678SOL     OW65095   6.987   2.920   8.591
17678SOL    HW165096   6.912   2.909   8.656
17678SOL    HW265097   7.024   3.013   8.597
17679SOL     OW65098   6.483   3.175   8.891
17679SOL    HW165099   6.426   3.238   8.837
17679SOL    HW265100   6.516   3.101   8.832
17680SOL     OW65101   6.026   3.068   8.100
17680SOL    HW165102   5.959   3.022   8.159
17680SOL    HW265103   6.118   3.036   8.123
17681SOL     OW65104   6.253   2.474   7.931
17681SOL    HW165105   6.292   2.544   7.872
17681SOL    HW265106   6.227   2.394   7.877
17682SOL     OW65107   6.873   2.382   9.140
17682SOL    HW165108   6.969   2.386   9.166
17682SOL    HW265109   6.829   2.306   9.187
17683SOL     OW65110   5.956   3.237   7.584
17683SOL    HW165111   6.020   3.253   7.509
17683SOL    HW265112   5.980   3.295   7.662
17684SOL     OW65113   6.107   2.193   8.394
17684SOL    HW165114   6.183   2.258   8.390
17684SOL    HW265115   6.137   2.104   8.361
17685SOL     OW65116   5.804   2.619   7.812
17685SOL    HW165117   5.819   2.553   7.886
17685SOL    HW265118   5.754   2.698   7.847
17686SOL     OW65119   6.390   3.564   7.989
17686SOL    HW165120   6.455   3.497   7.953
17686SOL    HW265121   6.380   3.640   7.925
17687SOL     OW65122   7.282   3.446   7.731
17687SOL    HW165123   7.378   3.420   7.724
17687SOL    HW265124   7.258   3.506   7.655
17688SOL     OW65125   7.194   2.139   8.502
17688SOL    HW165126   7.245   2.211   8.455
17688SOL    HW265127   7.099   2.166   8.511
17689SOL     OW65128   6.594   2.168   7.771
17689SOL    HW165129   6.619   2.262   7.792
17689SOL    HW265130   6.595   2.114   7.855
17690SOL     OW65131   5.718   2.881   8.956
17690SOL    HW165132   5.814   2.896   8.974
17690SOL    HW265133   5.680   2.819   9.025
17691SOL     OW65134   6.044   2.526   7.499
17691SOL    HW165135   6.004   2.605   7.452
17691SOL    HW265136   6.133   2.505   7.459
17692SOL     OW65137   6.217   3.450   8.197
17692SOL    HW165138   6.290   3.473   8.133
17692SOL    HW265139   6.146   3.397   8.151
17693SOL     OW65140   7.163   3.282   8.173
17693SOL    HW165141   7.159   3.317   8.266
17693SOL    HW265142   7.222   3.341   8.117
17694SOL     OW65143   5.894   3.103   7.849
17694SOL    HW165144   5.940   3.077   7.934
17694SOL    HW265145   5.914   3.035   7.778
17695SOL     OW65146   6.752   2.158   7.560
17695SOL    HW165147   6.846   2.128   7.578
17695SOL    HW265148   6.700   2.158   7.646
17696SOL     OW65149   5.904   2.363   8.655
17696SOL    HW165150   5.894   2.276   8.607
17696SOL    HW265151   5.840   2.430   8.618
17697SOL     OW65152   5.939   2.135   7.814
17697SOL    HW165153   5.893   2.175   7.893
17697SOL    HW265154   5.887   2.154   7.732
17698SOL     OW65155   7.067   3.662   8.726
17698SOL    HW165156   7.010   3.613   8.660
17698SOL    HW265157   7.153   3.689   8.683
17699SOL     OW65158   7.362   2.380   8.581
17699SOL    HW165159   7.419   2.462   8.583
17699SOL    HW265160   7.303   2.379   8.661
17700SOL     OW65161   7.379   3.606   8.494
17700SOL    HW165162   7.425   3.616   8.582
17700SOL    HW265163   7.446   3.609   8.421
17701SOL     OW65164   6.492   2.346   8.056
17701SOL    HW165165   6.568   2.374   8.115
17701SOL    HW265166   6.448   2.426   8.017
17702SOL     OW65167   6.727   2.810   7.573
17702SOL    HW165168   6.764   2.760   7.651
17702SOL    HW265169   6.657   2.755   7.528
17703SOL     OW65170   6.569   2.232   9.194
17703SOL    HW165171   6.632   2.237   9.271
17703SOL    HW265172   6.477   2.210   9.227
17704SOL     OW65173   7.310   2.479   7.652
17704SOL    HW165174   7.331   2.398   7.598
17704SOL    HW265175   7.327   2.460   7.749
17705SOL     OW65176   6.285   1.884   9.092
17705SOL    HW165177   6.292   1.790   9.059
17705SOL    HW265178   6.342   1.894   9.174
17706SOL     OW65179   7.208   2.485   8.360
17706SOL    HW165180   7.193   2.576   8.397
17706SOL    HW265181   7.278   2.438   8.414
17707SOL     OW65182   6.618   3.151   9.126
17707SOL    HW165183   6.640   3.061   9.088
17707SOL    HW265184   6.553   3.198   9.067
17708SOL     OW65185   6.273   2.993   9.130
17708SOL    HW165186   6.244   3.070   9.187
17708SOL    HW265187   6.283   2.912   9.188
17709SOL     OW65188   7.263   2.063   9.165
17709SOL    HW165189   7.240   2.084   9.260
17709SOL    HW265190   7.239   1.968   9.145
17710SOL     OW65191   5.566   2.467   7.909
17710SOL    HW165192   5.568   2.418   7.996
17710SOL    HW265193   5.568   2.566   7.927
17711SOL     OW65194   5.887   2.055   8.230
17711SOL    HW165195   5.939   2.095   8.305
17711SOL    HW265196   5.940   1.982   8.187
17712SOL     OW65197   5.871   2.103   8.564
17712SOL    HW165198   5.836   2.010   8.564
17712SOL    HW265199   5.958   2.106   8.515
17713SOL     OW65200   6.538   2.725   8.304
17713SOL    HW165201   6.564   2.805   8.250
17713SOL    HW265202   6.532   2.645   8.244
17714SOL     OW65203   5.739   3.352   7.763
17714SOL    HW165204   5.766   3.258   7.783
17714SOL    HW265205   5.764   3.374   7.669
17715SOL     OW65206   7.021   3.221   8.637
17715SOL    HW165207   6.992   3.258   8.548
17715SOL    HW265208   6.943   3.221   8.699
17716SOL     OW65209   5.753   3.495   8.000
17716SOL    HW165210   5.669   3.546   8.018
17716SOL    HW265211   5.744   3.444   7.915
17717SOL     OW65212   7.274   3.292   8.675
17717SOL    HW165213   7.305   3.306   8.769
17717SOL    HW265214   7.175   3.279   8.674
17718SOL     OW65215   6.026   2.792   7.402
17718SOL    HW165216   5.995   2.826   7.314
17718SOL    HW265217   6.030   2.867   7.468
17719SOL     OW65218   5.630   2.684   7.575
17719SOL    HW165219   5.690   2.631   7.635
17719SOL    HW265220   5.536   2.652   7.587
17720SOL     OW65221   7.150   2.682   7.775
17720SOL    HW165222   7.218   2.616   7.742
17720SOL    HW265223   7.165   2.770   7.731
17721SOL     OW65224   6.398   3.669   8.423
17721SOL    HW165225   6.444   3.602   8.365
17721SOL    HW265226   6.324   3.625   8.473
17722SOL     OW65227   6.305   2.738   7.459
17722SOL    HW165228   6.334   2.657   7.510
17722SOL    HW265229   6.205   2.737   7.450
17723SOL     OW65230   6.901   2.270   7.805
17723SOL    HW165231   6.838   2.328   7.753
17723SOL    HW265232   6.994   2.304   7.793
17724SOL     OW65233   5.798   2.471   8.905
17724SOL    HW165234   5.818   2.376   8.880
17724SOL    HW265235   5.761   2.474   8.998
17725SOL     OW65236   5.680   2.126   8.795
17725SOL    HW165237   5.752   2.136   8.726
17725SOL    HW265238   5.591   2.125   8.750
17726SOL     OW65239   6.578   2.747   8.560
17726SOL    HW165240   6.572   2.733   8.461
17726SOL    HW265241   6.497   2.708   8.604
17727SOL     OW65242   7.169   2.281   7.875
17727SOL    HW165243   7.265   2.252   7.872
17727SOL    HW265244   7.130   2.259   7.964
17728SOL     OW65245   6.453   3.356   8.312
17728SOL    HW165246   6.511   3.367   8.231
17728SOL    HW265247   6.359   3.380   8.290
17729SOL     OW65248   6.403   2.222   7.597
17729SOL    HW165249   6.312   2.235   7.635
17729SOL    HW265250   6.463   2.182   7.667
17730SOL     OW65251   6.514   3.167   7.532
17730SOL    HW165252   6.567   3.107   7.592
17730SOL    HW265253   6.553   3.168   7.441
17731SOL     OW65254   7.265   3.462   8.017
17731SOL    HW165255   7.232   3.555   8.036
17731SOL    HW265256   7.263   3.446   7.918
17732SOL     OW65257   6.680   2.735   8.006
17732SOL    HW165258   6.745   2.763   8.077
17732SOL    HW265259   6.601   2.796   8.008
17733SOL     OW65260   6.428   3.461   9.030
17733SOL    HW165261   6.416   3.392   8.959
17733SOL    HW265262   6.391   3.426   9.117
17734SOL     OW65263   6.872   2.775   8.209
17734SOL    HW165264   6.893   2.717   8.287
17734SOL    HW265265   6.881   2.871   8.235
17735SOL     OW65266   5.828   2.904   8.255
17735SOL    HW165267   5.751   2.966   8.248
17735SOL    HW265268   5.865   2.905   8.348
17736SOL     OW65269   6.461   2.852   7.954
17736SOL    HW165270   6.448   2.763   7.911
17736SOL    HW265271   6.392   2.866   8.025
17737SOL     OW65272   6.765   3.240   8.793
17737SOL    HW165273   6.798   3.325   8.834
17737SOL    HW265274   6.666   3.236   8.800
17738SOL     OW65275   5.572   2.157   7.857
17738SOL    HW165276   5.632   2.108   7.795
17738SOL    HW265277   5.627   2.209   7.922
17739SOL     OW65278   7.195   3.655   7.548
17739SOL    HW165279   7.285   3.699   7.550
17739SOL    HW265280   7.194   3.586   7.476
17740SOL     OW65281   6.359   2.622   8.706
17740SOL    HW165282   6.361   2.708   8.757
17740SOL    HW265283   6.416   2.554   8.753
17741SOL     OW65284   5.596   3.649   8.777
17741SOL    HW165285   5.604   3.749   8.775
17741SOL    HW265286   5.572   3.620   8.870
17742SOL     OW65287   6.377   2.668   7.771
17742SOL    HW165288   6.288   2.696   7.736
17742SOL    HW265289   6.418   2.602   7.707
17743SOL     OW65290   5.899   2.386   8.310
17743SOL    HW165291   5.955   2.379   8.227
17743SOL    HW265292   5.956   2.364   8.390
17744SOL     OW65293   5.896   3.584   7.581
17744SOL    HW165294   5.988   3.614   7.556
17744SOL    HW265295   5.871   3.623   7.670
17745SOL     OW65296   6.872   3.606   8.518
17745SOL    HW165297   6.891   3.669   8.444
17745SOL    HW265298   6.880   3.512   8.485
17746SOL     OW65299   5.577   3.001   8.330
17746SOL    HW165300   5.487   3.017   8.291
17746SOL    HW265301   5.575   2.917   8.385
17747SOL     OW65302   6.328   1.906   7.780
17747SOL    HW165303   6.289   1.895   7.689
17747SOL    HW265304   6.284   1.982   7.827
17748SOL     OW65305   5.573   3.042   7.874
17748SOL    HW165306   5.651   3.100   7.898
17748SOL    HW265307   5.592   2.993   7.789
17749SOL     OW65308   7.103   2.170   8.958
17749SOL    HW165309   7.042   2.248   8.955
17749SOL    HW265310   7.158   2.174   9.041
17750SOL     OW65311   6.819   2.116   8.249
17750SOL    HW165312   6.818   2.194   8.186
17750SOL    HW265313   6.862   2.143   8.335
17751SOL     OW65314   7.152   1.894   8.979
17751SOL    HW165315   7.178   1.851   8.893
17751SOL    HW265316   7.102   1.978   8.961
17752SOL     OW65317   6.254   2.153   8.111
17752SOL    HW165318   6.243   2.095   8.192
17752SOL    HW265319   6.339   2.205   8.119
17753SOL     OW65320   6.103   3.225   9.182
17753SOL    HW165321   6.064   3.288   9.115
17753SOL    HW265322   6.186   3.265   9.222
17754SOL     OW65323   5.979   2.957   9.014
17754SOL    HW165324   5.998   2.981   8.919
17754SOL    HW265325   5.972   3.040   9.069
17755SOL     OW65326   5.640   3.247   8.488
17755SOL    HW165327   5.609   3.173   8.429
17755SOL    HW265328   5.572   3.265   8.559
17756SOL     OW65329   6.726   2.448   8.221
17756SOL    HW165330   6.808   2.425   8.169
17756SOL    HW265331   6.721   2.389   8.302
17757SOL     OW65332   7.326   2.475   9.057
17757SOL    HW165333   7.315   2.561   9.006
17757SOL    HW265334   7.420   2.466   9.087
17758SOL     OW65335   6.897   2.248   8.476
17758SOL    HW165336   6.871   2.345   8.482
17758SOL    HW265337   6.897   2.208   8.568
17759SOL     OW65338   7.127   2.380   9.227
17759SOL    HW165339   7.207   2.405   9.171
17759SOL    HW265340   7.158   2.345   9.315
17760SOL     OW65341   6.838   2.683   7.807
17760SOL    HW165342   6.784   2.681   7.891
17760SOL    HW265343   6.915   2.746   7.818
17761SOL     OW65344   7.135   2.779   8.027
17761SOL    HW165345   7.149   2.742   7.934
17761SOL    HW265346   7.046   2.749   8.061
17762SOL     OW65347   7.291   2.716   8.922
17762SOL    HW165348   7.193   2.737   8.924
17762SOL    HW265349   7.340   2.792   8.881
17763SOL     OW65350   7.145   2.136   7.601
17763SOL    HW165351   7.150   2.178   7.692
17763SOL    HW265352   7.078   2.061   7.603
17764SOL     OW65353   6.292   3.351   8.821
17764SOL    HW165354   6.229   3.429   8.828
17764SOL    HW265355   6.260   3.289   8.749
17765SOL     OW65356   5.683   2.146   9.086
17765SOL    HW165357   5.701   2.135   8.988
17765SOL    HW265358   5.585   2.142   9.103
17766SOL     OW65359   5.563   3.560   9.030
17766SOL    HW165360   5.635   3.546   9.098
17766SOL    HW265361   5.474   3.563   9.075
17767SOL     OW65362   5.731   2.216   8.054
17767SOL    HW165363   5.674   2.271   8.115
17767SOL    HW265364   5.801   2.168   8.107
17768SOL     OW65365   6.903   3.448   8.917
17768SOL    HW165366   6.856   3.516   8.972
17768SOL    HW265367   6.970   3.494   8.858
17769SOL     OW65368   5.868   2.407   7.652
17769SOL    HW165369   5.940   2.436   7.589
17769SOL    HW265370   5.824   2.487   7.692
17770SOL     OW65371   7.254   2.069   8.755
17770SOL    HW165372   7.210   2.117   8.831
17770SOL    HW265373   7.232   2.115   8.669
17771SOL     OW65374   5.983   3.670   8.118
17771SOL    HW165375   5.907   3.636   8.063
17771SOL    HW265376   6.069   3.633   8.083
17772SOL     OW65377   5.908   3.179   8.563
17772SOL    HW165378   5.920   3.195   8.660
17772SOL    HW265379   5.821   3.219   8.533
17773SOL     OW65380   6.792   3.383   9.209
17773SOL    HW165381   6.751   3.298   9.175
17773SOL    HW265382   6.772   3.457   9.145
17774SOL     OW65383   6.282   3.103   7.899
17774SOL    HW165384   6.325   3.034   7.841
17774SOL    HW265385   6.246   3.060   7.982
17775SOL     OW65386   5.914   2.654   8.101
17775SOL    HW165387   5.906   2.752   8.119
17775SOL    HW265388   5.998   2.620   8.142
17776SOL     OW65389   5.760   2.134   7.616
17776SOL    HW165390   5.804   2.103   7.533
17776SOL    HW265391   5.761   2.234   7.620
17777SOL     OW65392   5.613   2.386   8.227
17777SOL    HW165393   5.577   2.479   8.219
17777SOL    HW265394   5.696   2.387   8.283
17778SOL     OW65395   6.048   2.973   7.613
17778SOL    HW165396   6.148   2.973   7.624
17778SOL    HW265397   6.017   3.066   7.592
17779SOL     OW65398   6.674   2.565   7.429
17779SOL    HW165399   6.605   2.622   7.385
17779SOL    HW265400   6.755   2.559   7.370
17780SOL     OW65401   6.409   2.484   7.572
17780SOL    HW165402   6.499   2.485   7.527
17780SOL    HW265403   6.386   2.390   7.597
17781SOL     OW65404   6.974   2.401   8.882
17781SOL    HW165405   6.926   2.424   8.966
17781SOL    HW265406   6.908   2.371   8.813
17782SOL     OW65407   5.882   2.891   8.527
17782SOL    HW165408   5.893   2.846   8.616
17782SOL    HW265409   5.909   2.987   8.534
17783SOL     OW65410   7.181   2.903   7.627
17783SOL    HW165411   7.252   2.973   7.629
17783SOL    HW265412   7.168   2.873   7.532
17784SOL     OW65413   6.163   2.504   8.549
17784SOL    HW165414   6.238   2.547   8.598
17784SOL    HW265415   6.096   2.469   8.615
17785SOL     OW65416   6.306   2.873   8.866
17785SOL    HW165417   6.375   2.925   8.816
17785SOL    HW265418   6.301   2.906   8.961
17786SOL     OW65419   6.698   2.894   9.026
17786SOL    HW165420   6.620   2.840   9.059
17786SOL    HW265421   6.779   2.872   9.081
17787SOL     OW65422   6.627   2.076   8.022
17787SOL    HW165423   6.686   2.136   8.077
17787SOL    HW265424   6.554   2.040   8.079
17788SOL     OW65425   6.737   3.608   9.062
17788SOL    HW165426   6.642   3.606   9.030
17788SOL    HW265427   6.758   3.699   9.099
17789SOL     OW65428   6.155   1.953   8.293
17789SOL    HW165429   6.083   1.886   8.279
17789SOL    HW265430   6.237   1.907   8.328
17790SOL     OW65431   5.855   3.618   8.660
17790SOL    HW165432   5.835   3.600   8.564
17790SOL    HW265433   5.782   3.580   8.717
17791SOL     OW65434   6.548   3.082   8.205
17791SOL    HW165435   6.587   3.125   8.124
17791SOL    HW265436   6.621   3.065   8.272
17792SOL     OW65437   6.242   2.810   8.407
17792SOL    HW165438   6.240   2.726   8.352
17792SOL    HW265439   6.191   2.796   8.492
17793SOL     OW65440   5.581   2.820   8.533
17793SOL    HW165441   5.670   2.798   8.573
17793SOL    HW265442   5.526   2.736   8.529
17794SOL     OW65443   5.809   1.865   7.813
17794SOL    HW165444   5.847   1.953   7.840
17794SOL    HW265445   5.732   1.841   7.873
17795SOL     OW65446   6.225   2.482   9.141
17795SOL    HW165447   6.177   2.533   9.070
17795SOL    HW265448   6.318   2.461   9.111
17796SOL     OW65449   5.631   2.952   7.633
17796SOL    HW165450   5.621   2.855   7.612
17796SOL    HW265451   5.684   2.997   7.561
17797SOL     OW65452   7.328   2.064   8.234
17797SOL    HW165453   7.283   2.046   8.321
17797SOL    HW265454   7.426   2.081   8.250
17798SOL     OW65455   6.376   3.040   8.486
17798SOL    HW165456   6.327   2.955   8.467
17798SOL    HW265457   6.446   3.055   8.417
17799SOL     OW65458   6.714   2.463   7.695
17799SOL    HW165459   6.766   2.535   7.741
17799SOL    HW265460   6.727   2.470   7.597
17800SOL     OW65461   7.075   3.278   9.022
17800SOL    HW165462   7.060   3.180   9.036
17800SOL    HW265463   6.992   3.320   8.986
17801SOL     OW65464   5.832   2.720   8.762
17801SOL    HW165465   5.796   2.630   8.788
17801SOL    HW265466   5.793   2.790   8.822
17802SOL     OW65467   6.334   3.346   7.420
17802SOL    HW165468   6.309   3.423   7.479
17802SOL    HW265469   6.398   3.286   7.468
17803SOL     OW65470   6.152   3.553   8.454
17803SOL    HW165471   6.172   3.523   8.361
17803SOL    HW265472   6.077   3.498   8.491
17804SOL     OW65473   6.295   2.964   8.171
17804SOL    HW165474   6.384   3.010   8.171
17804SOL    HW265475   6.288   2.904   8.250
17805SOL     OW65476   6.473   3.311   7.840
17805SOL    HW165477   6.523   3.299   7.755
17805SOL    HW265478   6.419   3.228   7.859
17806SOL     OW65479   5.663   2.658   8.240
17806SOL    HW165480   5.758   2.649   8.208
17806SOL    HW265481   5.629   2.750   8.219
17807SOL     OW65482   5.600   2.775   9.167
17807SOL    HW165483   5.515   2.726   9.148
17807SOL    HW265484   5.627   2.762   9.262
17808SOL     OW65485   6.497   3.684   8.873
17808SOL    HW165486   6.469   3.597   8.914
17808SOL    HW265487   6.441   3.758   8.910
17809SOL     OW65488   6.726   3.031   8.403
17809SOL    HW165489   6.710   3.125   8.434
17809SOL    HW265490   6.729   2.970   8.483
17810SOL     OW65491   6.000   2.302   9.167
17810SOL    HW165492   6.036   2.249   9.090
17810SOL    HW265493   6.061   2.379   9.185
17811SOL     OW65494   6.064   2.719   7.739
17811SOL    HW165495   6.014   2.784   7.683
17811SOL    HW265496   6.006   2.640   7.758
17812SOL     OW65497   7.145   2.750   8.437
17812SOL    HW165498   7.164   2.789   8.346
17812SOL    HW265499   7.099   2.819   8.493
17813SOL     OW65500   6.837   2.193   8.733
17813SOL    HW165501   6.908   2.165   8.797
17813SOL    HW265502   6.784   2.113   8.705
17814SOL     OW65503   5.538   1.892   7.934
17814SOL    HW165504   5.451   1.879   7.887
17814SOL    HW265505   5.546   1.987   7.964
17815SOL     OW65506   6.759   1.993   9.175
17815SOL    HW165507   6.818   2.009   9.255
17815SOL    HW265508   6.706   2.076   9.156
17816SOL     OW65509   5.975   3.412   9.000
17816SOL    HW165510   5.917   3.477   9.049
17816SOL    HW265511   6.037   3.462   8.940
17817SOL     OW65512   7.331   3.299   8.941
17817SOL    HW165513   7.359   3.392   8.963
17817SOL    HW265514   7.238   3.283   8.974
17818SOL     OW65515   5.985   3.358   8.063
17818SOL    HW165516   5.983   3.259   8.076
17818SOL    HW265517   5.894   3.391   8.040
17819SOL     OW65518   6.626   3.475   8.651
17819SOL    HW165519   6.552   3.539   8.669
17819SOL    HW265520   6.705   3.524   8.613
17820SOL     OW65521   5.835   3.605   9.150
17820SOL    HW165522   5.878   3.689   9.116
17820SOL    HW265523   5.860   3.592   9.246
17821SOL     OW65524   5.695   3.141   9.021
17821SOL    HW165525   5.674   3.046   8.994
17821SOL    HW265526   5.626   3.202   8.983
17822SOL     OW65527   5.784   3.506   8.425
17822SOL    HW165528   5.726   3.426   8.439
17822SOL    HW265529   5.808   3.513   8.328
17823SOL     OW65530   6.530   2.027   8.280
17823SOL    HW165531   6.626   2.028   8.308
17823SOL    HW265532   6.475   1.984   8.352
17824SOL     OW65533   6.592   3.033   7.796
17824SOL    HW165534   6.672   3.069   7.844
17824SOL    HW265535   6.550   2.960   7.852
17825SOL     OW65536   7.183   2.300   8.160
17825SOL    HW165537   7.202   2.386   8.207
17825SOL    HW265538   7.251   2.231   8.188
17826SOL     OW65539   6.326   2.972   7.646
17826SOL    HW165540   6.398   3.031   7.611
17826SOL    HW265541   6.366   2.888   7.682
17827SOL     OW65542   6.397   1.948   7.498
17827SOL    HW165543   6.472   1.882   7.510
17827SOL    HW265544   6.428   2.039   7.526
17828SOL     OW65545   6.076   2.377   8.110
17828SOL    HW165546   6.114   2.288   8.136
17828SOL    HW265547   6.143   2.427   8.055
17829SOL     OW65548   6.064   2.935   8.764
17829SOL    HW165549   6.160   2.915   8.784
17829SOL    HW265550   6.053   3.033   8.746
17830SOL     OW65551   7.286   2.978   8.733
17830SOL    HW165552   7.300   3.076   8.747
17830SOL    HW265553   7.343   2.947   8.657
17831SOL     OW65554   5.769   3.087   7.425
17831SOL    HW165555   5.761   3.099   7.326
17831SOL    HW265556   5.828   3.158   7.463
17832SOL     OW65557   6.196   3.526   7.585
17832SOL    HW165558   6.171   3.621   7.569
17832SOL    HW265559   6.163   3.498   7.675
17833SOL     OW65560   6.113   3.565   8.809
17833SOL    HW165561   6.162   3.645   8.773
17833SOL    HW265562   6.021   3.563   8.770
17834SOL     OW65563   5.756   2.446   9.171
17834SOL    HW165564   5.773   2.347   9.176
17834SOL    HW265565   5.820   2.494   9.232
17835SOL     OW65566   7.195   3.407   8.410
17835SOL    HW165567   7.167   3.500   8.434
17835SOL    HW265568   7.245   3.366   8.486
17836SOL     OW65569   5.591   2.780   7.971
17836SOL    HW165570   5.598   2.879   7.958
17836SOL    HW265571   5.500   2.757   8.005
17837SOL     OW65572   6.100   2.578   8.909
17837SOL    HW165573   6.006   2.548   8.890
17837SOL    HW265574   6.109   2.675   8.886
17838SOL     OW65575   7.167   2.954   8.221
17838SOL    HW165576   7.129   3.043   8.194
17838SOL    HW265577   7.167   2.892   8.143
17839SOL     OW65578   6.325   2.360   8.390
17839SOL    HW165579   6.417   2.388   8.417
17839SOL    HW265580   6.257   2.411   8.444
17840SOL     OW65581   6.178   3.211   8.617
17840SOL    HW165582   6.091   3.210   8.568
17840SOL    HW265583   6.244   3.151   8.570
17841SOL     OW65584   5.744   2.553   8.531
17841SOL    HW165585   5.782   2.612   8.602
17841SOL    HW265586   5.727   2.606   8.449
17842SOL     OW65587   5.915   3.199   8.829
17842SOL    HW165588   5.934   3.287   8.873
17842SOL    HW265589   5.820   3.173   8.847
17843SOL     OW65590   7.158   3.515   9.177
17843SOL    HW165591   7.127   3.437   9.122
17843SOL    HW265592   7.127   3.600   9.135
17844SOL     OW65593   6.866   3.053   7.898
17844SOL    HW165594   6.965   3.057   7.914
17844SOL    HW265595   6.849   3.039   7.800
17845SOL     OW65596   6.219   2.219   7.846
17845SOL    HW165597   6.121   2.213   7.826
17845SOL    HW265598   6.238   2.176   7.934
17846SOL     OW65599   7.139   1.902   8.105
17846SOL    HW165600   7.134   1.943   8.014
17846SOL    HW265601   7.220   1.936   8.152
17847SOL     OW65602   6.236   2.618   8.200
17847SOL    HW165603   6.258   2.540   8.258
17847SOL    HW265604   6.245   2.592   8.104
17848SOL     OW65605   6.901   3.325   8.412
17848SOL    HW165606   6.815   3.282   8.441
17848SOL    HW265607   6.890   3.365   8.321
17849SOL     OW65608   6.904   2.310   8.087
17849SOL    HW165609   6.903   2.302   7.988
17849SOL    HW265610   6.993   2.282   8.122
17850SOL     OW65611   6.631   3.326   9.919
17850SOL    HW165612   6.722   3.360   9.942
17850SOL    HW265613   6.603   3.364   9.831
17851SOL     OW65614   7.142   3.122   9.777
17851SOL    HW165615   7.153   3.206   9.831
17851SOL    HW265616   7.232   3.085   9.754
17852SOL     OW65617   5.889   2.041   9.246
17852SOL    HW165618   5.802   2.038   9.197
17852SOL    HW265619   5.940   2.123   9.218
17853SOL     OW65620   6.099   3.395   9.650
17853SOL    HW165621   6.055   3.404   9.739
17853SOL    HW265622   6.170   3.325   9.654
17854SOL     OW65623   6.117   1.928   9.372
17854SOL    HW165624   6.205   1.956   9.333
17854SOL    HW265625   6.045   1.991   9.342
17855SOL     OW65626   6.026   3.068   9.945
17855SOL    HW165627   5.959   3.022  10.004
17855SOL    HW265628   6.118   3.036   9.968
17856SOL     OW65629   6.253   2.474   9.776
17856SOL    HW165630   6.292   2.544   9.717
17856SOL    HW265631   6.227   2.394   9.722
17857SOL     OW65632   5.956   3.237   9.429
17857SOL    HW165633   6.020   3.253   9.354
17857SOL    HW265634   5.980   3.295   9.507
17858SOL     OW65635   5.804   2.619   9.657
17858SOL    HW165636   5.819   2.553   9.731
17858SOL    HW265637   5.754   2.698   9.692
17859SOL     OW65638   6.390   3.564   9.834
17859SOL    HW165639   6.455   3.497   9.798
17859SOL    HW265640   6.380   3.640   9.770
17860SOL     OW65641   7.282   3.446   9.576
17860SOL    HW165642   7.378   3.420   9.569
17860SOL    HW265643   7.258   3.506   9.500
17861SOL     OW65644   6.594   2.168   9.616
17861SOL    HW165645   6.619   2.262   9.637
17861SOL    HW265646   6.595   2.114   9.700
17862SOL     OW65647   6.044   2.526   9.344
17862SOL    HW165648   6.004   2.605   9.297
17862SOL    HW265649   6.133   2.505   9.304
17863SOL     OW65650   7.163   3.282  10.018
17863SOL    HW165651   7.159   3.317  10.111
17863SOL    HW265652   7.222   3.341   9.962
17864SOL     OW65653   5.894   3.103   9.694
17864SOL    HW165654   5.940   3.077   9.779
17864SOL    HW265655   5.914   3.035   9.623
17865SOL     OW65656   6.752   2.158   9.405
17865SOL    HW165657   6.846   2.128   9.423
17865SOL    HW265658   6.700   2.158   9.491
17866SOL     OW65659   5.939   2.135   9.659
17866SOL    HW165660   5.893   2.175   9.738
17866SOL    HW265661   5.887   2.154   9.577
17867SOL     OW65662   7.379   3.606  10.339
17867SOL    HW165663   7.425   3.616  10.427
17867SOL    HW265664   7.446   3.609  10.266
17868SOL     OW65665   6.492   2.346   9.901
17868SOL    HW165666   6.568   2.374   9.960
17868SOL    HW265667   6.448   2.426   9.862
17869SOL     OW65668   6.727   2.810   9.418
17869SOL    HW165669   6.764   2.760   9.496
17869SOL    HW265670   6.657   2.755   9.373
17870SOL     OW65671   7.310   2.479   9.497
17870SOL    HW165672   7.331   2.398   9.443
17870SOL    HW265673   7.327   2.460   9.594
17871SOL     OW65674   6.604   3.617   9.405
17871SOL    HW165675   6.638   3.530   9.370
17871SOL    HW265676   6.572   3.605   9.499
17872SOL     OW65677   5.566   2.467   9.754
17872SOL    HW165678   5.568   2.418   9.841
17872SOL    HW265679   5.568   2.566   9.772
17873SOL     OW65680   5.739   3.352   9.608
17873SOL    HW165681   5.766   3.258   9.628
17873SOL    HW265682   5.764   3.374   9.514
17874SOL     OW65683   5.753   3.495   9.845
17874SOL    HW165684   5.669   3.546   9.863
17874SOL    HW265685   5.744   3.444   9.760
17875SOL     OW65686   6.026   2.792   9.247
17875SOL    HW165687   5.995   2.826   9.159
17875SOL    HW265688   6.030   2.867   9.313
17876SOL     OW65689   5.630   2.684   9.420
17876SOL    HW165690   5.690   2.631   9.480
17876SOL    HW265691   5.536   2.652   9.432
17877SOL     OW65692   7.150   2.682   9.620
17877SOL    HW165693   7.218   2.616   9.587
17877SOL    HW265694   7.165   2.770   9.576
17878SOL     OW65695   6.305   2.738   9.304
17878SOL    HW165696   6.334   2.657   9.355
17878SOL    HW265697   6.205   2.737   9.295
17879SOL     OW65698   6.901   2.270   9.650
17879SOL    HW165699   6.838   2.328   9.598
17879SOL    HW265700   6.994   2.304   9.638
17880SOL     OW65701   7.169   2.281   9.720
17880SOL    HW165702   7.265   2.252   9.717
17880SOL    HW265703   7.130   2.259   9.809
17881SOL     OW65704   6.403   2.222   9.442
17881SOL    HW165705   6.312   2.235   9.480
17881SOL    HW265706   6.463   2.182   9.512
17882SOL     OW65707   6.514   3.167   9.377
17882SOL    HW165708   6.567   3.107   9.437
17882SOL    HW265709   6.553   3.168   9.286
17883SOL     OW65710   7.265   3.462   9.862
17883SOL    HW165711   7.232   3.555   9.881
17883SOL    HW265712   7.263   3.446   9.763
17884SOL     OW65713   6.872   2.775  10.054
17884SOL    HW165714   6.893   2.717  10.132
17884SOL    HW265715   6.881   2.871  10.080
17885SOL     OW65716   5.572   2.157   9.702
17885SOL    HW165717   5.632   2.108   9.640
17885SOL    HW265718   5.627   2.209   9.767
17886SOL     OW65719   7.195   3.655   9.393
17886SOL    HW165720   7.285   3.699   9.395
17886SOL    HW265721   7.194   3.586   9.321
17887SOL     OW65722   6.377   2.668   9.616
17887SOL    HW165723   6.288   2.696   9.581
17887SOL    HW265724   6.418   2.602   9.552
17888SOL     OW65725   5.896   3.584   9.426
17888SOL    HW165726   5.988   3.614   9.401
17888SOL    HW265727   5.871   3.623   9.515
17889SOL     OW65728   6.328   1.906   9.625
17889SOL    HW165729   6.289   1.895   9.534
17889SOL    HW265730   6.284   1.982   9.672
17890SOL     OW65731   5.573   3.042   9.719
17890SOL    HW165732   5.651   3.100   9.743
17890SOL    HW265733   5.592   2.993   9.634
17891SOL     OW65734   6.254   2.153   9.956
17891SOL    HW165735   6.243   2.095  10.037
17891SOL    HW265736   6.339   2.205   9.964
17892SOL     OW65737   6.838   2.683   9.652
17892SOL    HW165738   6.784   2.681   9.736
17892SOL    HW265739   6.915   2.746   9.663
17893SOL     OW65740   7.135   2.779   9.872
17893SOL    HW165741   7.149   2.742   9.779
17893SOL    HW265742   7.046   2.749   9.906
17894SOL     OW65743   7.145   2.136   9.446
17894SOL    HW165744   7.150   2.178   9.537
17894SOL    HW265745   7.078   2.061   9.448
17895SOL     OW65746   5.868   2.407   9.497
17895SOL    HW165747   5.940   2.436   9.434
17895SOL    HW265748   5.824   2.487   9.537
17896SOL     OW65749   5.983   3.670   9.963
17896SOL    HW165750   5.907   3.636   9.908
17896SOL    HW265751   6.069   3.633   9.928
17897SOL     OW65752   6.282   3.103   9.744
17897SOL    HW165753   6.325   3.034   9.686
17897SOL    HW265754   6.246   3.060   9.827
17898SOL     OW65755   5.760   2.134   9.461
17898SOL    HW165756   5.804   2.103   9.378
17898SOL    HW265757   5.761   2.234   9.465
17899SOL     OW65758   5.613   2.386  10.072
17899SOL    HW165759   5.577   2.479  10.064
17899SOL    HW265760   5.696   2.387  10.128
17900SOL     OW65761   6.048   2.973   9.458
17900SOL    HW165762   6.148   2.973   9.469
17900SOL    HW265763   6.017   3.066   9.437
17901SOL     OW65764   6.674   2.565   9.274
17901SOL    HW165765   6.605   2.622   9.230
17901SOL    HW265766   6.755   2.559   9.215
17902SOL     OW65767   6.409   2.484   9.417
17902SOL    HW165768   6.499   2.485   9.372
17902SOL    HW265769   6.386   2.390   9.442
17903SOL     OW65770   6.860   2.001   9.711
17903SOL    HW165771   6.770   1.985   9.752
17903SOL    HW265772   6.868   2.097   9.685
17904SOL     OW65773   5.609   1.916   9.371
17904SOL    HW165774   5.672   1.839   9.379
17904SOL    HW265775   5.629   1.984   9.442
17905SOL     OW65776   7.181   2.903   9.472
17905SOL    HW165777   7.252   2.973   9.474
17905SOL    HW265778   7.168   2.873   9.377
17906SOL     OW65779   6.627   2.076   9.867
17906SOL    HW165780   6.686   2.136   9.922
17906SOL    HW265781   6.554   2.040   9.924
17907SOL     OW65782   5.809   1.865   9.658
17907SOL    HW165783   5.847   1.953   9.685
17907SOL    HW265784   5.732   1.841   9.718
17908SOL     OW65785   5.631   2.952   9.478
17908SOL    HW165786   5.621   2.855   9.457
17908SOL    HW265787   5.684   2.997   9.406
17909SOL     OW65788   7.328   2.064  10.079
17909SOL    HW165789   7.283   2.046  10.166
17909SOL    HW265790   7.426   2.081  10.095
17910SOL     OW65791   6.714   2.463   9.540
17910SOL    HW165792   6.766   2.535   9.586
17910SOL    HW265793   6.727   2.470   9.442
17911SOL     OW65794   6.334   3.346   9.265
17911SOL    HW165795   6.309   3.423   9.324
17911SOL    HW265796   6.398   3.286   9.313
17912SOL     OW65797   6.473   3.311   9.685
17912SOL    HW165798   6.523   3.299   9.600
17912SOL    HW265799   6.419   3.228   9.704
17913SOL     OW65800   6.064   2.719   9.584
17913SOL    HW165801   6.014   2.784   9.528
17913SOL    HW265802   6.006   2.640   9.603
17914SOL     OW65803   5.538   1.892   9.779
17914SOL    HW165804   5.451   1.879   9.732
17914SOL    HW265805   5.546   1.987   9.809
17915SOL     OW65806   5.985   3.358   9.908
17915SOL    HW165807   5.983   3.259   9.921
17915SOL    HW265808   5.894   3.391   9.885
17916SOL     OW65809   6.592   3.033   9.641
17916SOL    HW165810   6.672   3.069   9.689
17916SOL    HW265811   6.550   2.960   9.697
17917SOL     OW65812   7.183   2.300  10.005
17917SOL    HW165813   7.202   2.386  10.052
17917SOL    HW265814   7.251   2.231  10.033
17918SOL     OW65815   6.326   2.972   9.491
17918SOL    HW165816   6.398   3.031   9.456
17918SOL    HW265817   6.366   2.888   9.527
17919SOL     OW65818   6.397   1.948   9.343
17919SOL    HW165819   6.472   1.882   9.355
17919SOL    HW265820   6.428   2.039   9.371
17920SOL     OW65821   6.076   2.377   9.955
17920SOL    HW165822   6.114   2.288   9.981
17920SOL    HW265823   6.143   2.427   9.900
17921SOL     OW65824   5.769   3.087   9.270
17921SOL    HW165825   5.761   3.099   9.171
17921SOL    HW265826   5.828   3.158   9.308
17922SOL     OW65827   6.196   3.526   9.430
17922SOL    HW165828   6.171   3.621   9.414
17922SOL    HW265829   6.163   3.498   9.520
17923SOL     OW65830   5.591   2.780   9.816
17923SOL    HW165831   5.598   2.879   9.803
17923SOL    HW265832   5.500   2.757   9.850
17924SOL     OW65833   6.866   3.053   9.743
17924SOL    HW165834   6.965   3.057   9.759
17924SOL    HW265835   6.849   3.039   9.645
17925SOL     OW65836   6.219   2.219   9.691
17925SOL    HW165837   6.121   2.213   9.671
17925SOL    HW265838   6.238   2.176   9.779
17926SOL     OW65839   7.139   1.902   9.950
17926SOL    HW165840   7.134   1.943   9.859
17926SOL    HW265841   7.220   1.936   9.997
17927SOL     OW65842   6.904   2.310   9.932
17927SOL    HW165843   6.903   2.302   9.833
17927SOL    HW265844   6.993   2.282   9.967
17928SOL     OW65845   7.142   4.968   0.550
17928SOL    HW165846   7.153   5.052   0.604
17928SOL    HW265847   7.232   4.931   0.527
17929SOL     OW65848   7.222   4.250   1.414
17929SOL    HW165849   7.124   4.242   1.436
17929SOL    HW265850   7.275   4.239   1.498
17930SOL     OW65851   6.876   5.276   0.794
17930SOL    HW165852   6.865   5.373   0.817
17930SOL    HW265853   6.969   5.259   0.764
17931SOL     OW65854   6.754   3.787   1.352
17931SOL    HW165855   6.678   3.742   1.399
17931SOL    HW265856   6.783   3.732   1.274
17932SOL     OW65857   6.492   4.567   1.729
17932SOL    HW165858   6.457   4.542   1.639
17932SOL    HW265859   6.416   4.588   1.790
17933SOL     OW65860   7.087   4.759   1.528
17933SOL    HW165861   6.995   4.764   1.490
17933SOL    HW265862   7.152   4.797   1.462
17934SOL     OW65863   6.987   4.766   1.209
17934SOL    HW165864   6.912   4.755   1.274
17934SOL    HW265865   7.024   4.859   1.215
17935SOL     OW65866   6.483   5.021   1.509
17935SOL    HW165867   6.426   5.084   1.455
17935SOL    HW265868   6.516   4.947   1.450
17936SOL     OW65869   6.026   4.914   0.718
17936SOL    HW165870   5.959   4.868   0.777
17936SOL    HW265871   6.118   4.882   0.741
17937SOL     OW65872   6.253   4.320   0.549
17937SOL    HW165873   6.292   4.390   0.490
17937SOL    HW265874   6.227   4.240   0.495
17938SOL     OW65875   5.956   5.083   0.202
17938SOL    HW165876   6.020   5.099   0.127
17938SOL    HW265877   5.980   5.141   0.280
17939SOL     OW65878   6.107   4.039   1.012
17939SOL    HW165879   6.183   4.104   1.008
17939SOL    HW265880   6.137   3.950   0.979
17940SOL     OW65881   5.804   4.465   0.430
17940SOL    HW165882   5.819   4.399   0.504
17940SOL    HW265883   5.754   4.544   0.465
17941SOL     OW65884   6.390   5.410   0.607
17941SOL    HW165885   6.455   5.343   0.571
17941SOL    HW265886   6.380   5.486   0.543
17942SOL     OW65887   7.282   5.292   0.349
17942SOL    HW165888   7.378   5.266   0.342
17942SOL    HW265889   7.258   5.352   0.273
17943SOL     OW65890   7.194   3.985   1.120
17943SOL    HW165891   7.245   4.057   1.073
17943SOL    HW265892   7.099   4.012   1.129
17944SOL     OW65893   6.594   4.014   0.389
17944SOL    HW165894   6.619   4.108   0.410
17944SOL    HW265895   6.595   3.960   0.473
17945SOL     OW65896   5.718   4.727   1.574
17945SOL    HW165897   5.814   4.742   1.592
17945SOL    HW265898   5.680   4.665   1.643
17946SOL     OW65899   6.044   4.372   0.117
17946SOL    HW165900   6.004   4.451   0.070
17946SOL    HW265901   6.133   4.351   0.077
17947SOL     OW65902   6.217   5.296   0.815
17947SOL    HW165903   6.290   5.319   0.751
17947SOL    HW265904   6.146   5.243   0.769
17948SOL     OW65905   6.559   4.328   1.569
17948SOL    HW165906   6.592   4.245   1.616
17948SOL    HW265907   6.632   4.396   1.568
17949SOL     OW65908   7.163   5.128   0.791
17949SOL    HW165909   7.159   5.163   0.884
17949SOL    HW265910   7.222   5.187   0.735
17950SOL     OW65911   6.752   4.004   0.178
17950SOL    HW165912   6.846   3.974   0.196
17950SOL    HW265913   6.700   4.004   0.264
17951SOL     OW65914   5.904   4.209   1.273
17951SOL    HW165915   5.894   4.122   1.225
17951SOL    HW265916   5.840   4.276   1.236
17952SOL     OW65917   6.986   4.489   1.311
17952SOL    HW165918   6.990   4.583   1.276
17952SOL    HW265919   7.079   4.458   1.333
17953SOL     OW65920   7.067   5.508   1.344
17953SOL    HW165921   7.010   5.459   1.278
17953SOL    HW265922   7.153   5.535   1.301
17954SOL     OW65923   7.362   4.226   1.199
17954SOL    HW165924   7.419   4.308   1.201
17954SOL    HW265925   7.303   4.225   1.279
17955SOL     OW65926   7.379   5.452   1.112
17955SOL    HW165927   7.425   5.462   1.200
17955SOL    HW265928   7.446   5.455   1.039
17956SOL     OW65929   6.492   4.192   0.674
17956SOL    HW165930   6.568   4.220   0.733
17956SOL    HW265931   6.448   4.272   0.635
17957SOL     OW65932   6.727   4.656   0.191
17957SOL    HW165933   6.764   4.606   0.269
17957SOL    HW265934   6.657   4.601   0.146
17958SOL     OW65935   6.569   4.078   1.812
17958SOL    HW165936   6.632   4.083   1.889
17958SOL    HW265937   6.477   4.056   1.845
17959SOL     OW65938   7.310   4.325   0.270
17959SOL    HW165939   7.331   4.244   0.216
17959SOL    HW265940   7.327   4.306   0.367
17960SOL     OW65941   6.604   5.463   0.178
17960SOL    HW165942   6.638   5.376   0.143
17960SOL    HW265943   6.572   5.451   0.272
17961SOL     OW65944   6.285   3.730   1.710
17961SOL    HW165945   6.292   3.636   1.677
17961SOL    HW265946   6.342   3.740   1.792
17962SOL     OW65947   7.208   4.331   0.978
17962SOL    HW165948   7.193   4.422   1.015
17962SOL    HW265949   7.278   4.284   1.032
17963SOL     OW65950   6.618   4.997   1.744
17963SOL    HW165951   6.640   4.907   1.706
17963SOL    HW265952   6.553   5.044   1.685
17964SOL     OW65953   6.273   4.839   1.748
17964SOL    HW165954   6.244   4.916   1.805
17964SOL    HW265955   6.283   4.758   1.806
17965SOL     OW65956   6.908   3.703   0.854
17965SOL    HW165957   6.857   3.787   0.836
17965SOL    HW265958   6.994   3.705   0.803
17966SOL     OW65959   5.566   4.313   0.527
17966SOL    HW165960   5.568   4.264   0.614
17966SOL    HW265961   5.568   4.412   0.545
17967SOL     OW65962   5.887   3.901   0.848
17967SOL    HW165963   5.939   3.941   0.923
17967SOL    HW265964   5.940   3.828   0.805
17968SOL     OW65965   5.871   3.949   1.182
17968SOL    HW165966   5.836   3.856   1.182
17968SOL    HW265967   5.958   3.952   1.133
17969SOL     OW65968   6.538   4.571   0.922
17969SOL    HW165969   6.564   4.651   0.868
17969SOL    HW265970   6.532   4.491   0.862
17970SOL     OW65971   5.739   5.198   0.381
17970SOL    HW165972   5.766   5.104   0.401
17970SOL    HW265973   5.764   5.220   0.287
17971SOL     OW65974   7.021   5.067   1.255
17971SOL    HW165975   6.992   5.104   1.166
17971SOL    HW265976   6.943   5.067   1.317
17972SOL     OW65977   5.753   5.341   0.618
17972SOL    HW165978   5.669   5.392   0.636
17972SOL    HW265979   5.744   5.290   0.533
17973SOL     OW65980   7.274   5.138   1.293
17973SOL    HW165981   7.305   5.152   1.387
17973SOL    HW265982   7.175   5.125   1.292
17974SOL     OW65983   6.026   4.638   0.020
17974SOL    HW165984   5.995   4.672  -0.068
17974SOL    HW265985   6.030   4.713   0.086
17975SOL     OW65986   6.543   4.825   1.319
17975SOL    HW165987   6.593   4.740   1.303
17975SOL    HW265988   6.497   4.852   1.234
17976SOL     OW65989   5.630   4.530   0.193
17976SOL    HW165990   5.690   4.477   0.253
17976SOL    HW265991   5.536   4.498   0.205
17977SOL     OW65992   7.150   4.528   0.393
17977SOL    HW165993   7.218   4.462   0.360
17977SOL    HW265994   7.165   4.616   0.349
17978SOL     OW65995   6.398   5.515   1.041
17978SOL    HW165996   6.444   5.448   0.983
17978SOL    HW265997   6.324   5.471   1.091
17979SOL     OW65998   6.305   4.584   0.077
17979SOL    HW165999   6.334   4.503   0.128
17979SOL    HW266000   6.205   4.583   0.068
17980SOL     OW66001   6.901   4.116   0.423
17980SOL    HW166002   6.838   4.174   0.371
17980SOL    HW266003   6.994   4.150   0.411
17981SOL     OW66004   5.798   4.317   1.523
17981SOL    HW166005   5.818   4.222   1.498
17981SOL    HW266006   5.761   4.320   1.616
17982SOL     OW66007   5.680   3.972   1.413
17982SOL    HW166008   5.752   3.982   1.344
17982SOL    HW266009   5.591   3.971   1.368
17983SOL     OW66010   6.578   4.593   1.178
17983SOL    HW166011   6.572   4.579   1.079
17983SOL    HW266012   6.497   4.554   1.222
17984SOL     OW66013   7.169   4.127   0.493
17984SOL    HW166014   7.265   4.098   0.490
17984SOL    HW266015   7.130   4.105   0.582
17985SOL     OW66016   6.453   5.202   0.930
17985SOL    HW166017   6.511   5.213   0.849
17985SOL    HW266018   6.359   5.226   0.908
17986SOL     OW66019   7.265   5.308   0.635
17986SOL    HW166020   7.232   5.401   0.654
17986SOL    HW266021   7.263   5.292   0.536
17987SOL     OW66022   6.680   4.581   0.624
17987SOL    HW166023   6.745   4.609   0.695
17987SOL    HW266024   6.601   4.642   0.626
17988SOL     OW66025   6.428   5.307   1.648
17988SOL    HW166026   6.416   5.238   1.577
17988SOL    HW266027   6.391   5.272   1.735
17989SOL     OW66028   6.872   4.621   0.827
17989SOL    HW166029   6.893   4.563   0.905
17989SOL    HW266030   6.881   4.717   0.853
17990SOL     OW66031   5.828   4.750   0.873
17990SOL    HW166032   5.751   4.812   0.866
17990SOL    HW266033   5.865   4.751   0.966
17991SOL     OW66034   6.765   5.086   1.411
17991SOL    HW166035   6.798   5.171   1.452
17991SOL    HW266036   6.666   5.082   1.418
17992SOL     OW66037   5.572   4.003   0.475
17992SOL    HW166038   5.632   3.954   0.413
17992SOL    HW266039   5.627   4.055   0.540
17993SOL     OW66040   7.195   5.501   0.166
17993SOL    HW166041   7.285   5.545   0.168
17993SOL    HW266042   7.194   5.432   0.094
17994SOL     OW66043   6.359   4.468   1.324
17994SOL    HW166044   6.361   4.554   1.375
17994SOL    HW266045   6.416   4.400   1.371
17995SOL     OW66046   5.596   5.495   1.395
17995SOL    HW166047   5.604   5.595   1.393
17995SOL    HW266048   5.572   5.466   1.488
17996SOL     OW66049   6.377   4.514   0.389
17996SOL    HW166050   6.288   4.542   0.354
17996SOL    HW266051   6.418   4.448   0.325
17997SOL     OW66052   5.899   4.232   0.928
17997SOL    HW166053   5.955   4.225   0.845
17997SOL    HW266054   5.956   4.210   1.008
17998SOL     OW66055   5.896   5.430   0.199
17998SOL    HW166056   5.988   5.460   0.174
17998SOL    HW266057   5.871   5.469   0.288
17999SOL     OW66058   6.872   5.452   1.136
17999SOL    HW166059   6.891   5.515   1.062
17999SOL    HW266060   6.880   5.358   1.103
18000SOL     OW66061   5.577   4.847   0.948
18000SOL    HW166062   5.487   4.863   0.909
18000SOL    HW266063   5.575   4.763   1.003
18001SOL     OW66064   5.573   4.888   0.492
18001SOL    HW166065   5.651   4.946   0.516
18001SOL    HW266066   5.592   4.839   0.407
18002SOL     OW66067   7.103   4.016   1.576
18002SOL    HW166068   7.042   4.094   1.573
18002SOL    HW266069   7.158   4.020   1.659
18003SOL     OW66070   6.819   3.962   0.867
18003SOL    HW166071   6.818   4.040   0.804
18003SOL    HW266072   6.862   3.989   0.953
18004SOL     OW66073   6.939   3.768   0.163
18004SOL    HW166074   7.019   3.708   0.160
18004SOL    HW266075   6.865   3.721   0.211
18005SOL     OW66076   7.152   3.740   1.597
18005SOL    HW166077   7.178   3.697   1.511
18005SOL    HW266078   7.102   3.824   1.579
18006SOL     OW66079   6.254   3.999   0.729
18006SOL    HW166080   6.243   3.941   0.810
18006SOL    HW266081   6.339   4.051   0.737
18007SOL     OW66082   6.834   4.350   1.121
18007SOL    HW166083   6.888   4.390   1.047
18007SOL    HW266084   6.872   4.379   1.209
18008SOL     OW66085   7.127   3.756   0.437
18008SOL    HW166086   7.134   3.710   0.349
18008SOL    HW266087   7.031   3.766   0.462
18009SOL     OW66088   6.103   5.071   1.800
18009SOL    HW166089   6.064   5.134   1.733
18009SOL    HW266090   6.186   5.111   1.840
18010SOL     OW66091   5.979   4.803   1.632
18010SOL    HW166092   5.998   4.827   1.537
18010SOL    HW266093   5.972   4.886   1.687
18011SOL     OW66094   5.640   5.093   1.106
18011SOL    HW166095   5.609   5.019   1.047
18011SOL    HW266096   5.572   5.111   1.177
18012SOL     OW66097   6.726   4.294   0.839
18012SOL    HW166098   6.808   4.271   0.787
18012SOL    HW266099   6.721   4.235   0.920
18013SOL     OW66100   6.897   4.094   1.094
18013SOL    HW166101   6.871   4.191   1.100
18013SOL    HW266102   6.897   4.054   1.186
18014SOL     OW66103   6.838   4.529   0.425
18014SOL    HW166104   6.784   4.527   0.509
18014SOL    HW266105   6.915   4.592   0.436
18015SOL     OW66106   7.135   4.625   0.645
18015SOL    HW166107   7.149   4.588   0.552
18015SOL    HW266108   7.046   4.595   0.679
18016SOL     OW66109   7.291   4.562   1.540
18016SOL    HW166110   7.193   4.583   1.542
18016SOL    HW266111   7.340   4.638   1.499
18017SOL     OW66112   7.145   3.982   0.219
18017SOL    HW166113   7.150   4.024   0.310
18017SOL    HW266114   7.078   3.907   0.221
18018SOL     OW66115   6.292   5.197   1.439
18018SOL    HW166116   6.229   5.275   1.446
18018SOL    HW266117   6.260   5.135   1.367
18019SOL     OW66118   5.683   3.992   1.704
18019SOL    HW166119   5.701   3.981   1.606
18019SOL    HW266120   5.585   3.988   1.721
18020SOL     OW66121   5.563   5.406   1.648
18020SOL    HW166122   5.635   5.392   1.716
18020SOL    HW266123   5.474   5.409   1.693
18021SOL     OW66124   5.731   4.062   0.672
18021SOL    HW166125   5.674   4.117   0.733
18021SOL    HW266126   5.801   4.014   0.725
18022SOL     OW66127   6.903   5.294   1.535
18022SOL    HW166128   6.856   5.362   1.590
18022SOL    HW266129   6.970   5.340   1.476
18023SOL     OW66130   5.868   4.253   0.270
18023SOL    HW166131   5.940   4.282   0.207
18023SOL    HW266132   5.824   4.333   0.310
18024SOL     OW66133   7.254   3.915   1.373
18024SOL    HW166134   7.210   3.963   1.449
18024SOL    HW266135   7.232   3.961   1.287
18025SOL     OW66136   5.983   5.516   0.736
18025SOL    HW166137   5.907   5.482   0.681
18025SOL    HW266138   6.069   5.479   0.701
18026SOL     OW66139   5.908   5.025   1.181
18026SOL    HW166140   5.920   5.041   1.278
18026SOL    HW266141   5.821   5.065   1.151
18027SOL     OW66142   6.792   5.229   1.827
18027SOL    HW166143   6.751   5.144   1.793
18027SOL    HW266144   6.772   5.303   1.763
18028SOL     OW66145   5.914   4.500   0.719
18028SOL    HW166146   5.906   4.598   0.737
18028SOL    HW266147   5.998   4.466   0.760
18029SOL     OW66148   5.613   4.232   0.845
18029SOL    HW166149   5.577   4.325   0.837
18029SOL    HW266150   5.696   4.233   0.901
18030SOL     OW66151   6.048   4.819   0.231
18030SOL    HW166152   6.148   4.819   0.242
18030SOL    HW266153   6.017   4.912   0.210
18031SOL     OW66154   6.674   4.411   0.047
18031SOL    HW166155   6.605   4.468   0.003
18031SOL    HW266156   6.755   4.405  -0.012
18032SOL     OW66157   6.409   4.330   0.190
18032SOL    HW166158   6.499   4.331   0.145
18032SOL    HW266159   6.386   4.236   0.215
18033SOL     OW66160   6.860   3.847   0.484
18033SOL    HW166161   6.770   3.831   0.525
18033SOL    HW266162   6.868   3.943   0.458
18034SOL     OW66163   6.974   4.247   1.500
18034SOL    HW166164   6.926   4.270   1.584
18034SOL    HW266165   6.908   4.217   1.431
18035SOL     OW66166   5.882   4.737   1.145
18035SOL    HW166167   5.893   4.692   1.234
18035SOL    HW266168   5.909   4.833   1.152
18036SOL     OW66169   7.181   4.749   0.245
18036SOL    HW166170   7.252   4.819   0.247
18036SOL    HW266171   7.168   4.719   0.150
18037SOL     OW66172   6.163   4.350   1.167
18037SOL    HW166173   6.238   4.393   1.216
18037SOL    HW266174   6.096   4.315   1.233
18038SOL     OW66175   6.306   4.719   1.484
18038SOL    HW166176   6.375   4.771   1.434
18038SOL    HW266177   6.301   4.752   1.579
18039SOL     OW66178   6.698   4.740   1.644
18039SOL    HW166179   6.620   4.686   1.677
18039SOL    HW266180   6.779   4.718   1.699
18040SOL     OW66181   6.627   3.922   0.640
18040SOL    HW166182   6.686   3.982   0.695
18040SOL    HW266183   6.554   3.886   0.697
18041SOL     OW66184   6.737   5.454   1.680
18041SOL    HW166185   6.642   5.452   1.648
18041SOL    HW266186   6.758   5.545   1.717
18042SOL     OW66187   6.155   3.799   0.911
18042SOL    HW166188   6.083   3.732   0.897
18042SOL    HW266189   6.237   3.753   0.946
18043SOL     OW66190   5.855   5.464   1.278
18043SOL    HW166191   5.835   5.446   1.182
18043SOL    HW266192   5.782   5.426   1.335
18044SOL     OW66193   6.242   4.656   1.025
18044SOL    HW166194   6.240   4.572   0.970
18044SOL    HW266195   6.191   4.642   1.110
18045SOL     OW66196   5.581   4.666   1.151
18045SOL    HW166197   5.670   4.644   1.191
18045SOL    HW266198   5.526   4.582   1.147
18046SOL     OW66199   5.809   3.711   0.431
18046SOL    HW166200   5.847   3.799   0.458
18046SOL    HW266201   5.732   3.687   0.491
18047SOL     OW66202   6.225   4.328   1.759
18047SOL    HW166203   6.177   4.379   1.688
18047SOL    HW266204   6.318   4.307   1.729
18048SOL     OW66205   5.631   4.798   0.251
18048SOL    HW166206   5.621   4.701   0.230
18048SOL    HW266207   5.684   4.843   0.179
18049SOL     OW66208   7.328   3.910   0.852
18049SOL    HW166209   7.283   3.892   0.939
18049SOL    HW266210   7.426   3.927   0.868
18050SOL     OW66211   6.376   4.886   1.104
18050SOL    HW166212   6.327   4.801   1.085
18050SOL    HW266213   6.446   4.901   1.035
18051SOL     OW66214   6.714   4.309   0.313
18051SOL    HW166215   6.766   4.381   0.359
18051SOL    HW266216   6.727   4.316   0.215
18052SOL     OW66217   7.075   5.124   1.640
18052SOL    HW166218   7.060   5.026   1.654
18052SOL    HW266219   6.992   5.166   1.604
18053SOL     OW66220   5.832   4.566   1.380
18053SOL    HW166221   5.796   4.476   1.406
18053SOL    HW266222   5.793   4.636   1.440
18054SOL     OW66223   6.152   5.399   1.072
18054SOL    HW166224   6.172   5.369   0.979
18054SOL    HW266225   6.077   5.344   1.109
18055SOL     OW66226   5.663   4.504   0.858
18055SOL    HW166227   5.758   4.495   0.826
18055SOL    HW266228   5.629   4.596   0.837
18056SOL     OW66229   5.600   4.621   1.785
18056SOL    HW166230   5.515   4.572   1.766
18056SOL    HW266231   5.627   4.608   1.880
18057SOL     OW66232   6.497   5.530   1.491
18057SOL    HW166233   6.469   5.443   1.532
18057SOL    HW266234   6.441   5.604   1.528
18058SOL     OW66235   6.726   4.877   1.021
18058SOL    HW166236   6.710   4.971   1.052
18058SOL    HW266237   6.729   4.816   1.101
18059SOL     OW66238   6.000   4.148   1.785
18059SOL    HW166239   6.036   4.095   1.708
18059SOL    HW266240   6.061   4.225   1.803
18060SOL     OW66241   6.064   4.565   0.357
18060SOL    HW166242   6.014   4.630   0.301
18060SOL    HW266243   6.006   4.486   0.376
18061SOL     OW66244   7.145   4.596   1.055
18061SOL    HW166245   7.164   4.635   0.964
18061SOL    HW266246   7.099   4.665   1.111
18062SOL     OW66247   6.837   4.039   1.351
18062SOL    HW166248   6.908   4.011   1.415
18062SOL    HW266249   6.784   3.959   1.323
18063SOL     OW66250   5.538   3.738   0.552
18063SOL    HW166251   5.451   3.725   0.505
18063SOL    HW266252   5.546   3.833   0.582
18064SOL     OW66253   6.759   3.839   1.793
18064SOL    HW166254   6.818   3.855   1.873
18064SOL    HW266255   6.706   3.922   1.774
18065SOL     OW66256   5.975   5.258   1.618
18065SOL    HW166257   5.917   5.323   1.667
18065SOL    HW266258   6.037   5.308   1.558
18066SOL     OW66259   7.331   5.145   1.559
18066SOL    HW166260   7.359   5.238   1.581
18066SOL    HW266261   7.238   5.129   1.592
18067SOL     OW66262   6.581   4.258   1.109
18067SOL    HW166263   6.667   4.309   1.108
18067SOL    HW266264   6.587   4.184   1.176
18068SOL     OW66265   5.985   5.204   0.681
18068SOL    HW166266   5.983   5.105   0.694
18068SOL    HW266267   5.894   5.237   0.658
18069SOL     OW66268   6.626   5.321   1.269
18069SOL    HW166269   6.552   5.385   1.287
18069SOL    HW266270   6.705   5.370   1.231
18070SOL     OW66271   5.835   5.451   1.768
18070SOL    HW166272   5.878   5.535   1.734
18070SOL    HW266273   5.860   5.438   1.864
18071SOL     OW66274   5.695   4.987   1.639
18071SOL    HW166275   5.674   4.892   1.612
18071SOL    HW266276   5.626   5.048   1.601
18072SOL     OW66277   5.784   5.352   1.043
18072SOL    HW166278   5.726   5.272   1.057
18072SOL    HW266279   5.808   5.359   0.946
18073SOL     OW66280   6.530   3.873   0.898
18073SOL    HW166281   6.626   3.874   0.926
18073SOL    HW266282   6.475   3.830   0.970
18074SOL     OW66283   7.183   4.146   0.778
18074SOL    HW166284   7.202   4.232   0.825
18074SOL    HW266285   7.251   4.077   0.806
18075SOL     OW66286   6.326   4.818   0.264
18075SOL    HW166287   6.398   4.877   0.229
18075SOL    HW266288   6.366   4.734   0.300
18076SOL     OW66289   6.076   4.223   0.728
18076SOL    HW166290   6.114   4.134   0.754
18076SOL    HW266291   6.143   4.273   0.673
18077SOL     OW66292   6.064   4.781   1.382
18077SOL    HW166293   6.160   4.761   1.402
18077SOL    HW266294   6.053   4.879   1.364
18078SOL     OW66295   7.286   4.824   1.351
18078SOL    HW166296   7.300   4.922   1.365
18078SOL    HW266297   7.343   4.793   1.275
18079SOL     OW66298   5.769   4.933   0.043
18079SOL    HW166299   5.761   4.945  -0.056
18079SOL    HW266300   5.828   5.004   0.081
18080SOL     OW66301   6.846   4.795   1.427
18080SOL    HW166302   6.790   4.754   1.498
18080SOL    HW266303   6.826   4.893   1.421
18081SOL     OW66304   6.113   5.411   1.427
18081SOL    HW166305   6.162   5.491   1.391
18081SOL    HW266306   6.021   5.409   1.388
18082SOL     OW66307   7.195   5.253   1.028
18082SOL    HW166308   7.167   5.346   1.052
18082SOL    HW266309   7.245   5.212   1.104
18083SOL     OW66310   5.591   4.626   0.589
18083SOL    HW166311   5.598   4.725   0.576
18083SOL    HW266312   5.500   4.603   0.623
18084SOL     OW66313   6.100   4.424   1.527
18084SOL    HW166314   6.006   4.394   1.508
18084SOL    HW266315   6.109   4.521   1.504
18085SOL     OW66316   7.167   4.800   0.839
18085SOL    HW166317   7.129   4.889   0.812
18085SOL    HW266318   7.167   4.738   0.761
18086SOL     OW66319   6.325   4.206   1.008
18086SOL    HW166320   6.417   4.234   1.035
18086SOL    HW266321   6.257   4.257   1.062
18087SOL     OW66322   6.178   5.057   1.235
18087SOL    HW166323   6.091   5.056   1.186
18087SOL    HW266324   6.244   4.997   1.188
18088SOL     OW66325   5.744   4.399   1.149
18088SOL    HW166326   5.782   4.458   1.220
18088SOL    HW266327   5.727   4.452   1.067
18089SOL     OW66328   5.915   5.045   1.447
18089SOL    HW166329   5.934   5.133   1.491
18089SOL    HW266330   5.820   5.019   1.465
18090SOL     OW66331   7.158   5.361   1.795
18090SOL    HW166332   7.127   5.283   1.740
18090SOL    HW266333   7.127   5.446   1.753
18091SOL     OW66334   6.866   4.899   0.516
18091SOL    HW166335   6.965   4.903   0.532
18091SOL    HW266336   6.849   4.885   0.418
18092SOL     OW66337   7.139   3.748   0.723
18092SOL    HW166338   7.134   3.789   0.632
18092SOL    HW266339   7.220   3.782   0.770
18093SOL     OW66340   6.742   4.504   1.416
18093SOL    HW166341   6.841   4.513   1.406
18093SOL    HW266342   6.698   4.506   1.326
18094SOL     OW66343   6.236   4.464   0.818
18094SOL    HW166344   6.258   4.386   0.876
18094SOL    HW266345   6.245   4.438   0.722
18095SOL     OW66346   6.901   5.171   1.030
18095SOL    HW166347   6.815   5.128   1.059
18095SOL    HW266348   6.890   5.211   0.939
18096SOL     OW66349   6.904   4.156   0.705
18096SOL    HW166350   6.903   4.148   0.606
18096SOL    HW266351   6.993   4.128   0.740
18097SOL     OW66352   7.222   4.250   3.259
18097SOL    HW166353   7.124   4.242   3.281
18097SOL    HW266354   7.275   4.239   3.343
18098SOL     OW66355   5.889   3.887   1.864
18098SOL    HW166356   5.802   3.884   1.815
18098SOL    HW266357   5.940   3.969   1.836
18099SOL     OW66358   6.754   3.787   3.197
18099SOL    HW166359   6.678   3.742   3.244
18099SOL    HW266360   6.783   3.732   3.119
18100SOL     OW66361   6.492   4.567   3.574
18100SOL    HW166362   6.457   4.542   3.484
18100SOL    HW266363   6.416   4.588   3.635
18101SOL     OW66364   6.099   5.241   2.268
18101SOL    HW166365   6.055   5.250   2.357
18101SOL    HW266366   6.170   5.171   2.272
18102SOL     OW66367   6.117   3.774   1.990
18102SOL    HW166368   6.205   3.802   1.951
18102SOL    HW266369   6.045   3.837   1.960
18103SOL     OW66370   6.483   5.021   3.354
18103SOL    HW166371   6.426   5.084   3.300
18103SOL    HW266372   6.516   4.947   3.295
18104SOL     OW66373   6.026   4.914   2.563
18104SOL    HW166374   5.959   4.868   2.622
18104SOL    HW266375   6.118   4.882   2.586
18105SOL     OW66376   6.253   4.320   2.394
18105SOL    HW166377   6.292   4.390   2.335
18105SOL    HW266378   6.227   4.240   2.340
18106SOL     OW66379   6.873   4.228   3.603
18106SOL    HW166380   6.969   4.232   3.629
18106SOL    HW266381   6.829   4.152   3.650
18107SOL     OW66382   5.956   5.083   2.047
18107SOL    HW166383   6.020   5.099   1.972
18107SOL    HW266384   5.980   5.141   2.125
18108SOL     OW66385   6.107   4.039   2.857
18108SOL    HW166386   6.183   4.104   2.853
18108SOL    HW266387   6.137   3.950   2.824
18109SOL     OW66388   6.390   5.410   2.452
18109SOL    HW166389   6.455   5.343   2.416
18109SOL    HW266390   6.380   5.486   2.388
18110SOL     OW66391   7.282   5.292   2.194
18110SOL    HW166392   7.378   5.266   2.187
18110SOL    HW266393   7.258   5.352   2.118
18111SOL     OW66394   7.194   3.985   2.965
18111SOL    HW166395   7.245   4.057   2.918
18111SOL    HW266396   7.099   4.012   2.974
18112SOL     OW66397   6.594   4.014   2.234
18112SOL    HW166398   6.619   4.108   2.255
18112SOL    HW266399   6.595   3.960   2.318
18113SOL     OW66400   5.718   4.727   3.419
18113SOL    HW166401   5.814   4.742   3.437
18113SOL    HW266402   5.680   4.665   3.488
18114SOL     OW66403   6.217   5.296   2.660
18114SOL    HW166404   6.290   5.319   2.596
18114SOL    HW266405   6.146   5.243   2.614
18115SOL     OW66406   6.559   4.328   3.414
18115SOL    HW166407   6.592   4.245   3.461
18115SOL    HW266408   6.632   4.396   3.413
18116SOL     OW66409   5.894   4.949   2.312
18116SOL    HW166410   5.940   4.923   2.397
18116SOL    HW266411   5.914   4.881   2.241
18117SOL     OW66412   6.752   4.004   2.023
18117SOL    HW166413   6.846   3.974   2.041
18117SOL    HW266414   6.700   4.004   2.109
18118SOL     OW66415   5.904   4.209   3.118
18118SOL    HW166416   5.894   4.122   3.070
18118SOL    HW266417   5.840   4.276   3.081
18119SOL     OW66418   6.986   4.489   3.156
18119SOL    HW166419   6.990   4.583   3.121
18119SOL    HW266420   7.079   4.458   3.178
18120SOL     OW66421   5.939   3.981   2.277
18120SOL    HW166422   5.893   4.021   2.356
18120SOL    HW266423   5.887   4.000   2.195
18121SOL     OW66424   7.067   5.508   3.189
18121SOL    HW166425   7.010   5.459   3.123
18121SOL    HW266426   7.153   5.535   3.146
18122SOL     OW66427   7.362   4.226   3.044
18122SOL    HW166428   7.419   4.308   3.046
18122SOL    HW266429   7.303   4.225   3.124
18123SOL     OW66430   7.379   5.452   2.957
18123SOL    HW166431   7.425   5.462   3.045
18123SOL    HW266432   7.446   5.455   2.884
18124SOL     OW66433   6.492   4.192   2.519
18124SOL    HW166434   6.568   4.220   2.578
18124SOL    HW266435   6.448   4.272   2.480
18125SOL     OW66436   6.569   4.078   3.657
18125SOL    HW166437   6.632   4.083   3.734
18125SOL    HW266438   6.477   4.056   3.690
18126SOL     OW66439   6.604   5.463   2.023
18126SOL    HW166440   6.638   5.376   1.988
18126SOL    HW266441   6.572   5.451   2.117
18127SOL     OW66442   6.285   3.730   3.555
18127SOL    HW166443   6.292   3.636   3.522
18127SOL    HW266444   6.342   3.740   3.637
18128SOL     OW66445   7.208   4.331   2.823
18128SOL    HW166446   7.193   4.422   2.860
18128SOL    HW266447   7.278   4.284   2.877
18129SOL     OW66448   6.618   4.997   3.589
18129SOL    HW166449   6.640   4.907   3.551
18129SOL    HW266450   6.553   5.044   3.530
18130SOL     OW66451   6.273   4.839   3.593
18130SOL    HW166452   6.244   4.916   3.650
18130SOL    HW266453   6.283   4.758   3.651
18131SOL     OW66454   7.263   3.909   3.628
18131SOL    HW166455   7.240   3.930   3.723
18131SOL    HW266456   7.239   3.814   3.608
18132SOL     OW66457   5.566   4.313   2.372
18132SOL    HW166458   5.568   4.264   2.459
18132SOL    HW266459   5.568   4.412   2.390
18133SOL     OW66460   5.887   3.901   2.693
18133SOL    HW166461   5.939   3.941   2.768
18133SOL    HW266462   5.940   3.828   2.650
18134SOL     OW66463   5.871   3.949   3.027
18134SOL    HW166464   5.836   3.856   3.027
18134SOL    HW266465   5.958   3.952   2.978
18135SOL     OW66466   6.538   4.571   2.767
18135SOL    HW166467   6.564   4.651   2.713
18135SOL    HW266468   6.532   4.491   2.707
18136SOL     OW66469   5.739   5.198   2.226
18136SOL    HW166470   5.766   5.104   2.246
18136SOL    HW266471   5.764   5.220   2.132
18137SOL     OW66472   5.753   5.341   2.463
18137SOL    HW166473   5.669   5.392   2.481
18137SOL    HW266474   5.744   5.290   2.378
18138SOL     OW66475   6.026   4.638   1.865
18138SOL    HW166476   5.995   4.672   1.777
18138SOL    HW266477   6.030   4.713   1.931
18139SOL     OW66478   6.543   4.825   3.164
18139SOL    HW166479   6.593   4.740   3.148
18139SOL    HW266480   6.497   4.852   3.079
18140SOL     OW66481   7.150   4.528   2.238
18140SOL    HW166482   7.218   4.462   2.205
18140SOL    HW266483   7.165   4.616   2.194
18141SOL     OW66484   6.398   5.515   2.886
18141SOL    HW166485   6.444   5.448   2.828
18141SOL    HW266486   6.324   5.471   2.936
18142SOL     OW66487   6.305   4.584   1.922
18142SOL    HW166488   6.334   4.503   1.973
18142SOL    HW266489   6.205   4.583   1.913
18143SOL     OW66490   6.901   4.116   2.268
18143SOL    HW166491   6.838   4.174   2.216
18143SOL    HW266492   6.994   4.150   2.256
18144SOL     OW66493   5.798   4.317   3.368
18144SOL    HW166494   5.818   4.222   3.343
18144SOL    HW266495   5.761   4.320   3.461
18145SOL     OW66496   5.680   3.972   3.258
18145SOL    HW166497   5.752   3.982   3.189
18145SOL    HW266498   5.591   3.971   3.213
18146SOL     OW66499   6.578   4.593   3.023
18146SOL    HW166500   6.572   4.579   2.924
18146SOL    HW266501   6.497   4.554   3.067
18147SOL     OW66502   7.169   4.127   2.338
18147SOL    HW166503   7.265   4.098   2.335
18147SOL    HW266504   7.130   4.105   2.427
18148SOL     OW66505   6.453   5.202   2.775
18148SOL    HW166506   6.511   5.213   2.694
18148SOL    HW266507   6.359   5.226   2.753
18149SOL     OW66508   6.403   4.068   2.060
18149SOL    HW166509   6.312   4.081   2.098
18149SOL    HW266510   6.463   4.028   2.130
18150SOL     OW66511   6.514   5.013   1.995
18150SOL    HW166512   6.567   4.953   2.055
18150SOL    HW266513   6.553   5.014   1.904
18151SOL     OW66514   6.680   4.581   2.469
18151SOL    HW166515   6.745   4.609   2.540
18151SOL    HW266516   6.601   4.642   2.471
18152SOL     OW66517   6.428   5.307   3.493
18152SOL    HW166518   6.416   5.238   3.422
18152SOL    HW266519   6.391   5.272   3.580
18153SOL     OW66520   6.872   4.621   2.672
18153SOL    HW166521   6.893   4.563   2.750
18153SOL    HW266522   6.881   4.717   2.698
18154SOL     OW66523   5.828   4.750   2.718
18154SOL    HW166524   5.751   4.812   2.711
18154SOL    HW266525   5.865   4.751   2.811
18155SOL     OW66526   6.461   4.698   2.417
18155SOL    HW166527   6.448   4.609   2.374
18155SOL    HW266528   6.392   4.712   2.488
18156SOL     OW66529   6.765   5.086   3.256
18156SOL    HW166530   6.798   5.171   3.297
18156SOL    HW266531   6.666   5.082   3.263
18157SOL     OW66532   5.572   4.003   2.320
18157SOL    HW166533   5.632   3.954   2.258
18157SOL    HW266534   5.627   4.055   2.385
18158SOL     OW66535   7.195   5.501   2.011
18158SOL    HW166536   7.285   5.545   2.013
18158SOL    HW266537   7.194   5.432   1.939
18159SOL     OW66538   6.359   4.468   3.169
18159SOL    HW166539   6.361   4.554   3.220
18159SOL    HW266540   6.416   4.400   3.216
18160SOL     OW66541   6.377   4.514   2.234
18160SOL    HW166542   6.288   4.542   2.199
18160SOL    HW266543   6.418   4.448   2.170
18161SOL     OW66544   5.899   4.232   2.773
18161SOL    HW166545   5.955   4.225   2.690
18161SOL    HW266546   5.956   4.210   2.853
18162SOL     OW66547   5.896   5.430   2.044
18162SOL    HW166548   5.988   5.460   2.019
18162SOL    HW266549   5.871   5.469   2.133
18163SOL     OW66550   6.872   5.452   2.981
18163SOL    HW166551   6.891   5.515   2.907
18163SOL    HW266552   6.880   5.358   2.948
18164SOL     OW66553   5.577   4.847   2.793
18164SOL    HW166554   5.487   4.863   2.754
18164SOL    HW266555   5.575   4.763   2.848
18165SOL     OW66556   6.328   3.752   2.243
18165SOL    HW166557   6.289   3.741   2.152
18165SOL    HW266558   6.284   3.828   2.290
18166SOL     OW66559   5.573   4.888   2.337
18166SOL    HW166560   5.651   4.946   2.361
18166SOL    HW266561   5.592   4.839   2.252
18167SOL     OW66562   7.103   4.016   3.421
18167SOL    HW166563   7.042   4.094   3.418
18167SOL    HW266564   7.158   4.020   3.504
18168SOL     OW66565   6.819   3.962   2.712
18168SOL    HW166566   6.818   4.040   2.649
18168SOL    HW266567   6.862   3.989   2.798
18169SOL     OW66568   6.939   3.768   2.008
18169SOL    HW166569   7.019   3.708   2.005
18169SOL    HW266570   6.865   3.721   2.056
18170SOL     OW66571   7.152   3.740   3.442
18170SOL    HW166572   7.178   3.697   3.356
18170SOL    HW266573   7.102   3.824   3.424
18171SOL     OW66574   6.254   3.999   2.574
18171SOL    HW166575   6.243   3.941   2.655
18171SOL    HW266576   6.339   4.051   2.582
18172SOL     OW66577   6.834   4.350   2.966
18172SOL    HW166578   6.888   4.390   2.892
18172SOL    HW266579   6.872   4.379   3.054
18173SOL     OW66580   7.127   3.756   2.282
18173SOL    HW166581   7.134   3.710   2.194
18173SOL    HW266582   7.031   3.766   2.307
18174SOL     OW66583   6.103   5.071   3.645
18174SOL    HW166584   6.064   5.134   3.578
18174SOL    HW266585   6.186   5.111   3.685
18175SOL     OW66586   5.979   4.803   3.477
18175SOL    HW166587   5.998   4.827   3.382
18175SOL    HW266588   5.972   4.886   3.532
18176SOL     OW66589   5.640   5.093   2.951
18176SOL    HW166590   5.609   5.019   2.892
18176SOL    HW266591   5.572   5.111   3.022
18177SOL     OW66592   6.726   4.294   2.684
18177SOL    HW166593   6.808   4.271   2.632
18177SOL    HW266594   6.721   4.235   2.765
18178SOL     OW66595   7.326   4.321   3.520
18178SOL    HW166596   7.315   4.407   3.469
18178SOL    HW266597   7.420   4.312   3.550
18179SOL     OW66598   6.897   4.094   2.939
18179SOL    HW166599   6.871   4.191   2.945
18179SOL    HW266600   6.897   4.054   3.031
18180SOL     OW66601   7.127   4.226   3.690
18180SOL    HW166602   7.207   4.251   3.634
18180SOL    HW266603   7.158   4.191   3.778
18181SOL     OW66604   7.135   4.625   2.490
18181SOL    HW166605   7.149   4.588   2.397
18181SOL    HW266606   7.046   4.595   2.524
18182SOL     OW66607   7.291   4.562   3.385
18182SOL    HW166608   7.193   4.583   3.387
18182SOL    HW266609   7.340   4.638   3.344
18183SOL     OW66610   6.292   5.197   3.284
18183SOL    HW166611   6.229   5.275   3.291
18183SOL    HW266612   6.260   5.135   3.212
18184SOL     OW66613   5.683   3.992   3.549
18184SOL    HW166614   5.701   3.981   3.451
18184SOL    HW266615   5.585   3.988   3.566
18185SOL     OW66616   5.563   5.406   3.493
18185SOL    HW166617   5.635   5.392   3.561
18185SOL    HW266618   5.474   5.409   3.538
18186SOL     OW66619   5.731   4.062   2.517
18186SOL    HW166620   5.674   4.117   2.578
18186SOL    HW266621   5.801   4.014   2.570
18187SOL     OW66622   6.903   5.294   3.380
18187SOL    HW166623   6.856   5.362   3.435
18187SOL    HW266624   6.970   5.340   3.321
18188SOL     OW66625   7.254   3.915   3.218
18188SOL    HW166626   7.210   3.963   3.294
18188SOL    HW266627   7.232   3.961   3.132
18189SOL     OW66628   5.983   5.516   2.581
18189SOL    HW166629   5.907   5.482   2.526
18189SOL    HW266630   6.069   5.479   2.546
18190SOL     OW66631   5.908   5.025   3.026
18190SOL    HW166632   5.920   5.041   3.123
18190SOL    HW266633   5.821   5.065   2.996
18191SOL     OW66634   6.792   5.229   3.672
18191SOL    HW166635   6.751   5.144   3.638
18191SOL    HW266636   6.772   5.303   3.608
18192SOL     OW66637   6.282   4.949   2.362
18192SOL    HW166638   6.325   4.880   2.304
18192SOL    HW266639   6.246   4.906   2.445
18193SOL     OW66640   5.914   4.500   2.564
18193SOL    HW166641   5.906   4.598   2.582
18193SOL    HW266642   5.998   4.466   2.605
18194SOL     OW66643   5.760   3.980   2.079
18194SOL    HW166644   5.804   3.949   1.996
18194SOL    HW266645   5.761   4.080   2.083
18195SOL     OW66646   5.613   4.232   2.690
18195SOL    HW166647   5.577   4.325   2.682
18195SOL    HW266648   5.696   4.233   2.746
18196SOL     OW66649   6.048   4.819   2.076
18196SOL    HW166650   6.148   4.819   2.087
18196SOL    HW266651   6.017   4.912   2.055
18197SOL     OW66652   6.674   4.411   1.892
18197SOL    HW166653   6.605   4.468   1.848
18197SOL    HW266654   6.755   4.405   1.833
18198SOL     OW66655   6.409   4.330   2.035
18198SOL    HW166656   6.499   4.331   1.990
18198SOL    HW266657   6.386   4.236   2.060
18199SOL     OW66658   6.860   3.847   2.329
18199SOL    HW166659   6.770   3.831   2.370
18199SOL    HW266660   6.868   3.943   2.303
18200SOL     OW66661   6.974   4.247   3.345
18200SOL    HW166662   6.926   4.270   3.429
18200SOL    HW266663   6.908   4.217   3.276
18201SOL     OW66664   5.609   3.762   1.989
18201SOL    HW166665   5.672   3.685   1.997
18201SOL    HW266666   5.629   3.830   2.060
18202SOL     OW66667   5.882   4.737   2.990
18202SOL    HW166668   5.893   4.692   3.079
18202SOL    HW266669   5.909   4.833   2.997
18203SOL     OW66670   6.163   4.350   3.012
18203SOL    HW166671   6.238   4.393   3.061
18203SOL    HW266672   6.096   4.315   3.078
18204SOL     OW66673   6.306   4.719   3.329
18204SOL    HW166674   6.375   4.771   3.279
18204SOL    HW266675   6.301   4.752   3.424
18205SOL     OW66676   6.698   4.740   3.489
18205SOL    HW166677   6.620   4.686   3.522
18205SOL    HW266678   6.779   4.718   3.544
18206SOL     OW66679   6.627   3.922   2.485
18206SOL    HW166680   6.686   3.982   2.540
18206SOL    HW266681   6.554   3.886   2.542
18207SOL     OW66682   6.737   5.454   3.525
18207SOL    HW166683   6.642   5.452   3.493
18207SOL    HW266684   6.758   5.545   3.562
18208SOL     OW66685   6.155   3.799   2.756
18208SOL    HW166686   6.083   3.732   2.742
18208SOL    HW266687   6.237   3.753   2.791
18209SOL     OW66688   5.855   5.464   3.123
18209SOL    HW166689   5.835   5.446   3.027
18209SOL    HW266690   5.782   5.426   3.180
18210SOL     OW66691   6.242   4.656   2.870
18210SOL    HW166692   6.240   4.572   2.815
18210SOL    HW266693   6.191   4.642   2.955
18211SOL     OW66694   5.581   4.666   2.996
18211SOL    HW166695   5.670   4.644   3.036
18211SOL    HW266696   5.526   4.582   2.992
18212SOL     OW66697   5.809   3.711   2.276
18212SOL    HW166698   5.847   3.799   2.303
18212SOL    HW266699   5.732   3.687   2.336
18213SOL     OW66700   6.225   4.328   3.604
18213SOL    HW166701   6.177   4.379   3.533
18213SOL    HW266702   6.318   4.307   3.574
18214SOL     OW66703   5.631   4.798   2.096
18214SOL    HW166704   5.621   4.701   2.075
18214SOL    HW266705   5.684   4.843   2.024
18215SOL     OW66706   6.376   4.886   2.949
18215SOL    HW166707   6.327   4.801   2.930
18215SOL    HW266708   6.446   4.901   2.880
18216SOL     OW66709   6.714   4.309   2.158
18216SOL    HW166710   6.766   4.381   2.204
18216SOL    HW266711   6.727   4.316   2.060
18217SOL     OW66712   7.075   5.124   3.485
18217SOL    HW166713   7.060   5.026   3.499
18217SOL    HW266714   6.992   5.166   3.449
18218SOL     OW66715   5.832   4.566   3.225
18218SOL    HW166716   5.796   4.476   3.251
18218SOL    HW266717   5.793   4.636   3.285
18219SOL     OW66718   6.334   5.192   1.883
18219SOL    HW166719   6.309   5.269   1.942
18219SOL    HW266720   6.398   5.132   1.931
18220SOL     OW66721   6.152   5.399   2.917
18220SOL    HW166722   6.172   5.369   2.824
18220SOL    HW266723   6.077   5.344   2.954
18221SOL     OW66724   6.295   4.810   2.634
18221SOL    HW166725   6.384   4.856   2.634
18221SOL    HW266726   6.288   4.750   2.713
18222SOL     OW66727   6.473   5.157   2.303
18222SOL    HW166728   6.523   5.145   2.218
18222SOL    HW266729   6.419   5.074   2.322
18223SOL     OW66730   5.663   4.504   2.703
18223SOL    HW166731   5.758   4.495   2.671
18223SOL    HW266732   5.629   4.596   2.682
18224SOL     OW66733   5.600   4.621   3.630
18224SOL    HW166734   5.515   4.572   3.611
18224SOL    HW266735   5.627   4.608   3.725
18225SOL     OW66736   6.497   5.530   3.336
18225SOL    HW166737   6.469   5.443   3.377
18225SOL    HW266738   6.441   5.604   3.373
18226SOL     OW66739   6.726   4.877   2.866
18226SOL    HW166740   6.710   4.971   2.897
18226SOL    HW266741   6.729   4.816   2.946
18227SOL     OW66742   6.000   4.148   3.630
18227SOL    HW166743   6.036   4.095   3.553
18227SOL    HW266744   6.061   4.225   3.648
18228SOL     OW66745   7.145   4.596   2.900
18228SOL    HW166746   7.164   4.635   2.809
18228SOL    HW266747   7.099   4.665   2.956
18229SOL     OW66748   6.837   4.039   3.196
18229SOL    HW166749   6.908   4.011   3.260
18229SOL    HW266750   6.784   3.959   3.168
18230SOL     OW66751   5.538   3.738   2.397
18230SOL    HW166752   5.451   3.725   2.350
18230SOL    HW266753   5.546   3.833   2.427
18231SOL     OW66754   6.759   3.839   3.638
18231SOL    HW166755   6.818   3.855   3.718
18231SOL    HW266756   6.706   3.922   3.619
18232SOL     OW66757   5.975   5.258   3.463
18232SOL    HW166758   5.917   5.323   3.512
18232SOL    HW266759   6.037   5.308   3.403
18233SOL     OW66760   7.331   5.145   3.404
18233SOL    HW166761   7.359   5.238   3.426
18233SOL    HW266762   7.238   5.129   3.437
18234SOL     OW66763   6.581   4.258   2.954
18234SOL    HW166764   6.667   4.309   2.953
18234SOL    HW266765   6.587   4.184   3.021
18235SOL     OW66766   5.985   5.204   2.526
18235SOL    HW166767   5.983   5.105   2.539
18235SOL    HW266768   5.894   5.237   2.503
18236SOL     OW66769   6.626   5.321   3.114
18236SOL    HW166770   6.552   5.385   3.132
18236SOL    HW266771   6.705   5.370   3.076
18237SOL     OW66772   5.835   5.451   3.613
18237SOL    HW166773   5.878   5.535   3.579
18237SOL    HW266774   5.860   5.438   3.709
18238SOL     OW66775   5.695   4.987   3.484
18238SOL    HW166776   5.674   4.892   3.457
18238SOL    HW266777   5.626   5.048   3.446
18239SOL     OW66778   5.784   5.352   2.888
18239SOL    HW166779   5.726   5.272   2.902
18239SOL    HW266780   5.808   5.359   2.791
18240SOL     OW66781   6.530   3.873   2.743
18240SOL    HW166782   6.626   3.874   2.771
18240SOL    HW266783   6.475   3.830   2.815
18241SOL     OW66784   6.592   4.879   2.259
18241SOL    HW166785   6.672   4.915   2.307
18241SOL    HW266786   6.550   4.806   2.315
18242SOL     OW66787   7.183   4.146   2.623
18242SOL    HW166788   7.202   4.232   2.670
18242SOL    HW266789   7.251   4.077   2.651
18243SOL     OW66790   6.326   4.818   2.109
18243SOL    HW166791   6.398   4.877   2.074
18243SOL    HW266792   6.366   4.734   2.145
18244SOL     OW66793   6.397   3.794   1.961
18244SOL    HW166794   6.472   3.728   1.973
18244SOL    HW266795   6.428   3.885   1.989
18245SOL     OW66796   6.076   4.223   2.573
18245SOL    HW166797   6.114   4.134   2.599
18245SOL    HW266798   6.143   4.273   2.518
18246SOL     OW66799   6.064   4.781   3.227
18246SOL    HW166800   6.160   4.761   3.247
18246SOL    HW266801   6.053   4.879   3.209
18247SOL     OW66802   5.769   4.933   1.888
18247SOL    HW166803   5.761   4.945   1.789
18247SOL    HW266804   5.828   5.004   1.926
18248SOL     OW66805   6.196   5.372   2.048
18248SOL    HW166806   6.171   5.467   2.032
18248SOL    HW266807   6.163   5.344   2.138
18249SOL     OW66808   6.846   4.795   3.272
18249SOL    HW166809   6.790   4.754   3.343
18249SOL    HW266810   6.826   4.893   3.266
18250SOL     OW66811   6.113   5.411   3.272
18250SOL    HW166812   6.162   5.491   3.236
18250SOL    HW266813   6.021   5.409   3.233
18251SOL     OW66814   5.756   4.292   3.634
18251SOL    HW166815   5.773   4.193   3.639
18251SOL    HW266816   5.820   4.340   3.695
18252SOL     OW66817   5.591   4.626   2.434
18252SOL    HW166818   5.598   4.725   2.421
18252SOL    HW266819   5.500   4.603   2.468
18253SOL     OW66820   6.100   4.424   3.372
18253SOL    HW166821   6.006   4.394   3.353
18253SOL    HW266822   6.109   4.521   3.349
18254SOL     OW66823   7.167   4.800   2.684
18254SOL    HW166824   7.129   4.889   2.657
18254SOL    HW266825   7.167   4.738   2.606
18255SOL     OW66826   6.325   4.206   2.853
18255SOL    HW166827   6.417   4.234   2.880
18255SOL    HW266828   6.257   4.257   2.907
18256SOL     OW66829   6.178   5.057   3.080
18256SOL    HW166830   6.091   5.056   3.031
18256SOL    HW266831   6.244   4.997   3.033
18257SOL     OW66832   5.744   4.399   2.994
18257SOL    HW166833   5.782   4.458   3.065
18257SOL    HW266834   5.727   4.452   2.912
18258SOL     OW66835   5.915   5.045   3.292
18258SOL    HW166836   5.934   5.133   3.336
18258SOL    HW266837   5.820   5.019   3.310
18259SOL     OW66838   7.158   5.361   3.640
18259SOL    HW166839   7.127   5.283   3.585
18259SOL    HW266840   7.127   5.446   3.598
18260SOL     OW66841   6.219   4.065   2.309
18260SOL    HW166842   6.121   4.059   2.289
18260SOL    HW266843   6.238   4.022   2.397
18261SOL     OW66844   6.742   4.504   3.261
18261SOL    HW166845   6.841   4.513   3.251
18261SOL    HW266846   6.698   4.506   3.171
18262SOL     OW66847   6.236   4.464   2.663
18262SOL    HW166848   6.258   4.386   2.721
18262SOL    HW266849   6.245   4.438   2.567
18263SOL     OW66850   6.904   4.156   2.550
18263SOL    HW166851   6.903   4.148   2.451
18263SOL    HW266852   6.993   4.128   2.585
18264SOL     OW66853   6.631   5.172   4.383
18264SOL    HW166854   6.722   5.206   4.406
18264SOL    HW266855   6.603   5.210   4.295
18265SOL     OW66856   7.142   4.968   4.241
18265SOL    HW166857   7.153   5.052   4.295
18265SOL    HW266858   7.232   4.931   4.218
18266SOL     OW66859   7.222   4.250   5.105
18266SOL    HW166860   7.124   4.242   5.127
18266SOL    HW266861   7.275   4.239   5.189
18267SOL     OW66862   5.889   3.887   3.710
18267SOL    HW166863   5.802   3.884   3.661
18267SOL    HW266864   5.940   3.969   3.682
18268SOL     OW66865   6.876   5.276   4.485
18268SOL    HW166866   6.865   5.373   4.508
18268SOL    HW266867   6.969   5.259   4.455
18269SOL     OW66868   6.754   3.787   5.043
18269SOL    HW166869   6.678   3.742   5.090
18269SOL    HW266870   6.783   3.732   4.965
18270SOL     OW66871   6.099   5.241   4.114
18270SOL    HW166872   6.055   5.250   4.203
18270SOL    HW266873   6.170   5.171   4.118
18271SOL     OW66874   6.117   3.774   3.836
18271SOL    HW166875   6.205   3.802   3.797
18271SOL    HW266876   6.045   3.837   3.806
18272SOL     OW66877   7.087   4.759   5.219
18272SOL    HW166878   6.995   4.764   5.181
18272SOL    HW266879   7.152   4.797   5.153
18273SOL     OW66880   6.987   4.766   4.900
18273SOL    HW166881   6.912   4.755   4.965
18273SOL    HW266882   7.024   4.859   4.906
18274SOL     OW66883   6.026   4.914   4.409
18274SOL    HW166884   5.959   4.868   4.468
18274SOL    HW266885   6.118   4.882   4.432
18275SOL     OW66886   6.253   4.320   4.240
18275SOL    HW166887   6.292   4.390   4.181
18275SOL    HW266888   6.227   4.240   4.186
18276SOL     OW66889   6.873   4.228   5.449
18276SOL    HW166890   6.969   4.232   5.475
18276SOL    HW266891   6.829   4.152   5.496
18277SOL     OW66892   5.956   5.083   3.893
18277SOL    HW166893   6.020   5.099   3.818
18277SOL    HW266894   5.980   5.141   3.971
18278SOL     OW66895   6.107   4.039   4.703
18278SOL    HW166896   6.183   4.104   4.699
18278SOL    HW266897   6.137   3.950   4.670
18279SOL     OW66898   5.804   4.465   4.121
18279SOL    HW166899   5.819   4.399   4.195
18279SOL    HW266900   5.754   4.544   4.156
18280SOL     OW66901   6.390   5.410   4.298
18280SOL    HW166902   6.455   5.343   4.262
18280SOL    HW266903   6.380   5.486   4.234
18281SOL     OW66904   7.282   5.292   4.040
18281SOL    HW166905   7.378   5.266   4.033
18281SOL    HW266906   7.258   5.352   3.964
18282SOL     OW66907   7.194   3.985   4.811
18282SOL    HW166908   7.245   4.057   4.764
18282SOL    HW266909   7.099   4.012   4.820
18283SOL     OW66910   6.594   4.014   4.080
18283SOL    HW166911   6.619   4.108   4.101
18283SOL    HW266912   6.595   3.960   4.164
18284SOL     OW66913   5.718   4.727   5.265
18284SOL    HW166914   5.814   4.742   5.283
18284SOL    HW266915   5.680   4.665   5.334
18285SOL     OW66916   6.044   4.372   3.808
18285SOL    HW166917   6.004   4.451   3.761
18285SOL    HW266918   6.133   4.351   3.768
18286SOL     OW66919   6.559   4.328   5.260
18286SOL    HW166920   6.592   4.245   5.307
18286SOL    HW266921   6.632   4.396   5.259
18287SOL     OW66922   7.163   5.128   4.482
18287SOL    HW166923   7.159   5.163   4.575
18287SOL    HW266924   7.222   5.187   4.426
18288SOL     OW66925   5.894   4.949   4.158
18288SOL    HW166926   5.940   4.923   4.243
18288SOL    HW266927   5.914   4.881   4.087
18289SOL     OW66928   6.752   4.004   3.869
18289SOL    HW166929   6.846   3.974   3.887
18289SOL    HW266930   6.700   4.004   3.955
18290SOL     OW66931   5.904   4.209   4.964
18290SOL    HW166932   5.894   4.122   4.916
18290SOL    HW266933   5.840   4.276   4.927
18291SOL     OW66934   6.986   4.489   5.002
18291SOL    HW166935   6.990   4.583   4.967
18291SOL    HW266936   7.079   4.458   5.024
18292SOL     OW66937   5.939   3.981   4.123
18292SOL    HW166938   5.893   4.021   4.202
18292SOL    HW266939   5.887   4.000   4.041
18293SOL     OW66940   7.067   5.508   5.035
18293SOL    HW166941   7.010   5.459   4.969
18293SOL    HW266942   7.153   5.535   4.992
18294SOL     OW66943   7.362   4.226   4.890
18294SOL    HW166944   7.419   4.308   4.892
18294SOL    HW266945   7.303   4.225   4.970
18295SOL     OW66946   7.379   5.452   4.803
18295SOL    HW166947   7.425   5.462   4.891
18295SOL    HW266948   7.446   5.455   4.730
18296SOL     OW66949   6.492   4.192   4.365
18296SOL    HW166950   6.568   4.220   4.424
18296SOL    HW266951   6.448   4.272   4.326
18297SOL     OW66952   6.727   4.656   3.882
18297SOL    HW166953   6.764   4.606   3.960
18297SOL    HW266954   6.657   4.601   3.837
18298SOL     OW66955   6.569   4.078   5.503
18298SOL    HW166956   6.632   4.083   5.580
18298SOL    HW266957   6.477   4.056   5.536
18299SOL     OW66958   7.310   4.325   3.961
18299SOL    HW166959   7.331   4.244   3.907
18299SOL    HW266960   7.327   4.306   4.058
18300SOL     OW66961   6.604   5.463   3.869
18300SOL    HW166962   6.638   5.376   3.834
18300SOL    HW266963   6.572   5.451   3.963
18301SOL     OW66964   6.285   3.730   5.401
18301SOL    HW166965   6.292   3.636   5.368
18301SOL    HW266966   6.342   3.740   5.483
18302SOL     OW66967   7.208   4.331   4.669
18302SOL    HW166968   7.193   4.422   4.706
18302SOL    HW266969   7.278   4.284   4.723
18303SOL     OW66970   6.908   3.703   4.545
18303SOL    HW166971   6.857   3.787   4.527
18303SOL    HW266972   6.994   3.705   4.494
18304SOL     OW66973   7.263   3.909   5.474
18304SOL    HW166974   7.240   3.930   5.569
18304SOL    HW266975   7.239   3.814   5.454
18305SOL     OW66976   5.566   4.313   4.218
18305SOL    HW166977   5.568   4.264   4.305
18305SOL    HW266978   5.568   4.412   4.236
18306SOL     OW66979   6.538   4.571   4.613
18306SOL    HW166980   6.564   4.651   4.559
18306SOL    HW266981   6.532   4.491   4.553
18307SOL     OW66982   5.739   5.198   4.072
18307SOL    HW166983   5.766   5.104   4.092
18307SOL    HW266984   5.764   5.220   3.978
18308SOL     OW66985   7.021   5.067   4.946
18308SOL    HW166986   6.992   5.104   4.857
18308SOL    HW266987   6.943   5.067   5.008
18309SOL     OW66988   5.753   5.341   4.309
18309SOL    HW166989   5.669   5.392   4.327
18309SOL    HW266990   5.744   5.290   4.224
18310SOL     OW66991   7.274   5.138   4.984
18310SOL    HW166992   7.305   5.152   5.078
18310SOL    HW266993   7.175   5.125   4.983
18311SOL     OW66994   6.026   4.638   3.711
18311SOL    HW166995   5.995   4.672   3.623
18311SOL    HW266996   6.030   4.713   3.777
18312SOL     OW66997   5.630   4.530   3.884
18312SOL    HW166998   5.690   4.477   3.944
18312SOL    HW266999   5.536   4.498   3.896
18313SOL     OW67000   7.150   4.528   4.084
18313SOL    HW167001   7.218   4.462   4.051
18313SOL    HW267002   7.165   4.616   4.040
18314SOL     OW67003   6.305   4.584   3.768
18314SOL    HW167004   6.334   4.503   3.819
18314SOL    HW267005   6.205   4.583   3.759
18315SOL     OW67006   6.901   4.116   4.114
18315SOL    HW167007   6.838   4.174   4.062
18315SOL    HW267008   6.994   4.150   4.102
18316SOL     OW67009   5.798   4.317   5.214
18316SOL    HW167010   5.818   4.222   5.189
18316SOL    HW267011   5.761   4.320   5.307
18317SOL     OW67012   6.578   4.593   4.869
18317SOL    HW167013   6.572   4.579   4.770
18317SOL    HW267014   6.497   4.554   4.913
18318SOL     OW67015   7.169   4.127   4.184
18318SOL    HW167016   7.265   4.098   4.181
18318SOL    HW267017   7.130   4.105   4.273
18319SOL     OW67018   6.403   4.068   3.906
18319SOL    HW167019   6.312   4.081   3.944
18319SOL    HW267020   6.463   4.028   3.976
18320SOL     OW67021   6.514   5.013   3.841
18320SOL    HW167022   6.567   4.953   3.901
18320SOL    HW267023   6.553   5.014   3.750
18321SOL     OW67024   7.265   5.308   4.326
18321SOL    HW167025   7.232   5.401   4.345
18321SOL    HW267026   7.263   5.292   4.227
18322SOL     OW67027   6.680   4.581   4.315
18322SOL    HW167028   6.745   4.609   4.386
18322SOL    HW267029   6.601   4.642   4.317
18323SOL     OW67030   6.428   5.307   5.339
18323SOL    HW167031   6.416   5.238   5.268
18323SOL    HW267032   6.391   5.272   5.426
18324SOL     OW67033   6.872   4.621   4.518
18324SOL    HW167034   6.893   4.563   4.596
18324SOL    HW267035   6.881   4.717   4.544
18325SOL     OW67036   5.828   4.750   4.564
18325SOL    HW167037   5.751   4.812   4.557
18325SOL    HW267038   5.865   4.751   4.657
18326SOL     OW67039   6.461   4.698   4.263
18326SOL    HW167040   6.448   4.609   4.220
18326SOL    HW267041   6.392   4.712   4.334
18327SOL     OW67042   5.572   4.003   4.166
18327SOL    HW167043   5.632   3.954   4.104
18327SOL    HW267044   5.627   4.055   4.231
18328SOL     OW67045   7.195   5.501   3.857
18328SOL    HW167046   7.285   5.545   3.859
18328SOL    HW267047   7.194   5.432   3.785
18329SOL     OW67048   5.596   5.495   5.086
18329SOL    HW167049   5.604   5.595   5.084
18329SOL    HW267050   5.572   5.466   5.179
18330SOL     OW67051   6.377   4.514   4.080
18330SOL    HW167052   6.288   4.542   4.045
18330SOL    HW267053   6.418   4.448   4.016
18331SOL     OW67054   5.899   4.232   4.619
18331SOL    HW167055   5.955   4.225   4.536
18331SOL    HW267056   5.956   4.210   4.699
18332SOL     OW67057   5.896   5.430   3.890
18332SOL    HW167058   5.988   5.460   3.865
18332SOL    HW267059   5.871   5.469   3.979
18333SOL     OW67060   6.872   5.452   4.827
18333SOL    HW167061   6.891   5.515   4.753
18333SOL    HW267062   6.880   5.358   4.794
18334SOL     OW67063   5.577   4.847   4.639
18334SOL    HW167064   5.487   4.863   4.600
18334SOL    HW267065   5.575   4.763   4.694
18335SOL     OW67066   6.328   3.752   4.089
18335SOL    HW167067   6.289   3.741   3.998
18335SOL    HW267068   6.284   3.828   4.136
18336SOL     OW67069   5.573   4.888   4.183
18336SOL    HW167070   5.651   4.946   4.207
18336SOL    HW267071   5.592   4.839   4.098
18337SOL     OW67072   7.103   4.016   5.267
18337SOL    HW167073   7.042   4.094   5.264
18337SOL    HW267074   7.158   4.020   5.350
18338SOL     OW67075   6.819   3.962   4.558
18338SOL    HW167076   6.818   4.040   4.495
18338SOL    HW267077   6.862   3.989   4.644
18339SOL     OW67078   6.939   3.768   3.854
18339SOL    HW167079   7.019   3.708   3.851
18339SOL    HW267080   6.865   3.721   3.902
18340SOL     OW67081   7.152   3.740   5.288
18340SOL    HW167082   7.178   3.697   5.202
18340SOL    HW267083   7.102   3.824   5.270
18341SOL     OW67084   6.254   3.999   4.420
18341SOL    HW167085   6.243   3.941   4.501
18341SOL    HW267086   6.339   4.051   4.428
18342SOL     OW67087   6.834   4.350   4.812
18342SOL    HW167088   6.888   4.390   4.738
18342SOL    HW267089   6.872   4.379   4.900
18343SOL     OW67090   7.127   3.756   4.128
18343SOL    HW167091   7.134   3.710   4.040
18343SOL    HW267092   7.031   3.766   4.153
18344SOL     OW67093   5.979   4.803   5.323
18344SOL    HW167094   5.998   4.827   5.228
18344SOL    HW267095   5.972   4.886   5.378
18345SOL     OW67096   5.640   5.093   4.797
18345SOL    HW167097   5.609   5.019   4.738
18345SOL    HW267098   5.572   5.111   4.868
18346SOL     OW67099   6.726   4.294   4.530
18346SOL    HW167100   6.808   4.271   4.478
18346SOL    HW267101   6.721   4.235   4.611
18347SOL     OW67102   7.326   4.321   5.366
18347SOL    HW167103   7.315   4.407   5.315
18347SOL    HW267104   7.420   4.312   5.396
18348SOL     OW67105   6.897   4.094   4.785
18348SOL    HW167106   6.871   4.191   4.791
18348SOL    HW267107   6.897   4.054   4.877
18349SOL     OW67108   7.127   4.226   5.536
18349SOL    HW167109   7.207   4.251   5.480
18349SOL    HW267110   7.158   4.191   5.624
18350SOL     OW67111   6.838   4.529   4.116
18350SOL    HW167112   6.784   4.527   4.200
18350SOL    HW267113   6.915   4.592   4.127
18351SOL     OW67114   7.135   4.625   4.336
18351SOL    HW167115   7.149   4.588   4.243
18351SOL    HW267116   7.046   4.595   4.370
18352SOL     OW67117   7.291   4.562   5.231
18352SOL    HW167118   7.193   4.583   5.233
18352SOL    HW267119   7.340   4.638   5.190
18353SOL     OW67120   7.145   3.982   3.910
18353SOL    HW167121   7.150   4.024   4.001
18353SOL    HW267122   7.078   3.907   3.912
18354SOL     OW67123   6.292   5.197   5.130
18354SOL    HW167124   6.229   5.275   5.137
18354SOL    HW267125   6.260   5.135   5.058
18355SOL     OW67126   5.563   5.406   5.339
18355SOL    HW167127   5.635   5.392   5.407
18355SOL    HW267128   5.474   5.409   5.384
18356SOL     OW67129   5.731   4.062   4.363
18356SOL    HW167130   5.674   4.117   4.424
18356SOL    HW267131   5.801   4.014   4.416
18357SOL     OW67132   6.903   5.294   5.226
18357SOL    HW167133   6.856   5.362   5.281
18357SOL    HW267134   6.970   5.340   5.167
18358SOL     OW67135   5.868   4.253   3.961
18358SOL    HW167136   5.940   4.282   3.898
18358SOL    HW267137   5.824   4.333   4.001
18359SOL     OW67138   7.254   3.915   5.064
18359SOL    HW167139   7.210   3.963   5.140
18359SOL    HW267140   7.232   3.961   4.978
18360SOL     OW67141   5.983   5.516   4.427
18360SOL    HW167142   5.907   5.482   4.372
18360SOL    HW267143   6.069   5.479   4.392
18361SOL     OW67144   5.908   5.025   4.872
18361SOL    HW167145   5.920   5.041   4.969
18361SOL    HW267146   5.821   5.065   4.842
18362SOL     OW67147   6.282   4.949   4.208
18362SOL    HW167148   6.325   4.880   4.150
18362SOL    HW267149   6.246   4.906   4.291
18363SOL     OW67150   5.914   4.500   4.410
18363SOL    HW167151   5.906   4.598   4.428
18363SOL    HW267152   5.998   4.466   4.451
18364SOL     OW67153   5.760   3.980   3.925
18364SOL    HW167154   5.804   3.949   3.842
18364SOL    HW267155   5.761   4.080   3.929
18365SOL     OW67156   5.613   4.232   4.536
18365SOL    HW167157   5.577   4.325   4.528
18365SOL    HW267158   5.696   4.233   4.592
18366SOL     OW67159   6.048   4.819   3.922
18366SOL    HW167160   6.148   4.819   3.933
18366SOL    HW267161   6.017   4.912   3.901
18367SOL     OW67162   6.674   4.411   3.738
18367SOL    HW167163   6.605   4.468   3.694
18367SOL    HW267164   6.755   4.405   3.679
18368SOL     OW67165   6.409   4.330   3.881
18368SOL    HW167166   6.499   4.331   3.836
18368SOL    HW267167   6.386   4.236   3.906
18369SOL     OW67168   6.860   3.847   4.175
18369SOL    HW167169   6.770   3.831   4.216
18369SOL    HW267170   6.868   3.943   4.149
18370SOL     OW67171   6.974   4.247   5.191
18370SOL    HW167172   6.926   4.270   5.275
18370SOL    HW267173   6.908   4.217   5.122
18371SOL     OW67174   5.609   3.762   3.835
18371SOL    HW167175   5.672   3.685   3.843
18371SOL    HW267176   5.629   3.830   3.906
18372SOL     OW67177   5.882   4.737   4.836
18372SOL    HW167178   5.893   4.692   4.925
18372SOL    HW267179   5.909   4.833   4.843
18373SOL     OW67180   7.181   4.749   3.936
18373SOL    HW167181   7.252   4.819   3.938
18373SOL    HW267182   7.168   4.719   3.841
18374SOL     OW67183   6.163   4.350   4.858
18374SOL    HW167184   6.238   4.393   4.907
18374SOL    HW267185   6.096   4.315   4.924
18375SOL     OW67186   6.627   3.922   4.331
18375SOL    HW167187   6.686   3.982   4.386
18375SOL    HW267188   6.554   3.886   4.388
18376SOL     OW67189   6.737   5.454   5.371
18376SOL    HW167190   6.642   5.452   5.339
18376SOL    HW267191   6.758   5.545   5.408
18377SOL     OW67192   6.155   3.799   4.602
18377SOL    HW167193   6.083   3.732   4.588
18377SOL    HW267194   6.237   3.753   4.637
18378SOL     OW67195   6.242   4.656   4.716
18378SOL    HW167196   6.240   4.572   4.661
18378SOL    HW267197   6.191   4.642   4.801
18379SOL     OW67198   5.581   4.666   4.842
18379SOL    HW167199   5.670   4.644   4.882
18379SOL    HW267200   5.526   4.582   4.838
18380SOL     OW67201   5.809   3.711   4.122
18380SOL    HW167202   5.847   3.799   4.149
18380SOL    HW267203   5.732   3.687   4.182
18381SOL     OW67204   5.631   4.798   3.942
18381SOL    HW167205   5.621   4.701   3.921
18381SOL    HW267206   5.684   4.843   3.870
18382SOL     OW67207   7.328   3.910   4.543
18382SOL    HW167208   7.283   3.892   4.630
18382SOL    HW267209   7.426   3.927   4.559
18383SOL     OW67210   6.714   4.309   4.004
18383SOL    HW167211   6.766   4.381   4.050
18383SOL    HW267212   6.727   4.316   3.906
18384SOL     OW67213   7.075   5.124   5.331
18384SOL    HW167214   7.060   5.026   5.345
18384SOL    HW267215   6.992   5.166   5.295
18385SOL     OW67216   5.832   4.566   5.071
18385SOL    HW167217   5.796   4.476   5.097
18385SOL    HW267218   5.793   4.636   5.131
18386SOL     OW67219   6.334   5.192   3.729
18386SOL    HW167220   6.309   5.269   3.788
18386SOL    HW267221   6.398   5.132   3.777
18387SOL     OW67222   6.295   4.810   4.480
18387SOL    HW167223   6.384   4.856   4.480
18387SOL    HW267224   6.288   4.750   4.559
18388SOL     OW67225   6.473   5.157   4.149
18388SOL    HW167226   6.523   5.145   4.064
18388SOL    HW267227   6.419   5.074   4.168
18389SOL     OW67228   5.663   4.504   4.549
18389SOL    HW167229   5.758   4.495   4.517
18389SOL    HW267230   5.629   4.596   4.528
18390SOL     OW67231   5.600   4.621   5.476
18390SOL    HW167232   5.515   4.572   5.457
18390SOL    HW267233   5.627   4.608   5.571
18391SOL     OW67234   6.000   4.148   5.476
18391SOL    HW167235   6.036   4.095   5.399
18391SOL    HW267236   6.061   4.225   5.494
18392SOL     OW67237   6.064   4.565   4.048
18392SOL    HW167238   6.014   4.630   3.992
18392SOL    HW267239   6.006   4.486   4.067
18393SOL     OW67240   7.145   4.596   4.746
18393SOL    HW167241   7.164   4.635   4.655
18393SOL    HW267242   7.099   4.665   4.802
18394SOL     OW67243   6.837   4.039   5.042
18394SOL    HW167244   6.908   4.011   5.106
18394SOL    HW267245   6.784   3.959   5.014
18395SOL     OW67246   5.538   3.738   4.243
18395SOL    HW167247   5.451   3.725   4.196
18395SOL    HW267248   5.546   3.833   4.273
18396SOL     OW67249   6.759   3.839   5.484
18396SOL    HW167250   6.818   3.855   5.564
18396SOL    HW267251   6.706   3.922   5.465
18397SOL     OW67252   5.975   5.258   5.309
18397SOL    HW167253   5.917   5.323   5.358
18397SOL    HW267254   6.037   5.308   5.249
18398SOL     OW67255   7.331   5.145   5.250
18398SOL    HW167256   7.359   5.238   5.272
18398SOL    HW267257   7.238   5.129   5.283
18399SOL     OW67258   6.581   4.258   4.800
18399SOL    HW167259   6.667   4.309   4.799
18399SOL    HW267260   6.587   4.184   4.867
18400SOL     OW67261   5.985   5.204   4.372
18400SOL    HW167262   5.983   5.105   4.385
18400SOL    HW267263   5.894   5.237   4.349
18401SOL     OW67264   5.835   5.451   5.459
18401SOL    HW167265   5.878   5.535   5.425
18401SOL    HW267266   5.860   5.438   5.555
18402SOL     OW67267   5.695   4.987   5.330
18402SOL    HW167268   5.674   4.892   5.303
18402SOL    HW267269   5.626   5.048   5.292
18403SOL     OW67270   6.530   3.873   4.589
18403SOL    HW167271   6.626   3.874   4.617
18403SOL    HW267272   6.475   3.830   4.661
18404SOL     OW67273   6.592   4.879   4.105
18404SOL    HW167274   6.672   4.915   4.153
18404SOL    HW267275   6.550   4.806   4.161
18405SOL     OW67276   7.183   4.146   4.469
18405SOL    HW167277   7.202   4.232   4.516
18405SOL    HW267278   7.251   4.077   4.497
18406SOL     OW67279   6.326   4.818   3.955
18406SOL    HW167280   6.398   4.877   3.920
18406SOL    HW267281   6.366   4.734   3.991
18407SOL     OW67282   6.397   3.794   3.807
18407SOL    HW167283   6.472   3.728   3.819
18407SOL    HW267284   6.428   3.885   3.835
18408SOL     OW67285   6.076   4.223   4.419
18408SOL    HW167286   6.114   4.134   4.445
18408SOL    HW267287   6.143   4.273   4.364
18409SOL     OW67288   6.064   4.781   5.073
18409SOL    HW167289   6.160   4.761   5.093
18409SOL    HW267290   6.053   4.879   5.055
18410SOL     OW67291   7.286   4.824   5.042
18410SOL    HW167292   7.300   4.922   5.056
18410SOL    HW267293   7.343   4.793   4.966
18411SOL     OW67294   5.769   4.933   3.734
18411SOL    HW167295   5.761   4.945   3.635
18411SOL    HW267296   5.828   5.004   3.772
18412SOL     OW67297   6.196   5.372   3.894
18412SOL    HW167298   6.171   5.467   3.878
18412SOL    HW267299   6.163   5.344   3.984
18413SOL     OW67300   6.846   4.795   5.118
18413SOL    HW167301   6.790   4.754   5.189
18413SOL    HW267302   6.826   4.893   5.112
18414SOL     OW67303   6.113   5.411   5.118
18414SOL    HW167304   6.162   5.491   5.082
18414SOL    HW267305   6.021   5.409   5.079
18415SOL     OW67306   7.195   5.253   4.719
18415SOL    HW167307   7.167   5.346   4.743
18415SOL    HW267308   7.245   5.212   4.795
18416SOL     OW67309   5.591   4.626   4.280
18416SOL    HW167310   5.598   4.725   4.267
18416SOL    HW267311   5.500   4.603   4.314
18417SOL     OW67312   6.100   4.424   5.218
18417SOL    HW167313   6.006   4.394   5.199
18417SOL    HW267314   6.109   4.521   5.195
18418SOL     OW67315   7.167   4.800   4.530
18418SOL    HW167316   7.129   4.889   4.503
18418SOL    HW267317   7.167   4.738   4.452
18419SOL     OW67318   6.325   4.206   4.699
18419SOL    HW167319   6.417   4.234   4.726
18419SOL    HW267320   6.257   4.257   4.753
18420SOL     OW67321   6.178   5.057   4.926
18420SOL    HW167322   6.091   5.056   4.877
18420SOL    HW267323   6.244   4.997   4.879
18421SOL     OW67324   5.744   4.399   4.840
18421SOL    HW167325   5.782   4.458   4.911
18421SOL    HW267326   5.727   4.452   4.758
18422SOL     OW67327   5.915   5.045   5.138
18422SOL    HW167328   5.934   5.133   5.182
18422SOL    HW267329   5.820   5.019   5.156
18423SOL     OW67330   7.158   5.361   5.486
18423SOL    HW167331   7.127   5.283   5.431
18423SOL    HW267332   7.127   5.446   5.444
18424SOL     OW67333   6.866   4.899   4.207
18424SOL    HW167334   6.965   4.903   4.223
18424SOL    HW267335   6.849   4.885   4.109
18425SOL     OW67336   6.219   4.065   4.155
18425SOL    HW167337   6.121   4.059   4.135
18425SOL    HW267338   6.238   4.022   4.243
18426SOL     OW67339   7.139   3.748   4.414
18426SOL    HW167340   7.134   3.789   4.323
18426SOL    HW267341   7.220   3.782   4.461
18427SOL     OW67342   6.742   4.504   5.107
18427SOL    HW167343   6.841   4.513   5.097
18427SOL    HW267344   6.698   4.506   5.017
18428SOL     OW67345   6.236   4.464   4.509
18428SOL    HW167346   6.258   4.386   4.567
18428SOL    HW267347   6.245   4.438   4.413
18429SOL     OW67348   6.901   5.171   4.721
18429SOL    HW167349   6.815   5.128   4.750
18429SOL    HW267350   6.890   5.211   4.630
18430SOL     OW67351   6.904   4.156   4.396
18430SOL    HW167352   6.903   4.148   4.297
18430SOL    HW267353   6.993   4.128   4.431
18431SOL     OW67354   6.631   5.172   6.228
18431SOL    HW167355   6.722   5.206   6.251
18431SOL    HW267356   6.603   5.210   6.140
18432SOL     OW67357   7.142   4.968   6.086
18432SOL    HW167358   7.153   5.052   6.140
18432SOL    HW267359   7.232   4.931   6.063
18433SOL     OW67360   7.222   4.250   6.950
18433SOL    HW167361   7.124   4.242   6.972
18433SOL    HW267362   7.275   4.239   7.034
18434SOL     OW67363   6.876   5.276   6.330
18434SOL    HW167364   6.865   5.373   6.353
18434SOL    HW267365   6.969   5.259   6.300
18435SOL     OW67366   6.754   3.787   6.888
18435SOL    HW167367   6.678   3.742   6.935
18435SOL    HW267368   6.783   3.732   6.810
18436SOL     OW67369   6.492   4.567   7.265
18436SOL    HW167370   6.457   4.542   7.175
18436SOL    HW267371   6.416   4.588   7.326
18437SOL     OW67372   6.099   5.241   5.959
18437SOL    HW167373   6.055   5.250   6.048
18437SOL    HW267374   6.170   5.171   5.963
18438SOL     OW67375   6.117   3.774   5.681
18438SOL    HW167376   6.205   3.802   5.642
18438SOL    HW267377   6.045   3.837   5.651
18439SOL     OW67378   7.087   4.759   7.064
18439SOL    HW167379   6.995   4.764   7.026
18439SOL    HW267380   7.152   4.797   6.998
18440SOL     OW67381   6.987   4.766   6.745
18440SOL    HW167382   6.912   4.755   6.810
18440SOL    HW267383   7.024   4.859   6.751
18441SOL     OW67384   6.483   5.021   7.045
18441SOL    HW167385   6.426   5.084   6.991
18441SOL    HW267386   6.516   4.947   6.986
18442SOL     OW67387   6.026   4.914   6.254
18442SOL    HW167388   5.959   4.868   6.313
18442SOL    HW267389   6.118   4.882   6.277
18443SOL     OW67390   6.253   4.320   6.085
18443SOL    HW167391   6.292   4.390   6.026
18443SOL    HW267392   6.227   4.240   6.031
18444SOL     OW67393   6.873   4.228   7.294
18444SOL    HW167394   6.969   4.232   7.320
18444SOL    HW267395   6.829   4.152   7.341
18445SOL     OW67396   5.956   5.083   5.738
18445SOL    HW167397   6.020   5.099   5.663
18445SOL    HW267398   5.980   5.141   5.816
18446SOL     OW67399   6.107   4.039   6.548
18446SOL    HW167400   6.183   4.104   6.544
18446SOL    HW267401   6.137   3.950   6.515
18447SOL     OW67402   6.390   5.410   6.143
18447SOL    HW167403   6.455   5.343   6.107
18447SOL    HW267404   6.380   5.486   6.079
18448SOL     OW67405   7.282   5.292   5.885
18448SOL    HW167406   7.378   5.266   5.878
18448SOL    HW267407   7.258   5.352   5.809
18449SOL     OW67408   7.194   3.985   6.656
18449SOL    HW167409   7.245   4.057   6.609
18449SOL    HW267410   7.099   4.012   6.665
18450SOL     OW67411   6.594   4.014   5.925
18450SOL    HW167412   6.619   4.108   5.946
18450SOL    HW267413   6.595   3.960   6.009
18451SOL     OW67414   5.718   4.727   7.110
18451SOL    HW167415   5.814   4.742   7.128
18451SOL    HW267416   5.680   4.665   7.179
18452SOL     OW67417   6.217   5.296   6.351
18452SOL    HW167418   6.290   5.319   6.287
18452SOL    HW267419   6.146   5.243   6.305
18453SOL     OW67420   6.559   4.328   7.105
18453SOL    HW167421   6.592   4.245   7.152
18453SOL    HW267422   6.632   4.396   7.104
18454SOL     OW67423   7.163   5.128   6.327
18454SOL    HW167424   7.159   5.163   6.420
18454SOL    HW267425   7.222   5.187   6.271
18455SOL     OW67426   6.752   4.004   5.714
18455SOL    HW167427   6.846   3.974   5.732
18455SOL    HW267428   6.700   4.004   5.800
18456SOL     OW67429   5.904   4.209   6.809
18456SOL    HW167430   5.894   4.122   6.761
18456SOL    HW267431   5.840   4.276   6.772
18457SOL     OW67432   6.986   4.489   6.847
18457SOL    HW167433   6.990   4.583   6.812
18457SOL    HW267434   7.079   4.458   6.869
18458SOL     OW67435   5.939   3.981   5.968
18458SOL    HW167436   5.893   4.021   6.047
18458SOL    HW267437   5.887   4.000   5.886
18459SOL     OW67438   7.067   5.508   6.880
18459SOL    HW167439   7.010   5.459   6.814
18459SOL    HW267440   7.153   5.535   6.837
18460SOL     OW67441   7.362   4.226   6.735
18460SOL    HW167442   7.419   4.308   6.737
18460SOL    HW267443   7.303   4.225   6.815
18461SOL     OW67444   7.379   5.452   6.648
18461SOL    HW167445   7.425   5.462   6.736
18461SOL    HW267446   7.446   5.455   6.575
18462SOL     OW67447   6.492   4.192   6.210
18462SOL    HW167448   6.568   4.220   6.269
18462SOL    HW267449   6.448   4.272   6.171
18463SOL     OW67450   6.727   4.656   5.727
18463SOL    HW167451   6.764   4.606   5.805
18463SOL    HW267452   6.657   4.601   5.682
18464SOL     OW67453   6.569   4.078   7.348
18464SOL    HW167454   6.632   4.083   7.425
18464SOL    HW267455   6.477   4.056   7.381
18465SOL     OW67456   6.604   5.463   5.714
18465SOL    HW167457   6.638   5.376   5.679
18465SOL    HW267458   6.572   5.451   5.808
18466SOL     OW67459   6.285   3.730   7.246
18466SOL    HW167460   6.292   3.636   7.213
18466SOL    HW267461   6.342   3.740   7.328
18467SOL     OW67462   7.208   4.331   6.514
18467SOL    HW167463   7.193   4.422   6.551
18467SOL    HW267464   7.278   4.284   6.568
18468SOL     OW67465   6.618   4.997   7.280
18468SOL    HW167466   6.640   4.907   7.242
18468SOL    HW267467   6.553   5.044   7.221
18469SOL     OW67468   6.273   4.839   7.284
18469SOL    HW167469   6.244   4.916   7.341
18469SOL    HW267470   6.283   4.758   7.342
18470SOL     OW67471   6.908   3.703   6.390
18470SOL    HW167472   6.857   3.787   6.372
18470SOL    HW267473   6.994   3.705   6.339
18471SOL     OW67474   7.263   3.909   7.319
18471SOL    HW167475   7.240   3.930   7.414
18471SOL    HW267476   7.239   3.814   7.299
18472SOL     OW67477   5.566   4.313   6.063
18472SOL    HW167478   5.568   4.264   6.150
18472SOL    HW267479   5.568   4.412   6.081
18473SOL     OW67480   5.887   3.901   6.384
18473SOL    HW167481   5.939   3.941   6.459
18473SOL    HW267482   5.940   3.828   6.341
18474SOL     OW67483   5.871   3.949   6.718
18474SOL    HW167484   5.836   3.856   6.718
18474SOL    HW267485   5.958   3.952   6.669
18475SOL     OW67486   6.538   4.571   6.458
18475SOL    HW167487   6.564   4.651   6.404
18475SOL    HW267488   6.532   4.491   6.398
18476SOL     OW67489   5.739   5.198   5.917
18476SOL    HW167490   5.766   5.104   5.937
18476SOL    HW267491   5.764   5.220   5.823
18477SOL     OW67492   7.021   5.067   6.791
18477SOL    HW167493   6.992   5.104   6.702
18477SOL    HW267494   6.943   5.067   6.853
18478SOL     OW67495   5.753   5.341   6.154
18478SOL    HW167496   5.669   5.392   6.172
18478SOL    HW267497   5.744   5.290   6.069
18479SOL     OW67498   7.274   5.138   6.829
18479SOL    HW167499   7.305   5.152   6.923
18479SOL    HW267500   7.175   5.125   6.828
18480SOL     OW67501   6.543   4.825   6.855
18480SOL    HW167502   6.593   4.740   6.839
18480SOL    HW267503   6.497   4.852   6.770
18481SOL     OW67504   7.150   4.528   5.929
18481SOL    HW167505   7.218   4.462   5.896
18481SOL    HW267506   7.165   4.616   5.885
18482SOL     OW67507   6.398   5.515   6.577
18482SOL    HW167508   6.444   5.448   6.519
18482SOL    HW267509   6.324   5.471   6.627
18483SOL     OW67510   6.901   4.116   5.959
18483SOL    HW167511   6.838   4.174   5.907
18483SOL    HW267512   6.994   4.150   5.947
18484SOL     OW67513   5.798   4.317   7.059
18484SOL    HW167514   5.818   4.222   7.034
18484SOL    HW267515   5.761   4.320   7.152
18485SOL     OW67516   5.680   3.972   6.949
18485SOL    HW167517   5.752   3.982   6.880
18485SOL    HW267518   5.591   3.971   6.904
18486SOL     OW67519   6.578   4.593   6.714
18486SOL    HW167520   6.572   4.579   6.615
18486SOL    HW267521   6.497   4.554   6.758
18487SOL     OW67522   7.169   4.127   6.029
18487SOL    HW167523   7.265   4.098   6.026
18487SOL    HW267524   7.130   4.105   6.118
18488SOL     OW67525   6.453   5.202   6.466
18488SOL    HW167526   6.511   5.213   6.385
18488SOL    HW267527   6.359   5.226   6.444
18489SOL     OW67528   6.403   4.068   5.751
18489SOL    HW167529   6.312   4.081   5.789
18489SOL    HW267530   6.463   4.028   5.821
18490SOL     OW67531   7.265   5.308   6.171
18490SOL    HW167532   7.232   5.401   6.190
18490SOL    HW267533   7.263   5.292   6.072
18491SOL     OW67534   6.428   5.307   7.184
18491SOL    HW167535   6.416   5.238   7.113
18491SOL    HW267536   6.391   5.272   7.271
18492SOL     OW67537   6.872   4.621   6.363
18492SOL    HW167538   6.893   4.563   6.441
18492SOL    HW267539   6.881   4.717   6.389
18493SOL     OW67540   5.828   4.750   6.409
18493SOL    HW167541   5.751   4.812   6.402
18493SOL    HW267542   5.865   4.751   6.502
18494SOL     OW67543   6.461   4.698   6.108
18494SOL    HW167544   6.448   4.609   6.065
18494SOL    HW267545   6.392   4.712   6.179
18495SOL     OW67546   6.765   5.086   6.947
18495SOL    HW167547   6.798   5.171   6.988
18495SOL    HW267548   6.666   5.082   6.954
18496SOL     OW67549   5.572   4.003   6.011
18496SOL    HW167550   5.632   3.954   5.949
18496SOL    HW267551   5.627   4.055   6.076
18497SOL     OW67552   7.195   5.501   5.702
18497SOL    HW167553   7.285   5.545   5.704
18497SOL    HW267554   7.194   5.432   5.630
18498SOL     OW67555   6.359   4.468   6.860
18498SOL    HW167556   6.361   4.554   6.911
18498SOL    HW267557   6.416   4.400   6.907
18499SOL     OW67558   5.596   5.495   6.931
18499SOL    HW167559   5.604   5.595   6.929
18499SOL    HW267560   5.572   5.466   7.024
18500SOL     OW67561   6.377   4.514   5.925
18500SOL    HW167562   6.288   4.542   5.890
18500SOL    HW267563   6.418   4.448   5.861
18501SOL     OW67564   5.899   4.232   6.464
18501SOL    HW167565   5.955   4.225   6.381
18501SOL    HW267566   5.956   4.210   6.544
18502SOL     OW67567   5.896   5.430   5.735
18502SOL    HW167568   5.988   5.460   5.710
18502SOL    HW267569   5.871   5.469   5.824
18503SOL     OW67570   6.872   5.452   6.672
18503SOL    HW167571   6.891   5.515   6.598
18503SOL    HW267572   6.880   5.358   6.639
18504SOL     OW67573   5.577   4.847   6.484
18504SOL    HW167574   5.487   4.863   6.445
18504SOL    HW267575   5.575   4.763   6.539
18505SOL     OW67576   6.328   3.752   5.934
18505SOL    HW167577   6.289   3.741   5.843
18505SOL    HW267578   6.284   3.828   5.981
18506SOL     OW67579   7.103   4.016   7.112
18506SOL    HW167580   7.042   4.094   7.109
18506SOL    HW267581   7.158   4.020   7.195
18507SOL     OW67582   6.819   3.962   6.403
18507SOL    HW167583   6.818   4.040   6.340
18507SOL    HW267584   6.862   3.989   6.489
18508SOL     OW67585   6.939   3.768   5.699
18508SOL    HW167586   7.019   3.708   5.696
18508SOL    HW267587   6.865   3.721   5.747
18509SOL     OW67588   7.152   3.740   7.133
18509SOL    HW167589   7.178   3.697   7.047
18509SOL    HW267590   7.102   3.824   7.115
18510SOL     OW67591   6.254   3.999   6.265
18510SOL    HW167592   6.243   3.941   6.346
18510SOL    HW267593   6.339   4.051   6.273
18511SOL     OW67594   6.834   4.350   6.657
18511SOL    HW167595   6.888   4.390   6.583
18511SOL    HW267596   6.872   4.379   6.745
18512SOL     OW67597   7.127   3.756   5.973
18512SOL    HW167598   7.134   3.710   5.885
18512SOL    HW267599   7.031   3.766   5.998
18513SOL     OW67600   6.103   5.071   7.336
18513SOL    HW167601   6.064   5.134   7.269
18513SOL    HW267602   6.186   5.111   7.376
18514SOL     OW67603   5.979   4.803   7.168
18514SOL    HW167604   5.998   4.827   7.073
18514SOL    HW267605   5.972   4.886   7.223
18515SOL     OW67606   5.640   5.093   6.642
18515SOL    HW167607   5.609   5.019   6.583
18515SOL    HW267608   5.572   5.111   6.713
18516SOL     OW67609   6.726   4.294   6.375
18516SOL    HW167610   6.808   4.271   6.323
18516SOL    HW267611   6.721   4.235   6.456
18517SOL     OW67612   7.326   4.321   7.211
18517SOL    HW167613   7.315   4.407   7.160
18517SOL    HW267614   7.420   4.312   7.241
18518SOL     OW67615   6.897   4.094   6.630
18518SOL    HW167616   6.871   4.191   6.636
18518SOL    HW267617   6.897   4.054   6.722
18519SOL     OW67618   7.127   4.226   7.381
18519SOL    HW167619   7.207   4.251   7.325
18519SOL    HW267620   7.158   4.191   7.469
18520SOL     OW67621   7.291   4.562   7.076
18520SOL    HW167622   7.193   4.583   7.078
18520SOL    HW267623   7.340   4.638   7.035
18521SOL     OW67624   7.145   3.982   5.755
18521SOL    HW167625   7.150   4.024   5.846
18521SOL    HW267626   7.078   3.907   5.757
18522SOL     OW67627   6.292   5.197   6.975
18522SOL    HW167628   6.229   5.275   6.982
18522SOL    HW267629   6.260   5.135   6.903
18523SOL     OW67630   5.683   3.992   7.240
18523SOL    HW167631   5.701   3.981   7.142
18523SOL    HW267632   5.585   3.988   7.257
18524SOL     OW67633   5.563   5.406   7.184
18524SOL    HW167634   5.635   5.392   7.252
18524SOL    HW267635   5.474   5.409   7.229
18525SOL     OW67636   5.731   4.062   6.208
18525SOL    HW167637   5.674   4.117   6.269
18525SOL    HW267638   5.801   4.014   6.261
18526SOL     OW67639   6.903   5.294   7.071
18526SOL    HW167640   6.856   5.362   7.126
18526SOL    HW267641   6.970   5.340   7.012
18527SOL     OW67642   7.254   3.915   6.909
18527SOL    HW167643   7.210   3.963   6.985
18527SOL    HW267644   7.232   3.961   6.823
18528SOL     OW67645   5.983   5.516   6.272
18528SOL    HW167646   5.907   5.482   6.217
18528SOL    HW267647   6.069   5.479   6.237
18529SOL     OW67648   5.908   5.025   6.717
18529SOL    HW167649   5.920   5.041   6.814
18529SOL    HW267650   5.821   5.065   6.687
18530SOL     OW67651   6.792   5.229   7.363
18530SOL    HW167652   6.751   5.144   7.329
18530SOL    HW267653   6.772   5.303   7.299
18531SOL     OW67654   6.282   4.949   6.053
18531SOL    HW167655   6.325   4.880   5.995
18531SOL    HW267656   6.246   4.906   6.136
18532SOL     OW67657   5.613   4.232   6.381
18532SOL    HW167658   5.577   4.325   6.373
18532SOL    HW267659   5.696   4.233   6.437
18533SOL     OW67660   6.674   4.411   5.583
18533SOL    HW167661   6.605   4.468   5.539
18533SOL    HW267662   6.755   4.405   5.524
18534SOL     OW67663   6.409   4.330   5.726
18534SOL    HW167664   6.499   4.331   5.681
18534SOL    HW267665   6.386   4.236   5.751
18535SOL     OW67666   6.860   3.847   6.020
18535SOL    HW167667   6.770   3.831   6.061
18535SOL    HW267668   6.868   3.943   5.994
18536SOL     OW67669   6.974   4.247   7.036
18536SOL    HW167670   6.926   4.270   7.120
18536SOL    HW267671   6.908   4.217   6.967
18537SOL     OW67672   5.882   4.737   6.681
18537SOL    HW167673   5.893   4.692   6.770
18537SOL    HW267674   5.909   4.833   6.688
18538SOL     OW67675   7.181   4.749   5.781
18538SOL    HW167676   7.252   4.819   5.783
18538SOL    HW267677   7.168   4.719   5.686
18539SOL     OW67678   6.163   4.350   6.703
18539SOL    HW167679   6.238   4.393   6.752
18539SOL    HW267680   6.096   4.315   6.769
18540SOL     OW67681   6.306   4.719   7.020
18540SOL    HW167682   6.375   4.771   6.970
18540SOL    HW267683   6.301   4.752   7.115
18541SOL     OW67684   6.698   4.740   7.180
18541SOL    HW167685   6.620   4.686   7.213
18541SOL    HW267686   6.779   4.718   7.235
18542SOL     OW67687   6.627   3.922   6.176
18542SOL    HW167688   6.686   3.982   6.231
18542SOL    HW267689   6.554   3.886   6.233
18543SOL     OW67690   6.737   5.454   7.216
18543SOL    HW167691   6.642   5.452   7.184
18543SOL    HW267692   6.758   5.545   7.253
18544SOL     OW67693   6.155   3.799   6.447
18544SOL    HW167694   6.083   3.732   6.433
18544SOL    HW267695   6.237   3.753   6.482
18545SOL     OW67696   5.855   5.464   6.814
18545SOL    HW167697   5.835   5.446   6.718
18545SOL    HW267698   5.782   5.426   6.871
18546SOL     OW67699   6.548   4.928   6.359
18546SOL    HW167700   6.587   4.971   6.278
18546SOL    HW267701   6.621   4.911   6.426
18547SOL     OW67702   6.242   4.656   6.561
18547SOL    HW167703   6.240   4.572   6.506
18547SOL    HW267704   6.191   4.642   6.646
18548SOL     OW67705   5.581   4.666   6.687
18548SOL    HW167706   5.670   4.644   6.727
18548SOL    HW267707   5.526   4.582   6.683
18549SOL     OW67708   5.809   3.711   5.967
18549SOL    HW167709   5.847   3.799   5.994
18549SOL    HW267710   5.732   3.687   6.027
18550SOL     OW67711   6.225   4.328   7.295
18550SOL    HW167712   6.177   4.379   7.224
18550SOL    HW267713   6.318   4.307   7.265
18551SOL     OW67714   7.328   3.910   6.388
18551SOL    HW167715   7.283   3.892   6.475
18551SOL    HW267716   7.426   3.927   6.404
18552SOL     OW67717   6.376   4.886   6.640
18552SOL    HW167718   6.327   4.801   6.621
18552SOL    HW267719   6.446   4.901   6.571
18553SOL     OW67720   7.075   5.124   7.176
18553SOL    HW167721   7.060   5.026   7.190
18553SOL    HW267722   6.992   5.166   7.140
18554SOL     OW67723   5.832   4.566   6.916
18554SOL    HW167724   5.796   4.476   6.942
18554SOL    HW267725   5.793   4.636   6.976
18555SOL     OW67726   6.152   5.399   6.608
18555SOL    HW167727   6.172   5.369   6.515
18555SOL    HW267728   6.077   5.344   6.645
18556SOL     OW67729   6.295   4.810   6.325
18556SOL    HW167730   6.384   4.856   6.325
18556SOL    HW267731   6.288   4.750   6.404
18557SOL     OW67732   6.473   5.157   5.994
18557SOL    HW167733   6.523   5.145   5.909
18557SOL    HW267734   6.419   5.074   6.013
18558SOL     OW67735   5.663   4.504   6.394
18558SOL    HW167736   5.758   4.495   6.362
18558SOL    HW267737   5.629   4.596   6.373
18559SOL     OW67738   5.600   4.621   7.321
18559SOL    HW167739   5.515   4.572   7.302
18559SOL    HW267740   5.627   4.608   7.416
18560SOL     OW67741   6.497   5.530   7.027
18560SOL    HW167742   6.469   5.443   7.068
18560SOL    HW267743   6.441   5.604   7.064
18561SOL     OW67744   6.726   4.877   6.557
18561SOL    HW167745   6.710   4.971   6.588
18561SOL    HW267746   6.729   4.816   6.637
18562SOL     OW67747   6.000   4.148   7.321
18562SOL    HW167748   6.036   4.095   7.244
18562SOL    HW267749   6.061   4.225   7.339
18563SOL     OW67750   7.145   4.596   6.591
18563SOL    HW167751   7.164   4.635   6.500
18563SOL    HW267752   7.099   4.665   6.647
18564SOL     OW67753   6.837   4.039   6.887
18564SOL    HW167754   6.908   4.011   6.951
18564SOL    HW267755   6.784   3.959   6.859
18565SOL     OW67756   5.538   3.738   6.088
18565SOL    HW167757   5.451   3.725   6.041
18565SOL    HW267758   5.546   3.833   6.118
18566SOL     OW67759   6.759   3.839   7.329
18566SOL    HW167760   6.818   3.855   7.409
18566SOL    HW267761   6.706   3.922   7.310
18567SOL     OW67762   5.975   5.258   7.154
18567SOL    HW167763   5.917   5.323   7.203
18567SOL    HW267764   6.037   5.308   7.094
18568SOL     OW67765   7.331   5.145   7.095
18568SOL    HW167766   7.359   5.238   7.117
18568SOL    HW267767   7.238   5.129   7.128
18569SOL     OW67768   6.581   4.258   6.645
18569SOL    HW167769   6.667   4.309   6.644
18569SOL    HW267770   6.587   4.184   6.712
18570SOL     OW67771   5.985   5.204   6.217
18570SOL    HW167772   5.983   5.105   6.230
18570SOL    HW267773   5.894   5.237   6.194
18571SOL     OW67774   6.626   5.321   6.805
18571SOL    HW167775   6.552   5.385   6.823
18571SOL    HW267776   6.705   5.370   6.767
18572SOL     OW67777   5.835   5.451   7.304
18572SOL    HW167778   5.878   5.535   7.270
18572SOL    HW267779   5.860   5.438   7.400
18573SOL     OW67780   5.695   4.987   7.175
18573SOL    HW167781   5.674   4.892   7.148
18573SOL    HW267782   5.626   5.048   7.137
18574SOL     OW67783   5.784   5.352   6.579
18574SOL    HW167784   5.726   5.272   6.593
18574SOL    HW267785   5.808   5.359   6.482
18575SOL     OW67786   6.530   3.873   6.434
18575SOL    HW167787   6.626   3.874   6.462
18575SOL    HW267788   6.475   3.830   6.506
18576SOL     OW67789   6.592   4.879   5.950
18576SOL    HW167790   6.672   4.915   5.998
18576SOL    HW267791   6.550   4.806   6.006
18577SOL     OW67792   7.183   4.146   6.314
18577SOL    HW167793   7.202   4.232   6.361
18577SOL    HW267794   7.251   4.077   6.342
18578SOL     OW67795   6.326   4.818   5.800
18578SOL    HW167796   6.398   4.877   5.765
18578SOL    HW267797   6.366   4.734   5.836
18579SOL     OW67798   6.397   3.794   5.652
18579SOL    HW167799   6.472   3.728   5.664
18579SOL    HW267800   6.428   3.885   5.680
18580SOL     OW67801   6.076   4.223   6.264
18580SOL    HW167802   6.114   4.134   6.290
18580SOL    HW267803   6.143   4.273   6.209
18581SOL     OW67804   6.064   4.781   6.918
18581SOL    HW167805   6.160   4.761   6.938
18581SOL    HW267806   6.053   4.879   6.900
18582SOL     OW67807   7.286   4.824   6.887
18582SOL    HW167808   7.300   4.922   6.901
18582SOL    HW267809   7.343   4.793   6.811
18583SOL     OW67810   5.769   4.933   5.579
18583SOL    HW167811   5.761   4.945   5.480
18583SOL    HW267812   5.828   5.004   5.617
18584SOL     OW67813   6.196   5.372   5.739
18584SOL    HW167814   6.171   5.467   5.723
18584SOL    HW267815   6.163   5.344   5.829
18585SOL     OW67816   6.846   4.795   6.963
18585SOL    HW167817   6.790   4.754   7.034
18585SOL    HW267818   6.826   4.893   6.957
18586SOL     OW67819   6.113   5.411   6.963
18586SOL    HW167820   6.162   5.491   6.927
18586SOL    HW267821   6.021   5.409   6.924
18587SOL     OW67822   5.756   4.292   7.325
18587SOL    HW167823   5.773   4.193   7.330
18587SOL    HW267824   5.820   4.340   7.386
18588SOL     OW67825   7.195   5.253   6.564
18588SOL    HW167826   7.167   5.346   6.588
18588SOL    HW267827   7.245   5.212   6.640
18589SOL     OW67828   6.100   4.424   7.063
18589SOL    HW167829   6.006   4.394   7.044
18589SOL    HW267830   6.109   4.521   7.040
18590SOL     OW67831   7.167   4.800   6.375
18590SOL    HW167832   7.129   4.889   6.348
18590SOL    HW267833   7.167   4.738   6.297
18591SOL     OW67834   6.325   4.206   6.544
18591SOL    HW167835   6.417   4.234   6.571
18591SOL    HW267836   6.257   4.257   6.598
18592SOL     OW67837   6.178   5.057   6.771
18592SOL    HW167838   6.091   5.056   6.722
18592SOL    HW267839   6.244   4.997   6.724
18593SOL     OW67840   5.744   4.399   6.685
18593SOL    HW167841   5.782   4.458   6.756
18593SOL    HW267842   5.727   4.452   6.603
18594SOL     OW67843   5.915   5.045   6.983
18594SOL    HW167844   5.934   5.133   7.027
18594SOL    HW267845   5.820   5.019   7.001
18595SOL     OW67846   7.158   5.361   7.331
18595SOL    HW167847   7.127   5.283   7.276
18595SOL    HW267848   7.127   5.446   7.289
18596SOL     OW67849   6.866   4.899   6.052
18596SOL    HW167850   6.965   4.903   6.068
18596SOL    HW267851   6.849   4.885   5.954
18597SOL     OW67852   6.219   4.065   6.000
18597SOL    HW167853   6.121   4.059   5.980
18597SOL    HW267854   6.238   4.022   6.088
18598SOL     OW67855   7.139   3.748   6.259
18598SOL    HW167856   7.134   3.789   6.168
18598SOL    HW267857   7.220   3.782   6.306
18599SOL     OW67858   6.742   4.504   6.952
18599SOL    HW167859   6.841   4.513   6.942
18599SOL    HW267860   6.698   4.506   6.862
18600SOL     OW67861   6.236   4.464   6.354
18600SOL    HW167862   6.258   4.386   6.412
18600SOL    HW267863   6.245   4.438   6.258
18601SOL     OW67864   6.901   5.171   6.566
18601SOL    HW167865   6.815   5.128   6.595
18601SOL    HW267866   6.890   5.211   6.475
18602SOL     OW67867   6.904   4.156   6.241
18602SOL    HW167868   6.903   4.148   6.142
18602SOL    HW267869   6.993   4.128   6.276
18603SOL     OW67870   6.631   5.172   8.074
18603SOL    HW167871   6.722   5.206   8.097
18603SOL    HW267872   6.603   5.210   7.986
18604SOL     OW67873   7.142   4.968   7.932
18604SOL    HW167874   7.153   5.052   7.986
18604SOL    HW267875   7.232   4.931   7.909
18605SOL     OW67876   7.222   4.250   8.796
18605SOL    HW167877   7.124   4.242   8.818
18605SOL    HW267878   7.275   4.239   8.880
18606SOL     OW67879   5.889   3.887   7.401
18606SOL    HW167880   5.802   3.884   7.352
18606SOL    HW267881   5.940   3.969   7.373
18607SOL     OW67882   6.876   5.276   8.176
18607SOL    HW167883   6.865   5.373   8.199
18607SOL    HW267884   6.969   5.259   8.146
18608SOL     OW67885   6.754   3.787   8.734
18608SOL    HW167886   6.678   3.742   8.781
18608SOL    HW267887   6.783   3.732   8.656
18609SOL     OW67888   6.492   4.567   9.111
18609SOL    HW167889   6.457   4.542   9.021
18609SOL    HW267890   6.416   4.588   9.172
18610SOL     OW67891   6.099   5.241   7.805
18610SOL    HW167892   6.055   5.250   7.894
18610SOL    HW267893   6.170   5.171   7.809
18611SOL     OW67894   6.117   3.774   7.527
18611SOL    HW167895   6.205   3.802   7.488
18611SOL    HW267896   6.045   3.837   7.497
18612SOL     OW67897   7.087   4.759   8.910
18612SOL    HW167898   6.995   4.764   8.872
18612SOL    HW267899   7.152   4.797   8.844
18613SOL     OW67900   6.987   4.766   8.591
18613SOL    HW167901   6.912   4.755   8.656
18613SOL    HW267902   7.024   4.859   8.597
18614SOL     OW67903   6.483   5.021   8.891
18614SOL    HW167904   6.426   5.084   8.837
18614SOL    HW267905   6.516   4.947   8.832
18615SOL     OW67906   6.026   4.914   8.100
18615SOL    HW167907   5.959   4.868   8.159
18615SOL    HW267908   6.118   4.882   8.123
18616SOL     OW67909   6.253   4.320   7.931
18616SOL    HW167910   6.292   4.390   7.872
18616SOL    HW267911   6.227   4.240   7.877
18617SOL     OW67912   6.873   4.228   9.140
18617SOL    HW167913   6.969   4.232   9.166
18617SOL    HW267914   6.829   4.152   9.187
18618SOL     OW67915   5.956   5.083   7.584
18618SOL    HW167916   6.020   5.099   7.509
18618SOL    HW267917   5.980   5.141   7.662
18619SOL     OW67918   6.107   4.039   8.394
18619SOL    HW167919   6.183   4.104   8.390
18619SOL    HW267920   6.137   3.950   8.361
18620SOL     OW67921   5.804   4.465   7.812
18620SOL    HW167922   5.819   4.399   7.886
18620SOL    HW267923   5.754   4.544   7.847
18621SOL     OW67924   6.390   5.410   7.989
18621SOL    HW167925   6.455   5.343   7.953
18621SOL    HW267926   6.380   5.486   7.925
18622SOL     OW67927   7.282   5.292   7.731
18622SOL    HW167928   7.378   5.266   7.724
18622SOL    HW267929   7.258   5.352   7.655
18623SOL     OW67930   7.194   3.985   8.502
18623SOL    HW167931   7.245   4.057   8.455
18623SOL    HW267932   7.099   4.012   8.511
18624SOL     OW67933   5.718   4.727   8.956
18624SOL    HW167934   5.814   4.742   8.974
18624SOL    HW267935   5.680   4.665   9.025
18625SOL     OW67936   6.044   4.372   7.499
18625SOL    HW167937   6.004   4.451   7.452
18625SOL    HW267938   6.133   4.351   7.459
18626SOL     OW67939   6.217   5.296   8.197
18626SOL    HW167940   6.290   5.319   8.133
18626SOL    HW267941   6.146   5.243   8.151
18627SOL     OW67942   6.559   4.328   8.951
18627SOL    HW167943   6.592   4.245   8.998
18627SOL    HW267944   6.632   4.396   8.950
18628SOL     OW67945   7.163   5.128   8.173
18628SOL    HW167946   7.159   5.163   8.266
18628SOL    HW267947   7.222   5.187   8.117
18629SOL     OW67948   5.894   4.949   7.849
18629SOL    HW167949   5.940   4.923   7.934
18629SOL    HW267950   5.914   4.881   7.778
18630SOL     OW67951   5.904   4.209   8.655
18630SOL    HW167952   5.894   4.122   8.607
18630SOL    HW267953   5.840   4.276   8.618
18631SOL     OW67954   6.986   4.489   8.693
18631SOL    HW167955   6.990   4.583   8.658
18631SOL    HW267956   7.079   4.458   8.715
18632SOL     OW67957   5.939   3.981   7.814
18632SOL    HW167958   5.893   4.021   7.893
18632SOL    HW267959   5.887   4.000   7.732
18633SOL     OW67960   7.067   5.508   8.726
18633SOL    HW167961   7.010   5.459   8.660
18633SOL    HW267962   7.153   5.535   8.683
18634SOL     OW67963   7.362   4.226   8.581
18634SOL    HW167964   7.419   4.308   8.583
18634SOL    HW267965   7.303   4.225   8.661
18635SOL     OW67966   7.379   5.452   8.494
18635SOL    HW167967   7.425   5.462   8.582
18635SOL    HW267968   7.446   5.455   8.421
18636SOL     OW67969   6.492   4.192   8.056
18636SOL    HW167970   6.568   4.220   8.115
18636SOL    HW267971   6.448   4.272   8.017
18637SOL     OW67972   6.727   4.656   7.573
18637SOL    HW167973   6.764   4.606   7.651
18637SOL    HW267974   6.657   4.601   7.528
18638SOL     OW67975   6.569   4.078   9.194
18638SOL    HW167976   6.632   4.083   9.271
18638SOL    HW267977   6.477   4.056   9.227
18639SOL     OW67978   7.310   4.325   7.652
18639SOL    HW167979   7.331   4.244   7.598
18639SOL    HW267980   7.327   4.306   7.749
18640SOL     OW67981   6.604   5.463   7.560
18640SOL    HW167982   6.638   5.376   7.525
18640SOL    HW267983   6.572   5.451   7.654
18641SOL     OW67984   6.285   3.730   9.092
18641SOL    HW167985   6.292   3.636   9.059
18641SOL    HW267986   6.342   3.740   9.174
18642SOL     OW67987   7.208   4.331   8.360
18642SOL    HW167988   7.193   4.422   8.397
18642SOL    HW267989   7.278   4.284   8.414
18643SOL     OW67990   6.618   4.997   9.126
18643SOL    HW167991   6.640   4.907   9.088
18643SOL    HW267992   6.553   5.044   9.067
18644SOL     OW67993   6.273   4.839   9.130
18644SOL    HW167994   6.244   4.916   9.187
18644SOL    HW267995   6.283   4.758   9.188
18645SOL     OW67996   6.908   3.703   8.236
18645SOL    HW167997   6.857   3.787   8.218
18645SOL    HW267998   6.994   3.705   8.185
18646SOL     OW67999   7.263   3.909   9.165
18646SOL    HW168000   7.240   3.930   9.260
18646SOL    HW268001   7.239   3.814   9.145
18647SOL     OW68002   5.566   4.313   7.909
18647SOL    HW168003   5.568   4.264   7.996
18647SOL    HW268004   5.568   4.412   7.927
18648SOL     OW68005   5.887   3.901   8.230
18648SOL    HW168006   5.939   3.941   8.305
18648SOL    HW268007   5.940   3.828   8.187
18649SOL     OW68008   5.871   3.949   8.564
18649SOL    HW168009   5.836   3.856   8.564
18649SOL    HW268010   5.958   3.952   8.515
18650SOL     OW68011   6.538   4.571   8.304
18650SOL    HW168012   6.564   4.651   8.250
18650SOL    HW268013   6.532   4.491   8.244
18651SOL     OW68014   5.739   5.198   7.763
18651SOL    HW168015   5.766   5.104   7.783
18651SOL    HW268016   5.764   5.220   7.669
18652SOL     OW68017   7.021   5.067   8.637
18652SOL    HW168018   6.992   5.104   8.548
18652SOL    HW268019   6.943   5.067   8.699
18653SOL     OW68020   5.753   5.341   8.000
18653SOL    HW168021   5.669   5.392   8.018
18653SOL    HW268022   5.744   5.290   7.915
18654SOL     OW68023   7.274   5.138   8.675
18654SOL    HW168024   7.305   5.152   8.769
18654SOL    HW268025   7.175   5.125   8.674
18655SOL     OW68026   6.026   4.638   7.402
18655SOL    HW168027   5.995   4.672   7.314
18655SOL    HW268028   6.030   4.713   7.468
18656SOL     OW68029   6.543   4.825   8.701
18656SOL    HW168030   6.593   4.740   8.685
18656SOL    HW268031   6.497   4.852   8.616
18657SOL     OW68032   5.630   4.530   7.575
18657SOL    HW168033   5.690   4.477   7.635
18657SOL    HW268034   5.536   4.498   7.587
18658SOL     OW68035   7.150   4.528   7.775
18658SOL    HW168036   7.218   4.462   7.742
18658SOL    HW268037   7.165   4.616   7.731
18659SOL     OW68038   6.398   5.515   8.423
18659SOL    HW168039   6.444   5.448   8.365
18659SOL    HW268040   6.324   5.471   8.473
18660SOL     OW68041   6.305   4.584   7.459
18660SOL    HW168042   6.334   4.503   7.510
18660SOL    HW268043   6.205   4.583   7.450
18661SOL     OW68044   6.901   4.116   7.805
18661SOL    HW168045   6.838   4.174   7.753
18661SOL    HW268046   6.994   4.150   7.793
18662SOL     OW68047   5.798   4.317   8.905
18662SOL    HW168048   5.818   4.222   8.880
18662SOL    HW268049   5.761   4.320   8.998
18663SOL     OW68050   5.680   3.972   8.795
18663SOL    HW168051   5.752   3.982   8.726
18663SOL    HW268052   5.591   3.971   8.750
18664SOL     OW68053   6.578   4.593   8.560
18664SOL    HW168054   6.572   4.579   8.461
18664SOL    HW268055   6.497   4.554   8.604
18665SOL     OW68056   7.169   4.127   7.875
18665SOL    HW168057   7.265   4.098   7.872
18665SOL    HW268058   7.130   4.105   7.964
18666SOL     OW68059   6.453   5.202   8.312
18666SOL    HW168060   6.511   5.213   8.231
18666SOL    HW268061   6.359   5.226   8.290
18667SOL     OW68062   6.403   4.068   7.597
18667SOL    HW168063   6.312   4.081   7.635
18667SOL    HW268064   6.463   4.028   7.667
18668SOL     OW68065   6.514   5.013   7.532
18668SOL    HW168066   6.567   4.953   7.592
18668SOL    HW268067   6.553   5.014   7.441
18669SOL     OW68068   7.265   5.308   8.017
18669SOL    HW168069   7.232   5.401   8.036
18669SOL    HW268070   7.263   5.292   7.918
18670SOL     OW68071   6.680   4.581   8.006
18670SOL    HW168072   6.745   4.609   8.077
18670SOL    HW268073   6.601   4.642   8.008
18671SOL     OW68074   6.428   5.307   9.030
18671SOL    HW168075   6.416   5.238   8.959
18671SOL    HW268076   6.391   5.272   9.117
18672SOL     OW68077   6.872   4.621   8.209
18672SOL    HW168078   6.893   4.563   8.287
18672SOL    HW268079   6.881   4.717   8.235
18673SOL     OW68080   5.828   4.750   8.255
18673SOL    HW168081   5.751   4.812   8.248
18673SOL    HW268082   5.865   4.751   8.348
18674SOL     OW68083   6.461   4.698   7.954
18674SOL    HW168084   6.448   4.609   7.911
18674SOL    HW268085   6.392   4.712   8.025
18675SOL     OW68086   6.765   5.086   8.793
18675SOL    HW168087   6.798   5.171   8.834
18675SOL    HW268088   6.666   5.082   8.800
18676SOL     OW68089   5.572   4.003   7.857
18676SOL    HW168090   5.632   3.954   7.795
18676SOL    HW268091   5.627   4.055   7.922
18677SOL     OW68092   7.195   5.501   7.548
18677SOL    HW168093   7.285   5.545   7.550
18677SOL    HW268094   7.194   5.432   7.476
18678SOL     OW68095   6.359   4.468   8.706
18678SOL    HW168096   6.361   4.554   8.757
18678SOL    HW268097   6.416   4.400   8.753
18679SOL     OW68098   5.596   5.495   8.777
18679SOL    HW168099   5.604   5.595   8.775
18679SOL    HW268100   5.572   5.466   8.870
18680SOL     OW68101   6.377   4.514   7.771
18680SOL    HW168102   6.288   4.542   7.736
18680SOL    HW268103   6.418   4.448   7.707
18681SOL     OW68104   5.899   4.232   8.310
18681SOL    HW168105   5.955   4.225   8.227
18681SOL    HW268106   5.956   4.210   8.390
18682SOL     OW68107   5.896   5.430   7.581
18682SOL    HW168108   5.988   5.460   7.556
18682SOL    HW268109   5.871   5.469   7.670
18683SOL     OW68110   6.872   5.452   8.518
18683SOL    HW168111   6.891   5.515   8.444
18683SOL    HW268112   6.880   5.358   8.485
18684SOL     OW68113   5.577   4.847   8.330
18684SOL    HW168114   5.487   4.863   8.291
18684SOL    HW268115   5.575   4.763   8.385
18685SOL     OW68116   5.573   4.888   7.874
18685SOL    HW168117   5.651   4.946   7.898
18685SOL    HW268118   5.592   4.839   7.789
18686SOL     OW68119   7.103   4.016   8.958
18686SOL    HW168120   7.042   4.094   8.955
18686SOL    HW268121   7.158   4.020   9.041
18687SOL     OW68122   6.819   3.962   8.249
18687SOL    HW168123   6.818   4.040   8.186
18687SOL    HW268124   6.862   3.989   8.335
18688SOL     OW68125   6.939   3.768   7.545
18688SOL    HW168126   7.019   3.708   7.542
18688SOL    HW268127   6.865   3.721   7.593
18689SOL     OW68128   7.152   3.740   8.979
18689SOL    HW168129   7.178   3.697   8.893
18689SOL    HW268130   7.102   3.824   8.961
18690SOL     OW68131   6.254   3.999   8.111
18690SOL    HW168132   6.243   3.941   8.192
18690SOL    HW268133   6.339   4.051   8.119
18691SOL     OW68134   6.834   4.350   8.503
18691SOL    HW168135   6.888   4.390   8.429
18691SOL    HW268136   6.872   4.379   8.591
18692SOL     OW68137   7.127   3.756   7.819
18692SOL    HW168138   7.134   3.710   7.731
18692SOL    HW268139   7.031   3.766   7.844
18693SOL     OW68140   6.103   5.071   9.182
18693SOL    HW168141   6.064   5.134   9.115
18693SOL    HW268142   6.186   5.111   9.222
18694SOL     OW68143   5.979   4.803   9.014
18694SOL    HW168144   5.998   4.827   8.919
18694SOL    HW268145   5.972   4.886   9.069
18695SOL     OW68146   5.640   5.093   8.488
18695SOL    HW168147   5.609   5.019   8.429
18695SOL    HW268148   5.572   5.111   8.559
18696SOL     OW68149   6.726   4.294   8.221
18696SOL    HW168150   6.808   4.271   8.169
18696SOL    HW268151   6.721   4.235   8.302
18697SOL     OW68152   6.897   4.094   8.476
18697SOL    HW168153   6.871   4.191   8.482
18697SOL    HW268154   6.897   4.054   8.568
18698SOL     OW68155   7.127   4.226   9.227
18698SOL    HW168156   7.207   4.251   9.171
18698SOL    HW268157   7.158   4.191   9.315
18699SOL     OW68158   6.838   4.529   7.807
18699SOL    HW168159   6.784   4.527   7.891
18699SOL    HW268160   6.915   4.592   7.818
18700SOL     OW68161   7.135   4.625   8.027
18700SOL    HW168162   7.149   4.588   7.934
18700SOL    HW268163   7.046   4.595   8.061
18701SOL     OW68164   7.145   3.982   7.601
18701SOL    HW168165   7.150   4.024   7.692
18701SOL    HW268166   7.078   3.907   7.603
18702SOL     OW68167   6.292   5.197   8.821
18702SOL    HW168168   6.229   5.275   8.828
18702SOL    HW268169   6.260   5.135   8.749
18703SOL     OW68170   5.683   3.992   9.086
18703SOL    HW168171   5.701   3.981   8.988
18703SOL    HW268172   5.585   3.988   9.103
18704SOL     OW68173   5.563   5.406   9.030
18704SOL    HW168174   5.635   5.392   9.098
18704SOL    HW268175   5.474   5.409   9.075
18705SOL     OW68176   5.731   4.062   8.054
18705SOL    HW168177   5.674   4.117   8.115
18705SOL    HW268178   5.801   4.014   8.107
18706SOL     OW68179   6.903   5.294   8.917
18706SOL    HW168180   6.856   5.362   8.972
18706SOL    HW268181   6.970   5.340   8.858
18707SOL     OW68182   5.868   4.253   7.652
18707SOL    HW168183   5.940   4.282   7.589
18707SOL    HW268184   5.824   4.333   7.692
18708SOL     OW68185   7.254   3.915   8.755
18708SOL    HW168186   7.210   3.963   8.831
18708SOL    HW268187   7.232   3.961   8.669
18709SOL     OW68188   5.983   5.516   8.118
18709SOL    HW168189   5.907   5.482   8.063
18709SOL    HW268190   6.069   5.479   8.083
18710SOL     OW68191   5.908   5.025   8.563
18710SOL    HW168192   5.920   5.041   8.660
18710SOL    HW268193   5.821   5.065   8.533
18711SOL     OW68194   6.792   5.229   9.209
18711SOL    HW168195   6.751   5.144   9.175
18711SOL    HW268196   6.772   5.303   9.145
18712SOL     OW68197   6.282   4.949   7.899
18712SOL    HW168198   6.325   4.880   7.841
18712SOL    HW268199   6.246   4.906   7.982
18713SOL     OW68200   5.914   4.500   8.101
18713SOL    HW168201   5.906   4.598   8.119
18713SOL    HW268202   5.998   4.466   8.142
18714SOL     OW68203   5.760   3.980   7.616
18714SOL    HW168204   5.804   3.949   7.533
18714SOL    HW268205   5.761   4.080   7.620
18715SOL     OW68206   5.613   4.232   8.227
18715SOL    HW168207   5.577   4.325   8.219
18715SOL    HW268208   5.696   4.233   8.283
18716SOL     OW68209   6.048   4.819   7.613
18716SOL    HW168210   6.148   4.819   7.624
18716SOL    HW268211   6.017   4.912   7.592
18717SOL     OW68212   6.674   4.411   7.429
18717SOL    HW168213   6.605   4.468   7.385
18717SOL    HW268214   6.755   4.405   7.370
18718SOL     OW68215   6.409   4.330   7.572
18718SOL    HW168216   6.499   4.331   7.527
18718SOL    HW268217   6.386   4.236   7.597
18719SOL     OW68218   6.974   4.247   8.882
18719SOL    HW168219   6.926   4.270   8.966
18719SOL    HW268220   6.908   4.217   8.813
18720SOL     OW68221   5.609   3.762   7.526
18720SOL    HW168222   5.672   3.685   7.534
18720SOL    HW268223   5.629   3.830   7.597
18721SOL     OW68224   5.882   4.737   8.527
18721SOL    HW168225   5.893   4.692   8.616
18721SOL    HW268226   5.909   4.833   8.534
18722SOL     OW68227   6.163   4.350   8.549
18722SOL    HW168228   6.238   4.393   8.598
18722SOL    HW268229   6.096   4.315   8.615
18723SOL     OW68230   6.306   4.719   8.866
18723SOL    HW168231   6.375   4.771   8.816
18723SOL    HW268232   6.301   4.752   8.961
18724SOL     OW68233   6.698   4.740   9.026
18724SOL    HW168234   6.620   4.686   9.059
18724SOL    HW268235   6.779   4.718   9.081
18725SOL     OW68236   6.627   3.922   8.022
18725SOL    HW168237   6.686   3.982   8.077
18725SOL    HW268238   6.554   3.886   8.079
18726SOL     OW68239   6.155   3.799   8.293
18726SOL    HW168240   6.083   3.732   8.279
18726SOL    HW268241   6.237   3.753   8.328
18727SOL     OW68242   5.855   5.464   8.660
18727SOL    HW168243   5.835   5.446   8.564
18727SOL    HW268244   5.782   5.426   8.717
18728SOL     OW68245   6.548   4.928   8.205
18728SOL    HW168246   6.587   4.971   8.124
18728SOL    HW268247   6.621   4.911   8.272
18729SOL     OW68248   6.242   4.656   8.407
18729SOL    HW168249   6.240   4.572   8.352
18729SOL    HW268250   6.191   4.642   8.492
18730SOL     OW68251   5.581   4.666   8.533
18730SOL    HW168252   5.670   4.644   8.573
18730SOL    HW268253   5.526   4.582   8.529
18731SOL     OW68254   5.809   3.711   7.813
18731SOL    HW168255   5.847   3.799   7.840
18731SOL    HW268256   5.732   3.687   7.873
18732SOL     OW68257   6.225   4.328   9.141
18732SOL    HW168258   6.177   4.379   9.070
18732SOL    HW268259   6.318   4.307   9.111
18733SOL     OW68260   5.631   4.798   7.633
18733SOL    HW168261   5.621   4.701   7.612
18733SOL    HW268262   5.684   4.843   7.561
18734SOL     OW68263   7.328   3.910   8.234
18734SOL    HW168264   7.283   3.892   8.321
18734SOL    HW268265   7.426   3.927   8.250
18735SOL     OW68266   6.376   4.886   8.486
18735SOL    HW168267   6.327   4.801   8.467
18735SOL    HW268268   6.446   4.901   8.417
18736SOL     OW68269   6.714   4.309   7.695
18736SOL    HW168270   6.766   4.381   7.741
18736SOL    HW268271   6.727   4.316   7.597
18737SOL     OW68272   7.075   5.124   9.022
18737SOL    HW168273   7.060   5.026   9.036
18737SOL    HW268274   6.992   5.166   8.986
18738SOL     OW68275   5.832   4.566   8.762
18738SOL    HW168276   5.796   4.476   8.788
18738SOL    HW268277   5.793   4.636   8.822
18739SOL     OW68278   6.334   5.192   7.420
18739SOL    HW168279   6.309   5.269   7.479
18739SOL    HW268280   6.398   5.132   7.468
18740SOL     OW68281   6.152   5.399   8.454
18740SOL    HW168282   6.172   5.369   8.361
18740SOL    HW268283   6.077   5.344   8.491
18741SOL     OW68284   6.295   4.810   8.171
18741SOL    HW168285   6.384   4.856   8.171
18741SOL    HW268286   6.288   4.750   8.250
18742SOL     OW68287   6.473   5.157   7.840
18742SOL    HW168288   6.523   5.145   7.755
18742SOL    HW268289   6.419   5.074   7.859
18743SOL     OW68290   5.663   4.504   8.240
18743SOL    HW168291   5.758   4.495   8.208
18743SOL    HW268292   5.629   4.596   8.219
18744SOL     OW68293   5.600   4.621   9.167
18744SOL    HW168294   5.515   4.572   9.148
18744SOL    HW268295   5.627   4.608   9.262
18745SOL     OW68296   6.497   5.530   8.873
18745SOL    HW168297   6.469   5.443   8.914
18745SOL    HW268298   6.441   5.604   8.910
18746SOL     OW68299   6.726   4.877   8.403
18746SOL    HW168300   6.710   4.971   8.434
18746SOL    HW268301   6.729   4.816   8.483
18747SOL     OW68302   6.000   4.148   9.167
18747SOL    HW168303   6.036   4.095   9.090
18747SOL    HW268304   6.061   4.225   9.185
18748SOL     OW68305   6.064   4.565   7.739
18748SOL    HW168306   6.014   4.630   7.683
18748SOL    HW268307   6.006   4.486   7.758
18749SOL     OW68308   6.837   4.039   8.733
18749SOL    HW168309   6.908   4.011   8.797
18749SOL    HW268310   6.784   3.959   8.705
18750SOL     OW68311   5.538   3.738   7.934
18750SOL    HW168312   5.451   3.725   7.887
18750SOL    HW268313   5.546   3.833   7.964
18751SOL     OW68314   6.759   3.839   9.175
18751SOL    HW168315   6.818   3.855   9.255
18751SOL    HW268316   6.706   3.922   9.156
18752SOL     OW68317   5.975   5.258   9.000
18752SOL    HW168318   5.917   5.323   9.049
18752SOL    HW268319   6.037   5.308   8.940
18753SOL     OW68320   7.331   5.145   8.941
18753SOL    HW168321   7.359   5.238   8.963
18753SOL    HW268322   7.238   5.129   8.974
18754SOL     OW68323   6.581   4.258   8.491
18754SOL    HW168324   6.667   4.309   8.490
18754SOL    HW268325   6.587   4.184   8.558
18755SOL     OW68326   5.985   5.204   8.063
18755SOL    HW168327   5.983   5.105   8.076
18755SOL    HW268328   5.894   5.237   8.040
18756SOL     OW68329   6.626   5.321   8.651
18756SOL    HW168330   6.552   5.385   8.669
18756SOL    HW268331   6.705   5.370   8.613
18757SOL     OW68332   5.835   5.451   9.150
18757SOL    HW168333   5.878   5.535   9.116
18757SOL    HW268334   5.860   5.438   9.246
18758SOL     OW68335   5.695   4.987   9.021
18758SOL    HW168336   5.674   4.892   8.994
18758SOL    HW268337   5.626   5.048   8.983
18759SOL     OW68338   5.784   5.352   8.425
18759SOL    HW168339   5.726   5.272   8.439
18759SOL    HW268340   5.808   5.359   8.328
18760SOL     OW68341   6.530   3.873   8.280
18760SOL    HW168342   6.626   3.874   8.308
18760SOL    HW268343   6.475   3.830   8.352
18761SOL     OW68344   6.592   4.879   7.796
18761SOL    HW168345   6.672   4.915   7.844
18761SOL    HW268346   6.550   4.806   7.852
18762SOL     OW68347   7.183   4.146   8.160
18762SOL    HW168348   7.202   4.232   8.207
18762SOL    HW268349   7.251   4.077   8.188
18763SOL     OW68350   6.326   4.818   7.646
18763SOL    HW168351   6.398   4.877   7.611
18763SOL    HW268352   6.366   4.734   7.682
18764SOL     OW68353   6.076   4.223   8.110
18764SOL    HW168354   6.114   4.134   8.136
18764SOL    HW268355   6.143   4.273   8.055
18765SOL     OW68356   6.064   4.781   8.764
18765SOL    HW168357   6.160   4.761   8.784
18765SOL    HW268358   6.053   4.879   8.746
18766SOL     OW68359   7.286   4.824   8.733
18766SOL    HW168360   7.300   4.922   8.747
18766SOL    HW268361   7.343   4.793   8.657
18767SOL     OW68362   5.769   4.933   7.425
18767SOL    HW168363   5.761   4.945   7.326
18767SOL    HW268364   5.828   5.004   7.463
18768SOL     OW68365   6.196   5.372   7.585
18768SOL    HW168366   6.171   5.467   7.569
18768SOL    HW268367   6.163   5.344   7.675
18769SOL     OW68368   6.846   4.795   8.809
18769SOL    HW168369   6.790   4.754   8.880
18769SOL    HW268370   6.826   4.893   8.803
18770SOL     OW68371   6.113   5.411   8.809
18770SOL    HW168372   6.162   5.491   8.773
18770SOL    HW268373   6.021   5.409   8.770
18771SOL     OW68374   5.756   4.292   9.171
18771SOL    HW168375   5.773   4.193   9.176
18771SOL    HW268376   5.820   4.340   9.232
18772SOL     OW68377   7.195   5.253   8.410
18772SOL    HW168378   7.167   5.346   8.434
18772SOL    HW268379   7.245   5.212   8.486
18773SOL     OW68380   5.591   4.626   7.971
18773SOL    HW168381   5.598   4.725   7.958
18773SOL    HW268382   5.500   4.603   8.005
18774SOL     OW68383   6.100   4.424   8.909
18774SOL    HW168384   6.006   4.394   8.890
18774SOL    HW268385   6.109   4.521   8.886
18775SOL     OW68386   7.167   4.800   8.221
18775SOL    HW168387   7.129   4.889   8.194
18775SOL    HW268388   7.167   4.738   8.143
18776SOL     OW68389   6.325   4.206   8.390
18776SOL    HW168390   6.417   4.234   8.417
18776SOL    HW268391   6.257   4.257   8.444
18777SOL     OW68392   6.178   5.057   8.617
18777SOL    HW168393   6.091   5.056   8.568
18777SOL    HW268394   6.244   4.997   8.570
18778SOL     OW68395   5.744   4.399   8.531
18778SOL    HW168396   5.782   4.458   8.602
18778SOL    HW268397   5.727   4.452   8.449
18779SOL     OW68398   5.915   5.045   8.829
18779SOL    HW168399   5.934   5.133   8.873
18779SOL    HW268400   5.820   5.019   8.847
18780SOL     OW68401   7.158   5.361   9.177
18780SOL    HW168402   7.127   5.283   9.122
18780SOL    HW268403   7.127   5.446   9.135
18781SOL     OW68404   6.866   4.899   7.898
18781SOL    HW168405   6.965   4.903   7.914
18781SOL    HW268406   6.849   4.885   7.800
18782SOL     OW68407   6.219   4.065   7.846
18782SOL    HW168408   6.121   4.059   7.826
18782SOL    HW268409   6.238   4.022   7.934
18783SOL     OW68410   7.139   3.748   8.105
18783SOL    HW168411   7.134   3.789   8.014
18783SOL    HW268412   7.220   3.782   8.152
18784SOL     OW68413   6.742   4.504   8.798
18784SOL    HW168414   6.841   4.513   8.788
18784SOL    HW268415   6.698   4.506   8.708
18785SOL     OW68416   6.236   4.464   8.200
18785SOL    HW168417   6.258   4.386   8.258
18785SOL    HW268418   6.245   4.438   8.104
18786SOL     OW68419   6.901   5.171   8.412
18786SOL    HW168420   6.815   5.128   8.441
18786SOL    HW268421   6.890   5.211   8.321
18787SOL     OW68422   6.904   4.156   8.087
18787SOL    HW168423   6.903   4.148   7.988
18787SOL    HW268424   6.993   4.128   8.122
18788SOL     OW68425   6.631   5.172   9.919
18788SOL    HW168426   6.722   5.206   9.942
18788SOL    HW268427   6.603   5.210   9.831
18789SOL     OW68428   7.142   4.968   9.777
18789SOL    HW168429   7.153   5.052   9.831
18789SOL    HW268430   7.232   4.931   9.754
18790SOL     OW68431   5.889   3.887   9.246
18790SOL    HW168432   5.802   3.884   9.197
18790SOL    HW268433   5.940   3.969   9.218
18791SOL     OW68434   6.117   3.774   9.372
18791SOL    HW168435   6.205   3.802   9.333
18791SOL    HW268436   6.045   3.837   9.342
18792SOL     OW68437   6.026   4.914   9.945
18792SOL    HW168438   5.959   4.868  10.004
18792SOL    HW268439   6.118   4.882   9.968
18793SOL     OW68440   6.253   4.320   9.776
18793SOL    HW168441   6.292   4.390   9.717
18793SOL    HW268442   6.227   4.240   9.722
18794SOL     OW68443   5.956   5.083   9.429
18794SOL    HW168444   6.020   5.099   9.354
18794SOL    HW268445   5.980   5.141   9.507
18795SOL     OW68446   5.804   4.465   9.657
18795SOL    HW168447   5.819   4.399   9.731
18795SOL    HW268448   5.754   4.544   9.692
18796SOL     OW68449   7.282   5.292   9.576
18796SOL    HW168450   7.378   5.266   9.569
18796SOL    HW268451   7.258   5.352   9.500
18797SOL     OW68452   6.594   4.014   9.616
18797SOL    HW168453   6.619   4.108   9.637
18797SOL    HW268454   6.595   3.960   9.700
18798SOL     OW68455   6.044   4.372   9.344
18798SOL    HW168456   6.004   4.451   9.297
18798SOL    HW268457   6.133   4.351   9.304
18799SOL     OW68458   7.163   5.128  10.018
18799SOL    HW168459   7.159   5.163  10.111
18799SOL    HW268460   7.222   5.187   9.962
18800SOL     OW68461   5.894   4.949   9.694
18800SOL    HW168462   5.940   4.923   9.779
18800SOL    HW268463   5.914   4.881   9.623
18801SOL     OW68464   6.752   4.004   9.405
18801SOL    HW168465   6.846   3.974   9.423
18801SOL    HW268466   6.700   4.004   9.491
18802SOL     OW68467   5.939   3.981   9.659
18802SOL    HW168468   5.893   4.021   9.738
18802SOL    HW268469   5.887   4.000   9.577
18803SOL     OW68470   7.379   5.452  10.339
18803SOL    HW168471   7.425   5.462  10.427
18803SOL    HW268472   7.446   5.455  10.266
18804SOL     OW68473   6.492   4.192   9.901
18804SOL    HW168474   6.568   4.220   9.960
18804SOL    HW268475   6.448   4.272   9.862
18805SOL     OW68476   6.727   4.656   9.418
18805SOL    HW168477   6.764   4.606   9.496
18805SOL    HW268478   6.657   4.601   9.373
18806SOL     OW68479   7.310   4.325   9.497
18806SOL    HW168480   7.331   4.244   9.443
18806SOL    HW268481   7.327   4.306   9.594
18807SOL     OW68482   5.566   4.313   9.754
18807SOL    HW168483   5.568   4.264   9.841
18807SOL    HW268484   5.568   4.412   9.772
18808SOL     OW68485   5.739   5.198   9.608
18808SOL    HW168486   5.766   5.104   9.628
18808SOL    HW268487   5.764   5.220   9.514
18809SOL     OW68488   5.753   5.341   9.845
18809SOL    HW168489   5.669   5.392   9.863
18809SOL    HW268490   5.744   5.290   9.760
18810SOL     OW68491   6.026   4.638   9.247
18810SOL    HW168492   5.995   4.672   9.159
18810SOL    HW268493   6.030   4.713   9.313
18811SOL     OW68494   5.630   4.530   9.420
18811SOL    HW168495   5.690   4.477   9.480
18811SOL    HW268496   5.536   4.498   9.432
18812SOL     OW68497   7.150   4.528   9.620
18812SOL    HW168498   7.218   4.462   9.587
18812SOL    HW268499   7.165   4.616   9.576
18813SOL     OW68500   6.305   4.584   9.304
18813SOL    HW168501   6.334   4.503   9.355
18813SOL    HW268502   6.205   4.583   9.295
18814SOL     OW68503   6.901   4.116   9.650
18814SOL    HW168504   6.838   4.174   9.598
18814SOL    HW268505   6.994   4.150   9.638
18815SOL     OW68506   7.169   4.127   9.720
18815SOL    HW168507   7.265   4.098   9.717
18815SOL    HW268508   7.130   4.105   9.809
18816SOL     OW68509   6.403   4.068   9.442
18816SOL    HW168510   6.312   4.081   9.480
18816SOL    HW268511   6.463   4.028   9.512
18817SOL     OW68512   6.514   5.013   9.377
18817SOL    HW168513   6.567   4.953   9.437
18817SOL    HW268514   6.553   5.014   9.286
18818SOL     OW68515   7.265   5.308   9.862
18818SOL    HW168516   7.232   5.401   9.881
18818SOL    HW268517   7.263   5.292   9.763
18819SOL     OW68518   6.680   4.581   9.851
18819SOL    HW168519   6.745   4.609   9.922
18819SOL    HW268520   6.601   4.642   9.853
18820SOL     OW68521   6.872   4.621  10.054
18820SOL    HW168522   6.893   4.563  10.132
18820SOL    HW268523   6.881   4.717  10.080
18821SOL     OW68524   6.461   4.698   9.799
18821SOL    HW168525   6.448   4.609   9.756
18821SOL    HW268526   6.392   4.712   9.870
18822SOL     OW68527   5.572   4.003   9.702
18822SOL    HW168528   5.632   3.954   9.640
18822SOL    HW268529   5.627   4.055   9.767
18823SOL     OW68530   7.195   5.501   9.393
18823SOL    HW168531   7.285   5.545   9.395
18823SOL    HW268532   7.194   5.432   9.321
18824SOL     OW68533   6.377   4.514   9.616
18824SOL    HW168534   6.288   4.542   9.581
18824SOL    HW268535   6.418   4.448   9.552
18825SOL     OW68536   5.896   5.430   9.426
18825SOL    HW168537   5.988   5.460   9.401
18825SOL    HW268538   5.871   5.469   9.515
18826SOL     OW68539   6.328   3.752   9.625
18826SOL    HW168540   6.289   3.741   9.534
18826SOL    HW268541   6.284   3.828   9.672
18827SOL     OW68542   5.573   4.888   9.719
18827SOL    HW168543   5.651   4.946   9.743
18827SOL    HW268544   5.592   4.839   9.634
18828SOL     OW68545   6.939   3.768   9.390
18828SOL    HW168546   7.019   3.708   9.387
18828SOL    HW268547   6.865   3.721   9.438
18829SOL     OW68548   6.254   3.999   9.956
18829SOL    HW168549   6.243   3.941  10.037
18829SOL    HW268550   6.339   4.051   9.964
18830SOL     OW68551   7.127   3.756   9.664
18830SOL    HW168552   7.134   3.710   9.576
18830SOL    HW268553   7.031   3.766   9.689
18831SOL     OW68554   6.838   4.529   9.652
18831SOL    HW168555   6.784   4.527   9.736
18831SOL    HW268556   6.915   4.592   9.663
18832SOL     OW68557   7.135   4.625   9.872
18832SOL    HW168558   7.149   4.588   9.779
18832SOL    HW268559   7.046   4.595   9.906
18833SOL     OW68560   7.145   3.982   9.446
18833SOL    HW168561   7.150   4.024   9.537
18833SOL    HW268562   7.078   3.907   9.448
18834SOL     OW68563   5.868   4.253   9.497
18834SOL    HW168564   5.940   4.282   9.434
18834SOL    HW268565   5.824   4.333   9.537
18835SOL     OW68566   5.760   3.980   9.461
18835SOL    HW168567   5.804   3.949   9.378
18835SOL    HW268568   5.761   4.080   9.465
18836SOL     OW68569   5.613   4.232  10.072
18836SOL    HW168570   5.577   4.325  10.064
18836SOL    HW268571   5.696   4.233  10.128
18837SOL     OW68572   6.048   4.819   9.458
18837SOL    HW168573   6.148   4.819   9.469
18837SOL    HW268574   6.017   4.912   9.437
18838SOL     OW68575   6.674   4.411   9.274
18838SOL    HW168576   6.605   4.468   9.230
18838SOL    HW268577   6.755   4.405   9.215
18839SOL     OW68578   6.409   4.330   9.417
18839SOL    HW168579   6.499   4.331   9.372
18839SOL    HW268580   6.386   4.236   9.442
18840SOL     OW68581   6.860   3.847   9.711
18840SOL    HW168582   6.770   3.831   9.752
18840SOL    HW268583   6.868   3.943   9.685
18841SOL     OW68584   5.609   3.762   9.371
18841SOL    HW168585   5.672   3.685   9.379
18841SOL    HW268586   5.629   3.830   9.442
18842SOL     OW68587   7.181   4.749   9.472
18842SOL    HW168588   7.252   4.819   9.474
18842SOL    HW268589   7.168   4.719   9.377
18843SOL     OW68590   6.627   3.922   9.867
18843SOL    HW168591   6.686   3.982   9.922
18843SOL    HW268592   6.554   3.886   9.924
18844SOL     OW68593   5.809   3.711   9.658
18844SOL    HW168594   5.847   3.799   9.685
18844SOL    HW268595   5.732   3.687   9.718
18845SOL     OW68596   5.631   4.798   9.478
18845SOL    HW168597   5.621   4.701   9.457
18845SOL    HW268598   5.684   4.843   9.406
18846SOL     OW68599   7.328   3.910  10.079
18846SOL    HW168600   7.283   3.892  10.166
18846SOL    HW268601   7.426   3.927  10.095
18847SOL     OW68602   6.714   4.309   9.540
18847SOL    HW168603   6.766   4.381   9.586
18847SOL    HW268604   6.727   4.316   9.442
18848SOL     OW68605   6.334   5.192   9.265
18848SOL    HW168606   6.309   5.269   9.324
18848SOL    HW268607   6.398   5.132   9.313
18849SOL     OW68608   6.473   5.157   9.685
18849SOL    HW168609   6.523   5.145   9.600
18849SOL    HW268610   6.419   5.074   9.704
18850SOL     OW68611   6.064   4.565   9.584
18850SOL    HW168612   6.014   4.630   9.528
18850SOL    HW268613   6.006   4.486   9.603
18851SOL     OW68614   5.538   3.738   9.779
18851SOL    HW168615   5.451   3.725   9.732
18851SOL    HW268616   5.546   3.833   9.809
18852SOL     OW68617   6.592   4.879   9.641
18852SOL    HW168618   6.672   4.915   9.689
18852SOL    HW268619   6.550   4.806   9.697
18853SOL     OW68620   7.183   4.146  10.005
18853SOL    HW168621   7.202   4.232  10.052
18853SOL    HW268622   7.251   4.077  10.033
18854SOL     OW68623   6.326   4.818   9.491
18854SOL    HW168624   6.398   4.877   9.456
18854SOL    HW268625   6.366   4.734   9.527
18855SOL     OW68626   6.397   3.794   9.343
18855SOL    HW168627   6.472   3.728   9.355
18855SOL    HW268628   6.428   3.885   9.371
18856SOL     OW68629   6.076   4.223   9.955
18856SOL    HW168630   6.114   4.134   9.981
18856SOL    HW268631   6.143   4.273   9.900
18857SOL     OW68632   5.769   4.933   9.270
18857SOL    HW168633   5.761   4.945   9.171
18857SOL    HW268634   5.828   5.004   9.308
18858SOL     OW68635   5.591   4.626   9.816
18858SOL    HW168636   5.598   4.725   9.803
18858SOL    HW268637   5.500   4.603   9.850
18859SOL     OW68638   6.866   4.899   9.743
18859SOL    HW168639   6.965   4.903   9.759
18859SOL    HW268640   6.849   4.885   9.645
18860SOL     OW68641   6.219   4.065   9.691
18860SOL    HW168642   6.121   4.059   9.671
18860SOL    HW268643   6.238   4.022   9.779
18861SOL     OW68644   7.139   3.748   9.950
18861SOL    HW168645   7.134   3.789   9.859
18861SOL    HW268646   7.220   3.782   9.997
18862SOL     OW68647   6.904   4.156   9.932
18862SOL    HW168648   6.903   4.148   9.833
18862SOL    HW268649   6.993   4.128   9.967
18863SOL     OW68650   7.222   6.095   1.414
18863SOL    HW168651   7.124   6.087   1.436
18863SOL    HW268652   7.275   6.084   1.498
18864SOL     OW68653   5.889   5.732   0.019
18864SOL    HW168654   5.802   5.729  -0.030
18864SOL    HW268655   5.940   5.814  -0.009
18865SOL     OW68656   6.754   5.632   1.352
18865SOL    HW168657   6.678   5.587   1.399
18865SOL    HW268658   6.783   5.577   1.274
18866SOL     OW68659   6.492   6.412   1.729
18866SOL    HW168660   6.457   6.387   1.639
18866SOL    HW268661   6.416   6.433   1.790
18867SOL     OW68662   6.099   7.086   0.423
18867SOL    HW168663   6.055   7.095   0.512
18867SOL    HW268664   6.170   7.016   0.427
18868SOL     OW68665   6.117   5.619   0.145
18868SOL    HW168666   6.205   5.647   0.106
18868SOL    HW268667   6.045   5.682   0.115
18869SOL     OW68668   7.087   6.604   1.528
18869SOL    HW168669   6.995   6.609   1.490
18869SOL    HW268670   7.152   6.642   1.462
18870SOL     OW68671   6.987   6.611   1.209
18870SOL    HW168672   6.912   6.600   1.274
18870SOL    HW268673   7.024   6.704   1.215
18871SOL     OW68674   6.483   6.866   1.509
18871SOL    HW168675   6.426   6.929   1.455
18871SOL    HW268676   6.516   6.792   1.450
18872SOL     OW68677   6.026   6.759   0.718
18872SOL    HW168678   5.959   6.713   0.777
18872SOL    HW268679   6.118   6.727   0.741
18873SOL     OW68680   6.253   6.165   0.549
18873SOL    HW168681   6.292   6.235   0.490
18873SOL    HW268682   6.227   6.085   0.495
18874SOL     OW68683   6.873   6.073   1.758
18874SOL    HW168684   6.969   6.077   1.784
18874SOL    HW268685   6.829   5.997   1.805
18875SOL     OW68686   5.956   6.928   0.202
18875SOL    HW168687   6.020   6.944   0.127
18875SOL    HW268688   5.980   6.986   0.280
18876SOL     OW68689   6.107   5.884   1.012
18876SOL    HW168690   6.183   5.949   1.008
18876SOL    HW268691   6.137   5.795   0.979
18877SOL     OW68692   7.282   7.137   0.349
18877SOL    HW168693   7.378   7.111   0.342
18877SOL    HW268694   7.258   7.197   0.273
18878SOL     OW68695   7.194   5.830   1.120
18878SOL    HW168696   7.245   5.902   1.073
18878SOL    HW268697   7.099   5.857   1.129
18879SOL     OW68698   6.594   5.859   0.389
18879SOL    HW168699   6.619   5.953   0.410
18879SOL    HW268700   6.595   5.805   0.473
18880SOL     OW68701   5.718   6.572   1.574
18880SOL    HW168702   5.814   6.587   1.592
18880SOL    HW268703   5.680   6.510   1.643
18881SOL     OW68704   6.044   6.217   0.117
18881SOL    HW168705   6.004   6.296   0.070
18881SOL    HW268706   6.133   6.196   0.077
18882SOL     OW68707   6.217   7.141   0.815
18882SOL    HW168708   6.290   7.164   0.751
18882SOL    HW268709   6.146   7.088   0.769
18883SOL     OW68710   6.559   6.173   1.569
18883SOL    HW168711   6.592   6.090   1.616
18883SOL    HW268712   6.632   6.241   1.568
18884SOL     OW68713   5.894   6.794   0.467
18884SOL    HW168714   5.940   6.768   0.552
18884SOL    HW268715   5.914   6.726   0.396
18885SOL     OW68716   6.752   5.849   0.178
18885SOL    HW168717   6.846   5.819   0.196
18885SOL    HW268718   6.700   5.849   0.264
18886SOL     OW68719   5.904   6.054   1.273
18886SOL    HW168720   5.894   5.967   1.225
18886SOL    HW268721   5.840   6.121   1.236
18887SOL     OW68722   6.986   6.334   1.311
18887SOL    HW168723   6.990   6.428   1.276
18887SOL    HW268724   7.079   6.303   1.333
18888SOL     OW68725   5.939   5.826   0.432
18888SOL    HW168726   5.893   5.866   0.511
18888SOL    HW268727   5.887   5.845   0.350
18889SOL     OW68728   7.067   7.353   1.344
18889SOL    HW168729   7.010   7.304   1.278
18889SOL    HW268730   7.153   7.380   1.301
18890SOL     OW68731   7.362   6.071   1.199
18890SOL    HW168732   7.419   6.153   1.201
18890SOL    HW268733   7.303   6.070   1.279
18891SOL     OW68734   7.379   7.297   1.112
18891SOL    HW168735   7.425   7.307   1.200
18891SOL    HW268736   7.446   7.300   1.039
18892SOL     OW68737   6.492   6.037   0.674
18892SOL    HW168738   6.568   6.065   0.733
18892SOL    HW268739   6.448   6.117   0.635
18893SOL     OW68740   6.727   6.501   0.191
18893SOL    HW168741   6.764   6.451   0.269
18893SOL    HW268742   6.657   6.446   0.146
18894SOL     OW68743   6.569   5.923   1.812
18894SOL    HW168744   6.632   5.928   1.889
18894SOL    HW268745   6.477   5.901   1.845
18895SOL     OW68746   7.310   6.170   0.270
18895SOL    HW168747   7.331   6.089   0.216
18895SOL    HW268748   7.327   6.151   0.367
18896SOL     OW68749   6.604   7.308   0.178
18896SOL    HW168750   6.638   7.221   0.143
18896SOL    HW268751   6.572   7.296   0.272
18897SOL     OW68752   6.285   5.575   1.710
18897SOL    HW168753   6.292   5.481   1.677
18897SOL    HW268754   6.342   5.585   1.792
18898SOL     OW68755   7.208   6.176   0.978
18898SOL    HW168756   7.193   6.267   1.015
18898SOL    HW268757   7.278   6.129   1.032
18899SOL     OW68758   6.618   6.842   1.744
18899SOL    HW168759   6.640   6.752   1.706
18899SOL    HW268760   6.553   6.889   1.685
18900SOL     OW68761   6.273   6.684   1.748
18900SOL    HW168762   6.244   6.761   1.805
18900SOL    HW268763   6.283   6.603   1.806
18901SOL     OW68764   6.908   5.548   0.854
18901SOL    HW168765   6.857   5.632   0.836
18901SOL    HW268766   6.994   5.550   0.803
18902SOL     OW68767   7.263   5.754   1.783
18902SOL    HW168768   7.240   5.775   1.878
18902SOL    HW268769   7.239   5.659   1.763
18903SOL     OW68770   5.566   6.158   0.527
18903SOL    HW168771   5.568   6.109   0.614
18903SOL    HW268772   5.568   6.257   0.545
18904SOL     OW68773   5.887   5.746   0.848
18904SOL    HW168774   5.939   5.786   0.923
18904SOL    HW268775   5.940   5.673   0.805
18905SOL     OW68776   5.871   5.794   1.182
18905SOL    HW168777   5.836   5.701   1.182
18905SOL    HW268778   5.958   5.797   1.133
18906SOL     OW68779   6.538   6.416   0.922
18906SOL    HW168780   6.564   6.496   0.868
18906SOL    HW268781   6.532   6.336   0.862
18907SOL     OW68782   5.739   7.043   0.381
18907SOL    HW168783   5.766   6.949   0.401
18907SOL    HW268784   5.764   7.065   0.287
18908SOL     OW68785   7.021   6.912   1.255
18908SOL    HW168786   6.992   6.949   1.166
18908SOL    HW268787   6.943   6.912   1.317
18909SOL     OW68788   5.753   7.186   0.618
18909SOL    HW168789   5.669   7.237   0.636
18909SOL    HW268790   5.744   7.135   0.533
18910SOL     OW68791   7.274   6.983   1.293
18910SOL    HW168792   7.305   6.997   1.387
18910SOL    HW268793   7.175   6.970   1.292
18911SOL     OW68794   6.543   6.670   1.319
18911SOL    HW168795   6.593   6.585   1.303
18911SOL    HW268796   6.497   6.697   1.234
18912SOL     OW68797   7.150   6.373   0.393
18912SOL    HW168798   7.218   6.307   0.360
18912SOL    HW268799   7.165   6.461   0.349
18913SOL     OW68800   6.398   7.360   1.041
18913SOL    HW168801   6.444   7.293   0.983
18913SOL    HW268802   6.324   7.316   1.091
18914SOL     OW68803   6.305   6.429   0.077
18914SOL    HW168804   6.334   6.348   0.128
18914SOL    HW268805   6.205   6.428   0.068
18915SOL     OW68806   6.901   5.961   0.423
18915SOL    HW168807   6.838   6.019   0.371
18915SOL    HW268808   6.994   5.995   0.411
18916SOL     OW68809   5.798   6.162   1.523
18916SOL    HW168810   5.818   6.067   1.498
18916SOL    HW268811   5.761   6.165   1.616
18917SOL     OW68812   5.680   5.817   1.413
18917SOL    HW168813   5.752   5.827   1.344
18917SOL    HW268814   5.591   5.816   1.368
18918SOL     OW68815   6.578   6.438   1.178
18918SOL    HW168816   6.572   6.424   1.079
18918SOL    HW268817   6.497   6.399   1.222
18919SOL     OW68818   7.169   5.972   0.493
18919SOL    HW168819   7.265   5.943   0.490
18919SOL    HW268820   7.130   5.950   0.582
18920SOL     OW68821   6.453   7.047   0.930
18920SOL    HW168822   6.511   7.058   0.849
18920SOL    HW268823   6.359   7.071   0.908
18921SOL     OW68824   6.403   5.913   0.215
18921SOL    HW168825   6.312   5.926   0.253
18921SOL    HW268826   6.463   5.873   0.285
18922SOL     OW68827   6.514   6.858   0.150
18922SOL    HW168828   6.567   6.798   0.210
18922SOL    HW268829   6.553   6.859   0.059
18923SOL     OW68830   6.680   6.426   0.624
18923SOL    HW168831   6.745   6.454   0.695
18923SOL    HW268832   6.601   6.487   0.626
18924SOL     OW68833   6.428   7.152   1.648
18924SOL    HW168834   6.416   7.083   1.577
18924SOL    HW268835   6.391   7.117   1.735
18925SOL     OW68836   6.872   6.466   0.827
18925SOL    HW168837   6.893   6.408   0.905
18925SOL    HW268838   6.881   6.562   0.853
18926SOL     OW68839   5.828   6.595   0.873
18926SOL    HW168840   5.751   6.657   0.866
18926SOL    HW268841   5.865   6.596   0.966
18927SOL     OW68842   6.461   6.543   0.572
18927SOL    HW168843   6.448   6.454   0.529
18927SOL    HW268844   6.392   6.557   0.643
18928SOL     OW68845   6.765   6.931   1.411
18928SOL    HW168846   6.798   7.016   1.452
18928SOL    HW268847   6.666   6.927   1.418
18929SOL     OW68848   5.572   5.848   0.475
18929SOL    HW168849   5.632   5.799   0.413
18929SOL    HW268850   5.627   5.900   0.540
18930SOL     OW68851   7.195   7.346   0.166
18930SOL    HW168852   7.285   7.390   0.168
18930SOL    HW268853   7.194   7.277   0.094
18931SOL     OW68854   6.359   6.313   1.324
18931SOL    HW168855   6.361   6.399   1.375
18931SOL    HW268856   6.416   6.245   1.371
18932SOL     OW68857   5.596   7.340   1.395
18932SOL    HW168858   5.604   7.440   1.393
18932SOL    HW268859   5.572   7.311   1.488
18933SOL     OW68860   6.377   6.359   0.389
18933SOL    HW168861   6.288   6.387   0.354
18933SOL    HW268862   6.418   6.293   0.325
18934SOL     OW68863   5.899   6.077   0.928
18934SOL    HW168864   5.955   6.070   0.845
18934SOL    HW268865   5.956   6.055   1.008
18935SOL     OW68866   5.896   7.275   0.199
18935SOL    HW168867   5.988   7.305   0.174
18935SOL    HW268868   5.871   7.314   0.288
18936SOL     OW68869   5.577   6.692   0.948
18936SOL    HW168870   5.487   6.708   0.909
18936SOL    HW268871   5.575   6.608   1.003
18937SOL     OW68872   5.573   6.733   0.492
18937SOL    HW168873   5.651   6.791   0.516
18937SOL    HW268874   5.592   6.684   0.407
18938SOL     OW68875   7.103   5.861   1.576
18938SOL    HW168876   7.042   5.939   1.573
18938SOL    HW268877   7.158   5.865   1.659
18939SOL     OW68878   6.819   5.807   0.867
18939SOL    HW168879   6.818   5.885   0.804
18939SOL    HW268880   6.862   5.834   0.953
18940SOL     OW68881   6.939   5.613   0.163
18940SOL    HW168882   7.019   5.553   0.160
18940SOL    HW268883   6.865   5.566   0.211
18941SOL     OW68884   7.152   5.585   1.597
18941SOL    HW168885   7.178   5.542   1.511
18941SOL    HW268886   7.102   5.669   1.579
18942SOL     OW68887   6.254   5.844   0.729
18942SOL    HW168888   6.243   5.786   0.810
18942SOL    HW268889   6.339   5.896   0.737
18943SOL     OW68890   6.834   6.195   1.121
18943SOL    HW168891   6.888   6.235   1.047
18943SOL    HW268892   6.872   6.224   1.209
18944SOL     OW68893   7.127   5.601   0.437
18944SOL    HW168894   7.134   5.555   0.349
18944SOL    HW268895   7.031   5.611   0.462
18945SOL     OW68896   6.103   6.916   1.800
18945SOL    HW168897   6.064   6.979   1.733
18945SOL    HW268898   6.186   6.956   1.840
18946SOL     OW68899   5.979   6.648   1.632
18946SOL    HW168900   5.998   6.672   1.537
18946SOL    HW268901   5.972   6.731   1.687
18947SOL     OW68902   5.640   6.938   1.106
18947SOL    HW168903   5.609   6.864   1.047
18947SOL    HW268904   5.572   6.956   1.177
18948SOL     OW68905   6.726   6.139   0.839
18948SOL    HW168906   6.808   6.116   0.787
18948SOL    HW268907   6.721   6.080   0.920
18949SOL     OW68908   7.326   6.166   1.675
18949SOL    HW168909   7.315   6.252   1.624
18949SOL    HW268910   7.420   6.157   1.705
18950SOL     OW68911   6.897   5.939   1.094
18950SOL    HW168912   6.871   6.036   1.100
18950SOL    HW268913   6.897   5.899   1.186
18951SOL     OW68914   7.127   6.071   1.845
18951SOL    HW168915   7.207   6.096   1.789
18951SOL    HW268916   7.158   6.036   1.933
18952SOL     OW68917   6.838   6.374   0.425
18952SOL    HW168918   6.784   6.372   0.509
18952SOL    HW268919   6.915   6.437   0.436
18953SOL     OW68920   7.135   6.470   0.645
18953SOL    HW168921   7.149   6.433   0.552
18953SOL    HW268922   7.046   6.440   0.679
18954SOL     OW68923   7.291   6.407   1.540
18954SOL    HW168924   7.193   6.428   1.542
18954SOL    HW268925   7.340   6.483   1.499
18955SOL     OW68926   7.145   5.827   0.219
18955SOL    HW168927   7.150   5.869   0.310
18955SOL    HW268928   7.078   5.752   0.221
18956SOL     OW68929   6.292   7.042   1.439
18956SOL    HW168930   6.229   7.120   1.446
18956SOL    HW268931   6.260   6.980   1.367
18957SOL     OW68932   5.683   5.837   1.704
18957SOL    HW168933   5.701   5.826   1.606
18957SOL    HW268934   5.585   5.833   1.721
18958SOL     OW68935   5.563   7.251   1.648
18958SOL    HW168936   5.635   7.237   1.716
18958SOL    HW268937   5.474   7.254   1.693
18959SOL     OW68938   5.731   5.907   0.672
18959SOL    HW168939   5.674   5.962   0.733
18959SOL    HW268940   5.801   5.859   0.725
18960SOL     OW68941   6.903   7.139   1.535
18960SOL    HW168942   6.856   7.207   1.590
18960SOL    HW268943   6.970   7.185   1.476
18961SOL     OW68944   7.254   5.760   1.373
18961SOL    HW168945   7.210   5.808   1.449
18961SOL    HW268946   7.232   5.806   1.287
18962SOL     OW68947   5.983   7.361   0.736
18962SOL    HW168948   5.907   7.327   0.681
18962SOL    HW268949   6.069   7.324   0.701
18963SOL     OW68950   5.908   6.870   1.181
18963SOL    HW168951   5.920   6.886   1.278
18963SOL    HW268952   5.821   6.910   1.151
18964SOL     OW68953   6.792   7.074   1.827
18964SOL    HW168954   6.751   6.989   1.793
18964SOL    HW268955   6.772   7.148   1.763
18965SOL     OW68956   6.282   6.794   0.517
18965SOL    HW168957   6.325   6.725   0.459
18965SOL    HW268958   6.246   6.751   0.600
18966SOL     OW68959   5.914   6.345   0.719
18966SOL    HW168960   5.906   6.443   0.737
18966SOL    HW268961   5.998   6.311   0.760
18967SOL     OW68962   5.760   5.825   0.234
18967SOL    HW168963   5.804   5.794   0.151
18967SOL    HW268964   5.761   5.925   0.238
18968SOL     OW68965   5.613   6.077   0.845
18968SOL    HW168966   5.577   6.170   0.837
18968SOL    HW268967   5.696   6.078   0.901
18969SOL     OW68968   6.048   6.664   0.231
18969SOL    HW168969   6.148   6.664   0.242
18969SOL    HW268970   6.017   6.757   0.210
18970SOL     OW68971   6.674   6.256   0.047
18970SOL    HW168972   6.605   6.313   0.003
18970SOL    HW268973   6.755   6.250  -0.012
18971SOL     OW68974   6.409   6.175   0.190
18971SOL    HW168975   6.499   6.176   0.145
18971SOL    HW268976   6.386   6.081   0.215
18972SOL     OW68977   6.860   5.692   0.484
18972SOL    HW168978   6.770   5.676   0.525
18972SOL    HW268979   6.868   5.788   0.458
18973SOL     OW68980   6.974   6.092   1.500
18973SOL    HW168981   6.926   6.115   1.584
18973SOL    HW268982   6.908   6.062   1.431
18974SOL     OW68983   5.609   5.607   0.144
18974SOL    HW168984   5.672   5.530   0.152
18974SOL    HW268985   5.629   5.675   0.215
18975SOL     OW68986   5.882   6.582   1.145
18975SOL    HW168987   5.893   6.537   1.234
18975SOL    HW268988   5.909   6.678   1.152
18976SOL     OW68989   6.163   6.195   1.167
18976SOL    HW168990   6.238   6.238   1.216
18976SOL    HW268991   6.096   6.160   1.233
18977SOL     OW68992   6.306   6.564   1.484
18977SOL    HW168993   6.375   6.616   1.434
18977SOL    HW268994   6.301   6.597   1.579
18978SOL     OW68995   6.698   6.585   1.644
18978SOL    HW168996   6.620   6.531   1.677
18978SOL    HW268997   6.779   6.563   1.699
18979SOL     OW68998   6.627   5.767   0.640
18979SOL    HW168999   6.686   5.827   0.695
18979SOL    HW269000   6.554   5.731   0.697
18980SOL     OW69001   6.737   7.299   1.680
18980SOL    HW169002   6.642   7.297   1.648
18980SOL    HW269003   6.758   7.390   1.717
18981SOL     OW69004   6.155   5.644   0.911
18981SOL    HW169005   6.083   5.577   0.897
18981SOL    HW269006   6.237   5.598   0.946
18982SOL     OW69007   5.855   7.309   1.278
18982SOL    HW169008   5.835   7.291   1.182
18982SOL    HW269009   5.782   7.271   1.335
18983SOL     OW69010   6.548   6.773   0.823
18983SOL    HW169011   6.587   6.816   0.742
18983SOL    HW269012   6.621   6.756   0.890
18984SOL     OW69013   6.242   6.501   1.025
18984SOL    HW169014   6.240   6.417   0.970
18984SOL    HW269015   6.191   6.487   1.110
18985SOL     OW69016   5.581   6.511   1.151
18985SOL    HW169017   5.670   6.489   1.191
18985SOL    HW269018   5.526   6.427   1.147
18986SOL     OW69019   5.809   5.556   0.431
18986SOL    HW169020   5.847   5.644   0.458
18986SOL    HW269021   5.732   5.532   0.491
18987SOL     OW69022   6.225   6.173   1.759
18987SOL    HW169023   6.177   6.224   1.688
18987SOL    HW269024   6.318   6.152   1.729
18988SOL     OW69025   7.328   5.755   0.852
18988SOL    HW169026   7.283   5.737   0.939
18988SOL    HW269027   7.426   5.772   0.868
18989SOL     OW69028   6.376   6.731   1.104
18989SOL    HW169029   6.327   6.646   1.085
18989SOL    HW269030   6.446   6.746   1.035
18990SOL     OW69031   6.714   6.154   0.313
18990SOL    HW169032   6.766   6.226   0.359
18990SOL    HW269033   6.727   6.161   0.215
18991SOL     OW69034   7.075   6.969   1.640
18991SOL    HW169035   7.060   6.871   1.654
18991SOL    HW269036   6.992   7.011   1.604
18992SOL     OW69037   5.832   6.411   1.380
18992SOL    HW169038   5.796   6.321   1.406
18992SOL    HW269039   5.793   6.481   1.440
18993SOL     OW69040   6.334   7.037   0.038
18993SOL    HW169041   6.309   7.114   0.097
18993SOL    HW269042   6.398   6.977   0.086
18994SOL     OW69043   6.152   7.244   1.072
18994SOL    HW169044   6.172   7.214   0.979
18994SOL    HW269045   6.077   7.189   1.109
18995SOL     OW69046   6.295   6.655   0.789
18995SOL    HW169047   6.384   6.701   0.789
18995SOL    HW269048   6.288   6.595   0.868
18996SOL     OW69049   5.663   6.349   0.858
18996SOL    HW169050   5.758   6.340   0.826
18996SOL    HW269051   5.629   6.441   0.837
18997SOL     OW69052   5.600   6.466   1.785
18997SOL    HW169053   5.515   6.417   1.766
18997SOL    HW269054   5.627   6.453   1.880
18998SOL     OW69055   6.497   7.375   1.491
18998SOL    HW169056   6.469   7.288   1.532
18998SOL    HW269057   6.441   7.449   1.528
18999SOL     OW69058   6.726   6.722   1.021
18999SOL    HW169059   6.710   6.816   1.052
18999SOL    HW269060   6.729   6.661   1.101
19000SOL     OW69061   6.000   5.993   1.785
19000SOL    HW169062   6.036   5.940   1.708
19000SOL    HW269063   6.061   6.070   1.803
19001SOL     OW69064   7.145   6.441   1.055
19001SOL    HW169065   7.164   6.480   0.964
19001SOL    HW269066   7.099   6.510   1.111
19002SOL     OW69067   6.837   5.884   1.351
19002SOL    HW169068   6.908   5.856   1.415
19002SOL    HW269069   6.784   5.804   1.323
19003SOL     OW69070   5.538   5.583   0.552
19003SOL    HW169071   5.451   5.570   0.505
19003SOL    HW269072   5.546   5.678   0.582
19004SOL     OW69073   6.759   5.684   1.793
19004SOL    HW169074   6.818   5.700   1.873
19004SOL    HW269075   6.706   5.767   1.774
19005SOL     OW69076   5.975   7.103   1.618
19005SOL    HW169077   5.917   7.168   1.667
19005SOL    HW269078   6.037   7.153   1.558
19006SOL     OW69079   7.331   6.990   1.559
19006SOL    HW169080   7.359   7.083   1.581
19006SOL    HW269081   7.238   6.974   1.592
19007SOL     OW69082   6.581   6.103   1.109
19007SOL    HW169083   6.667   6.154   1.108
19007SOL    HW269084   6.587   6.029   1.176
19008SOL     OW69085   5.985   7.049   0.681
19008SOL    HW169086   5.983   6.950   0.694
19008SOL    HW269087   5.894   7.082   0.658
19009SOL     OW69088   6.626   7.166   1.269
19009SOL    HW169089   6.552   7.230   1.287
19009SOL    HW269090   6.705   7.215   1.231
19010SOL     OW69091   5.835   7.296   1.768
19010SOL    HW169092   5.878   7.380   1.734
19010SOL    HW269093   5.860   7.283   1.864
19011SOL     OW69094   5.695   6.832   1.639
19011SOL    HW169095   5.674   6.737   1.612
19011SOL    HW269096   5.626   6.893   1.601
19012SOL     OW69097   5.784   7.197   1.043
19012SOL    HW169098   5.726   7.117   1.057
19012SOL    HW269099   5.808   7.204   0.946
19013SOL     OW69100   6.530   5.718   0.898
19013SOL    HW169101   6.626   5.719   0.926
19013SOL    HW269102   6.475   5.675   0.970
19014SOL     OW69103   7.183   5.991   0.778
19014SOL    HW169104   7.202   6.077   0.825
19014SOL    HW269105   7.251   5.922   0.806
19015SOL     OW69106   6.326   6.663   0.264
19015SOL    HW169107   6.398   6.722   0.229
19015SOL    HW269108   6.366   6.579   0.300
19016SOL     OW69109   6.397   5.639   0.116
19016SOL    HW169110   6.472   5.573   0.128
19016SOL    HW269111   6.428   5.730   0.144
19017SOL     OW69112   6.076   6.068   0.728
19017SOL    HW169113   6.114   5.979   0.754
19017SOL    HW269114   6.143   6.118   0.673
19018SOL     OW69115   6.064   6.626   1.382
19018SOL    HW169116   6.160   6.606   1.402
19018SOL    HW269117   6.053   6.724   1.364
19019SOL     OW69118   7.286   6.669   1.351
19019SOL    HW169119   7.300   6.767   1.365
19019SOL    HW269120   7.343   6.638   1.275
19020SOL     OW69121   5.769   6.778   0.043
19020SOL    HW169122   5.761   6.790  -0.056
19020SOL    HW269123   5.828   6.849   0.081
19021SOL     OW69124   6.196   7.217   0.203
19021SOL    HW169125   6.171   7.312   0.187
19021SOL    HW269126   6.163   7.189   0.293
19022SOL     OW69127   6.846   6.640   1.427
19022SOL    HW169128   6.790   6.599   1.498
19022SOL    HW269129   6.826   6.738   1.421
19023SOL     OW69130   6.113   7.256   1.427
19023SOL    HW169131   6.162   7.336   1.391
19023SOL    HW269132   6.021   7.254   1.388
19024SOL     OW69133   5.756   6.137   1.789
19024SOL    HW169134   5.773   6.038   1.794
19024SOL    HW269135   5.820   6.185   1.850
19025SOL     OW69136   7.195   7.098   1.028
19025SOL    HW169137   7.167   7.191   1.052
19025SOL    HW269138   7.245   7.057   1.104
19026SOL     OW69139   5.591   6.471   0.589
19026SOL    HW169140   5.598   6.570   0.576
19026SOL    HW269141   5.500   6.448   0.623
19027SOL     OW69142   6.100   6.269   1.527
19027SOL    HW169143   6.006   6.239   1.508
19027SOL    HW269144   6.109   6.366   1.504
19028SOL     OW69145   6.325   6.051   1.008
19028SOL    HW169146   6.417   6.079   1.035
19028SOL    HW269147   6.257   6.102   1.062
19029SOL     OW69148   6.178   6.902   1.235
19029SOL    HW169149   6.091   6.901   1.186
19029SOL    HW269150   6.244   6.842   1.188
19030SOL     OW69151   5.744   6.244   1.149
19030SOL    HW169152   5.782   6.303   1.220
19030SOL    HW269153   5.727   6.297   1.067
19031SOL     OW69154   5.915   6.890   1.447
19031SOL    HW169155   5.934   6.978   1.491
19031SOL    HW269156   5.820   6.864   1.465
19032SOL     OW69157   6.219   5.910   0.464
19032SOL    HW169158   6.121   5.904   0.444
19032SOL    HW269159   6.238   5.867   0.552
19033SOL     OW69160   7.139   5.593   0.723
19033SOL    HW169161   7.134   5.634   0.632
19033SOL    HW269162   7.220   5.627   0.770
19034SOL     OW69163   6.742   6.349   1.416
19034SOL    HW169164   6.841   6.358   1.406
19034SOL    HW269165   6.698   6.351   1.326
19035SOL     OW69166   6.236   6.309   0.818
19035SOL    HW169167   6.258   6.231   0.876
19035SOL    HW269168   6.245   6.283   0.722
19036SOL     OW69169   6.901   7.016   1.030
19036SOL    HW169170   6.815   6.973   1.059
19036SOL    HW269171   6.890   7.056   0.939
19037SOL     OW69172   6.904   6.001   0.705
19037SOL    HW169173   6.903   5.993   0.606
19037SOL    HW269174   6.993   5.973   0.740
19038SOL     OW69175   6.631   7.017   2.537
19038SOL    HW169176   6.722   7.051   2.560
19038SOL    HW269177   6.603   7.055   2.449
19039SOL     OW69178   7.142   6.813   2.395
19039SOL    HW169179   7.153   6.897   2.449
19039SOL    HW269180   7.232   6.776   2.372
19040SOL     OW69181   7.222   6.095   3.259
19040SOL    HW169182   7.124   6.087   3.281
19040SOL    HW269183   7.275   6.084   3.343
19041SOL     OW69184   5.889   5.732   1.864
19041SOL    HW169185   5.802   5.729   1.815
19041SOL    HW269186   5.940   5.814   1.836
19042SOL     OW69187   6.876   7.121   2.639
19042SOL    HW169188   6.865   7.218   2.662
19042SOL    HW269189   6.969   7.104   2.609
19043SOL     OW69190   6.754   5.632   3.197
19043SOL    HW169191   6.678   5.587   3.244
19043SOL    HW269192   6.783   5.577   3.119
19044SOL     OW69193   6.492   6.412   3.574
19044SOL    HW169194   6.457   6.387   3.484
19044SOL    HW269195   6.416   6.433   3.635
19045SOL     OW69196   6.099   7.086   2.268
19045SOL    HW169197   6.055   7.095   2.357
19045SOL    HW269198   6.170   7.016   2.272
19046SOL     OW69199   6.117   5.619   1.990
19046SOL    HW169200   6.205   5.647   1.951
19046SOL    HW269201   6.045   5.682   1.960
19047SOL     OW69202   7.087   6.604   3.373
19047SOL    HW169203   6.995   6.609   3.335
19047SOL    HW269204   7.152   6.642   3.307
19048SOL     OW69205   6.987   6.611   3.054
19048SOL    HW169206   6.912   6.600   3.119
19048SOL    HW269207   7.024   6.704   3.060
19049SOL     OW69208   6.026   6.759   2.563
19049SOL    HW169209   5.959   6.713   2.622
19049SOL    HW269210   6.118   6.727   2.586
19050SOL     OW69211   6.253   6.165   2.394
19050SOL    HW169212   6.292   6.235   2.335
19050SOL    HW269213   6.227   6.085   2.340
19051SOL     OW69214   6.873   6.073   3.603
19051SOL    HW169215   6.969   6.077   3.629
19051SOL    HW269216   6.829   5.997   3.650
19052SOL     OW69217   5.956   6.928   2.047
19052SOL    HW169218   6.020   6.944   1.972
19052SOL    HW269219   5.980   6.986   2.125
19053SOL     OW69220   6.107   5.884   2.857
19053SOL    HW169221   6.183   5.949   2.853
19053SOL    HW269222   6.137   5.795   2.824
19054SOL     OW69223   5.804   6.310   2.275
19054SOL    HW169224   5.819   6.244   2.349
19054SOL    HW269225   5.754   6.389   2.310
19055SOL     OW69226   6.390   7.255   2.452
19055SOL    HW169227   6.455   7.188   2.416
19055SOL    HW269228   6.380   7.331   2.388
19056SOL     OW69229   7.282   7.137   2.194
19056SOL    HW169230   7.378   7.111   2.187
19056SOL    HW269231   7.258   7.197   2.118
19057SOL     OW69232   7.194   5.830   2.965
19057SOL    HW169233   7.245   5.902   2.918
19057SOL    HW269234   7.099   5.857   2.974
19058SOL     OW69235   6.594   5.859   2.234
19058SOL    HW169236   6.619   5.953   2.255
19058SOL    HW269237   6.595   5.805   2.318
19059SOL     OW69238   5.718   6.572   3.419
19059SOL    HW169239   5.814   6.587   3.437
19059SOL    HW269240   5.680   6.510   3.488
19060SOL     OW69241   6.044   6.217   1.962
19060SOL    HW169242   6.004   6.296   1.915
19060SOL    HW269243   6.133   6.196   1.922
19061SOL     OW69244   6.217   7.141   2.660
19061SOL    HW169245   6.290   7.164   2.596
19061SOL    HW269246   6.146   7.088   2.614
19062SOL     OW69247   6.559   6.173   3.414
19062SOL    HW169248   6.592   6.090   3.461
19062SOL    HW269249   6.632   6.241   3.413
19063SOL     OW69250   7.163   6.973   2.636
19063SOL    HW169251   7.159   7.008   2.729
19063SOL    HW269252   7.222   7.032   2.580
19064SOL     OW69253   5.894   6.794   2.312
19064SOL    HW169254   5.940   6.768   2.397
19064SOL    HW269255   5.914   6.726   2.241
19065SOL     OW69256   6.752   5.849   2.023
19065SOL    HW169257   6.846   5.819   2.041
19065SOL    HW269258   6.700   5.849   2.109
19066SOL     OW69259   5.904   6.054   3.118
19066SOL    HW169260   5.894   5.967   3.070
19066SOL    HW269261   5.840   6.121   3.081
19067SOL     OW69262   6.986   6.334   3.156
19067SOL    HW169263   6.990   6.428   3.121
19067SOL    HW269264   7.079   6.303   3.178
19068SOL     OW69265   5.939   5.826   2.277
19068SOL    HW169266   5.893   5.866   2.356
19068SOL    HW269267   5.887   5.845   2.195
19069SOL     OW69268   7.067   7.353   3.189
19069SOL    HW169269   7.010   7.304   3.123
19069SOL    HW269270   7.153   7.380   3.146
19070SOL     OW69271   7.362   6.071   3.044
19070SOL    HW169272   7.419   6.153   3.046
19070SOL    HW269273   7.303   6.070   3.124
19071SOL     OW69274   6.492   6.037   2.519
19071SOL    HW169275   6.568   6.065   2.578
19071SOL    HW269276   6.448   6.117   2.480
19072SOL     OW69277   6.727   6.501   2.036
19072SOL    HW169278   6.764   6.451   2.114
19072SOL    HW269279   6.657   6.446   1.991
19073SOL     OW69280   6.569   5.923   3.657
19073SOL    HW169281   6.632   5.928   3.734
19073SOL    HW269282   6.477   5.901   3.690
19074SOL     OW69283   7.310   6.170   2.115
19074SOL    HW169284   7.331   6.089   2.061
19074SOL    HW269285   7.327   6.151   2.212
19075SOL     OW69286   6.604   7.308   2.023
19075SOL    HW169287   6.638   7.221   1.988
19075SOL    HW269288   6.572   7.296   2.117
19076SOL     OW69289   6.285   5.575   3.555
19076SOL    HW169290   6.292   5.481   3.522
19076SOL    HW269291   6.342   5.585   3.637
19077SOL     OW69292   7.208   6.176   2.823
19077SOL    HW169293   7.193   6.267   2.860
19077SOL    HW269294   7.278   6.129   2.877
19078SOL     OW69295   6.618   6.842   3.589
19078SOL    HW169296   6.640   6.752   3.551
19078SOL    HW269297   6.553   6.889   3.530
19079SOL     OW69298   6.273   6.684   3.593
19079SOL    HW169299   6.244   6.761   3.650
19079SOL    HW269300   6.283   6.603   3.651
19080SOL     OW69301   6.908   5.548   2.699
19080SOL    HW169302   6.857   5.632   2.681
19080SOL    HW269303   6.994   5.550   2.648
19081SOL     OW69304   7.263   5.754   3.628
19081SOL    HW169305   7.240   5.775   3.723
19081SOL    HW269306   7.239   5.659   3.608
19082SOL     OW69307   5.566   6.158   2.372
19082SOL    HW169308   5.568   6.109   2.459
19082SOL    HW269309   5.568   6.257   2.390
19083SOL     OW69310   5.887   5.746   2.693
19083SOL    HW169311   5.939   5.786   2.768
19083SOL    HW269312   5.940   5.673   2.650
19084SOL     OW69313   5.871   5.794   3.027
19084SOL    HW169314   5.836   5.701   3.027
19084SOL    HW269315   5.958   5.797   2.978
19085SOL     OW69316   6.538   6.416   2.767
19085SOL    HW169317   6.564   6.496   2.713
19085SOL    HW269318   6.532   6.336   2.707
19086SOL     OW69319   5.739   7.043   2.226
19086SOL    HW169320   5.766   6.949   2.246
19086SOL    HW269321   5.764   7.065   2.132
19087SOL     OW69322   7.021   6.912   3.100
19087SOL    HW169323   6.992   6.949   3.011
19087SOL    HW269324   6.943   6.912   3.162
19088SOL     OW69325   5.753   7.186   2.463
19088SOL    HW169326   5.669   7.237   2.481
19088SOL    HW269327   5.744   7.135   2.378
19089SOL     OW69328   7.274   6.983   3.138
19089SOL    HW169329   7.305   6.997   3.232
19089SOL    HW269330   7.175   6.970   3.137
19090SOL     OW69331   6.026   6.483   1.865
19090SOL    HW169332   5.995   6.517   1.777
19090SOL    HW269333   6.030   6.558   1.931
19091SOL     OW69334   6.543   6.670   3.164
19091SOL    HW169335   6.593   6.585   3.148
19091SOL    HW269336   6.497   6.697   3.079
19092SOL     OW69337   5.630   6.375   2.038
19092SOL    HW169338   5.690   6.322   2.098
19092SOL    HW269339   5.536   6.343   2.050
19093SOL     OW69340   7.150   6.373   2.238
19093SOL    HW169341   7.218   6.307   2.205
19093SOL    HW269342   7.165   6.461   2.194
19094SOL     OW69343   6.398   7.360   2.886
19094SOL    HW169344   6.444   7.293   2.828
19094SOL    HW269345   6.324   7.316   2.936
19095SOL     OW69346   6.305   6.429   1.922
19095SOL    HW169347   6.334   6.348   1.973
19095SOL    HW269348   6.205   6.428   1.913
19096SOL     OW69349   6.901   5.961   2.268
19096SOL    HW169350   6.838   6.019   2.216
19096SOL    HW269351   6.994   5.995   2.256
19097SOL     OW69352   5.798   6.162   3.368
19097SOL    HW169353   5.818   6.067   3.343
19097SOL    HW269354   5.761   6.165   3.461
19098SOL     OW69355   5.680   5.817   3.258
19098SOL    HW169356   5.752   5.827   3.189
19098SOL    HW269357   5.591   5.816   3.213
19099SOL     OW69358   6.578   6.438   3.023
19099SOL    HW169359   6.572   6.424   2.924
19099SOL    HW269360   6.497   6.399   3.067
19100SOL     OW69361   7.169   5.972   2.338
19100SOL    HW169362   7.265   5.943   2.335
19100SOL    HW269363   7.130   5.950   2.427
19101SOL     OW69364   6.453   7.047   2.775
19101SOL    HW169365   6.511   7.058   2.694
19101SOL    HW269366   6.359   7.071   2.753
19102SOL     OW69367   6.403   5.913   2.060
19102SOL    HW169368   6.312   5.926   2.098
19102SOL    HW269369   6.463   5.873   2.130
19103SOL     OW69370   6.514   6.858   1.995
19103SOL    HW169371   6.567   6.798   2.055
19103SOL    HW269372   6.553   6.859   1.904
19104SOL     OW69373   6.680   6.426   2.469
19104SOL    HW169374   6.745   6.454   2.540
19104SOL    HW269375   6.601   6.487   2.471
19105SOL     OW69376   6.872   6.466   2.672
19105SOL    HW169377   6.893   6.408   2.750
19105SOL    HW269378   6.881   6.562   2.698
19106SOL     OW69379   5.828   6.595   2.718
19106SOL    HW169380   5.751   6.657   2.711
19106SOL    HW269381   5.865   6.596   2.811
19107SOL     OW69382   6.461   6.543   2.417
19107SOL    HW169383   6.448   6.454   2.374
19107SOL    HW269384   6.392   6.557   2.488
19108SOL     OW69385   5.572   5.848   2.320
19108SOL    HW169386   5.632   5.799   2.258
19108SOL    HW269387   5.627   5.900   2.385
19109SOL     OW69388   6.359   6.313   3.169
19109SOL    HW169389   6.361   6.399   3.220
19109SOL    HW269390   6.416   6.245   3.216
19110SOL     OW69391   5.596   7.340   3.240
19110SOL    HW169392   5.604   7.440   3.238
19110SOL    HW269393   5.572   7.311   3.333
19111SOL     OW69394   6.377   6.359   2.234
19111SOL    HW169395   6.288   6.387   2.199
19111SOL    HW269396   6.418   6.293   2.170
19112SOL     OW69397   5.899   6.077   2.773
19112SOL    HW169398   5.955   6.070   2.690
19112SOL    HW269399   5.956   6.055   2.853
19113SOL     OW69400   5.896   7.275   2.044
19113SOL    HW169401   5.988   7.305   2.019
19113SOL    HW269402   5.871   7.314   2.133
19114SOL     OW69403   6.872   7.297   2.981
19114SOL    HW169404   6.891   7.360   2.907
19114SOL    HW269405   6.880   7.203   2.948
19115SOL     OW69406   5.577   6.692   2.793
19115SOL    HW169407   5.487   6.708   2.754
19115SOL    HW269408   5.575   6.608   2.848
19116SOL     OW69409   6.328   5.597   2.243
19116SOL    HW169410   6.289   5.586   2.152
19116SOL    HW269411   6.284   5.673   2.290
19117SOL     OW69412   5.573   6.733   2.337
19117SOL    HW169413   5.651   6.791   2.361
19117SOL    HW269414   5.592   6.684   2.252
19118SOL     OW69415   7.103   5.861   3.421
19118SOL    HW169416   7.042   5.939   3.418
19118SOL    HW269417   7.158   5.865   3.504
19119SOL     OW69418   6.819   5.807   2.712
19119SOL    HW169419   6.818   5.885   2.649
19119SOL    HW269420   6.862   5.834   2.798
19120SOL     OW69421   6.939   5.613   2.008
19120SOL    HW169422   7.019   5.553   2.005
19120SOL    HW269423   6.865   5.566   2.056
19121SOL     OW69424   7.152   5.585   3.442
19121SOL    HW169425   7.178   5.542   3.356
19121SOL    HW269426   7.102   5.669   3.424
19122SOL     OW69427   6.254   5.844   2.574
19122SOL    HW169428   6.243   5.786   2.655
19122SOL    HW269429   6.339   5.896   2.582
19123SOL     OW69430   6.834   6.195   2.966
19123SOL    HW169431   6.888   6.235   2.892
19123SOL    HW269432   6.872   6.224   3.054
19124SOL     OW69433   7.127   5.601   2.282
19124SOL    HW169434   7.134   5.555   2.194
19124SOL    HW269435   7.031   5.611   2.307
19125SOL     OW69436   6.103   6.916   3.645
19125SOL    HW169437   6.064   6.979   3.578
19125SOL    HW269438   6.186   6.956   3.685
19126SOL     OW69439   5.979   6.648   3.477
19126SOL    HW169440   5.998   6.672   3.382
19126SOL    HW269441   5.972   6.731   3.532
19127SOL     OW69442   5.640   6.938   2.951
19127SOL    HW169443   5.609   6.864   2.892
19127SOL    HW269444   5.572   6.956   3.022
19128SOL     OW69445   6.726   6.139   2.684
19128SOL    HW169446   6.808   6.116   2.632
19128SOL    HW269447   6.721   6.080   2.765
19129SOL     OW69448   7.326   6.166   3.520
19129SOL    HW169449   7.315   6.252   3.469
19129SOL    HW269450   7.420   6.157   3.550
19130SOL     OW69451   6.897   5.939   2.939
19130SOL    HW169452   6.871   6.036   2.945
19130SOL    HW269453   6.897   5.899   3.031
19131SOL     OW69454   7.127   6.071   3.690
19131SOL    HW169455   7.207   6.096   3.634
19131SOL    HW269456   7.158   6.036   3.778
19132SOL     OW69457   6.838   6.374   2.270
19132SOL    HW169458   6.784   6.372   2.354
19132SOL    HW269459   6.915   6.437   2.281
19133SOL     OW69460   7.135   6.470   2.490
19133SOL    HW169461   7.149   6.433   2.397
19133SOL    HW269462   7.046   6.440   2.524
19134SOL     OW69463   7.291   6.407   3.385
19134SOL    HW169464   7.193   6.428   3.387
19134SOL    HW269465   7.340   6.483   3.344
19135SOL     OW69466   7.145   5.827   2.064
19135SOL    HW169467   7.150   5.869   2.155
19135SOL    HW269468   7.078   5.752   2.066
19136SOL     OW69469   6.292   7.042   3.284
19136SOL    HW169470   6.229   7.120   3.291
19136SOL    HW269471   6.260   6.980   3.212
19137SOL     OW69472   5.683   5.837   3.549
19137SOL    HW169473   5.701   5.826   3.451
19137SOL    HW269474   5.585   5.833   3.566
19138SOL     OW69475   5.563   7.251   3.493
19138SOL    HW169476   5.635   7.237   3.561
19138SOL    HW269477   5.474   7.254   3.538
19139SOL     OW69478   5.731   5.907   2.517
19139SOL    HW169479   5.674   5.962   2.578
19139SOL    HW269480   5.801   5.859   2.570
19140SOL     OW69481   6.903   7.139   3.380
19140SOL    HW169482   6.856   7.207   3.435
19140SOL    HW269483   6.970   7.185   3.321
19141SOL     OW69484   5.868   6.098   2.115
19141SOL    HW169485   5.940   6.127   2.052
19141SOL    HW269486   5.824   6.178   2.155
19142SOL     OW69487   7.254   5.760   3.218
19142SOL    HW169488   7.210   5.808   3.294
19142SOL    HW269489   7.232   5.806   3.132
19143SOL     OW69490   5.983   7.361   2.581
19143SOL    HW169491   5.907   7.327   2.526
19143SOL    HW269492   6.069   7.324   2.546
19144SOL     OW69493   5.908   6.870   3.026
19144SOL    HW169494   5.920   6.886   3.123
19144SOL    HW269495   5.821   6.910   2.996
19145SOL     OW69496   6.792   7.074   3.672
19145SOL    HW169497   6.751   6.989   3.638
19145SOL    HW269498   6.772   7.148   3.608
19146SOL     OW69499   6.282   6.794   2.362
19146SOL    HW169500   6.325   6.725   2.304
19146SOL    HW269501   6.246   6.751   2.445
19147SOL     OW69502   5.914   6.345   2.564
19147SOL    HW169503   5.906   6.443   2.582
19147SOL    HW269504   5.998   6.311   2.605
19148SOL     OW69505   5.760   5.825   2.079
19148SOL    HW169506   5.804   5.794   1.996
19148SOL    HW269507   5.761   5.925   2.083
19149SOL     OW69508   5.613   6.077   2.690
19149SOL    HW169509   5.577   6.170   2.682
19149SOL    HW269510   5.696   6.078   2.746
19150SOL     OW69511   6.048   6.664   2.076
19150SOL    HW169512   6.148   6.664   2.087
19150SOL    HW269513   6.017   6.757   2.055
19151SOL     OW69514   6.674   6.256   1.892
19151SOL    HW169515   6.605   6.313   1.848
19151SOL    HW269516   6.755   6.250   1.833
19152SOL     OW69517   6.409   6.175   2.035
19152SOL    HW169518   6.499   6.176   1.990
19152SOL    HW269519   6.386   6.081   2.060
19153SOL     OW69520   6.860   5.692   2.329
19153SOL    HW169521   6.770   5.676   2.370
19153SOL    HW269522   6.868   5.788   2.303
19154SOL     OW69523   6.974   6.092   3.345
19154SOL    HW169524   6.926   6.115   3.429
19154SOL    HW269525   6.908   6.062   3.276
19155SOL     OW69526   5.609   5.607   1.989
19155SOL    HW169527   5.672   5.530   1.997
19155SOL    HW269528   5.629   5.675   2.060
19156SOL     OW69529   5.882   6.582   2.990
19156SOL    HW169530   5.893   6.537   3.079
19156SOL    HW269531   5.909   6.678   2.997
19157SOL     OW69532   7.181   6.594   2.090
19157SOL    HW169533   7.252   6.664   2.092
19157SOL    HW269534   7.168   6.564   1.995
19158SOL     OW69535   6.163   6.195   3.012
19158SOL    HW169536   6.238   6.238   3.061
19158SOL    HW269537   6.096   6.160   3.078
19159SOL     OW69538   6.306   6.564   3.329
19159SOL    HW169539   6.375   6.616   3.279
19159SOL    HW269540   6.301   6.597   3.424
19160SOL     OW69541   6.698   6.585   3.489
19160SOL    HW169542   6.620   6.531   3.522
19160SOL    HW269543   6.779   6.563   3.544
19161SOL     OW69544   6.627   5.767   2.485
19161SOL    HW169545   6.686   5.827   2.540
19161SOL    HW269546   6.554   5.731   2.542
19162SOL     OW69547   6.737   7.299   3.525
19162SOL    HW169548   6.642   7.297   3.493
19162SOL    HW269549   6.758   7.390   3.562
19163SOL     OW69550   6.155   5.644   2.756
19163SOL    HW169551   6.083   5.577   2.742
19163SOL    HW269552   6.237   5.598   2.791
19164SOL     OW69553   5.855   7.309   3.123
19164SOL    HW169554   5.835   7.291   3.027
19164SOL    HW269555   5.782   7.271   3.180
19165SOL     OW69556   6.548   6.773   2.668
19165SOL    HW169557   6.587   6.816   2.587
19165SOL    HW269558   6.621   6.756   2.735
19166SOL     OW69559   6.242   6.501   2.870
19166SOL    HW169560   6.240   6.417   2.815
19166SOL    HW269561   6.191   6.487   2.955
19167SOL     OW69562   5.581   6.511   2.996
19167SOL    HW169563   5.670   6.489   3.036
19167SOL    HW269564   5.526   6.427   2.992
19168SOL     OW69565   5.809   5.556   2.276
19168SOL    HW169566   5.847   5.644   2.303
19168SOL    HW269567   5.732   5.532   2.336
19169SOL     OW69568   6.225   6.173   3.604
19169SOL    HW169569   6.177   6.224   3.533
19169SOL    HW269570   6.318   6.152   3.574
19170SOL     OW69571   5.631   6.643   2.096
19170SOL    HW169572   5.621   6.546   2.075
19170SOL    HW269573   5.684   6.688   2.024
19171SOL     OW69574   7.328   5.755   2.697
19171SOL    HW169575   7.283   5.737   2.784
19171SOL    HW269576   7.426   5.772   2.713
19172SOL     OW69577   6.376   6.731   2.949
19172SOL    HW169578   6.327   6.646   2.930
19172SOL    HW269579   6.446   6.746   2.880
19173SOL     OW69580   6.714   6.154   2.158
19173SOL    HW169581   6.766   6.226   2.204
19173SOL    HW269582   6.727   6.161   2.060
19174SOL     OW69583   7.075   6.969   3.485
19174SOL    HW169584   7.060   6.871   3.499
19174SOL    HW269585   6.992   7.011   3.449
19175SOL     OW69586   5.832   6.411   3.225
19175SOL    HW169587   5.796   6.321   3.251
19175SOL    HW269588   5.793   6.481   3.285
19176SOL     OW69589   6.334   7.037   1.883
19176SOL    HW169590   6.309   7.114   1.942
19176SOL    HW269591   6.398   6.977   1.931
19177SOL     OW69592   6.152   7.244   2.917
19177SOL    HW169593   6.172   7.214   2.824
19177SOL    HW269594   6.077   7.189   2.954
19178SOL     OW69595   6.295   6.655   2.634
19178SOL    HW169596   6.384   6.701   2.634
19178SOL    HW269597   6.288   6.595   2.713
19179SOL     OW69598   6.473   7.002   2.303
19179SOL    HW169599   6.523   6.990   2.218
19179SOL    HW269600   6.419   6.919   2.322
19180SOL     OW69601   5.663   6.349   2.703
19180SOL    HW169602   5.758   6.340   2.671
19180SOL    HW269603   5.629   6.441   2.682
19181SOL     OW69604   5.600   6.466   3.630
19181SOL    HW169605   5.515   6.417   3.611
19181SOL    HW269606   5.627   6.453   3.725
19182SOL     OW69607   6.726   6.722   2.866
19182SOL    HW169608   6.710   6.816   2.897
19182SOL    HW269609   6.729   6.661   2.946
19183SOL     OW69610   6.000   5.993   3.630
19183SOL    HW169611   6.036   5.940   3.553
19183SOL    HW269612   6.061   6.070   3.648
19184SOL     OW69613   6.064   6.410   2.202
19184SOL    HW169614   6.014   6.475   2.146
19184SOL    HW269615   6.006   6.331   2.221
19185SOL     OW69616   7.145   6.441   2.900
19185SOL    HW169617   7.164   6.480   2.809
19185SOL    HW269618   7.099   6.510   2.956
19186SOL     OW69619   6.837   5.884   3.196
19186SOL    HW169620   6.908   5.856   3.260
19186SOL    HW269621   6.784   5.804   3.168
19187SOL     OW69622   5.538   5.583   2.397
19187SOL    HW169623   5.451   5.570   2.350
19187SOL    HW269624   5.546   5.678   2.427
19188SOL     OW69625   6.759   5.684   3.638
19188SOL    HW169626   6.818   5.700   3.718
19188SOL    HW269627   6.706   5.767   3.619
19189SOL     OW69628   5.975   7.103   3.463
19189SOL    HW169629   5.917   7.168   3.512
19189SOL    HW269630   6.037   7.153   3.403
19190SOL     OW69631   7.331   6.990   3.404
19190SOL    HW169632   7.359   7.083   3.426
19190SOL    HW269633   7.238   6.974   3.437
19191SOL     OW69634   6.581   6.103   2.954
19191SOL    HW169635   6.667   6.154   2.953
19191SOL    HW269636   6.587   6.029   3.021
19192SOL     OW69637   5.985   7.049   2.526
19192SOL    HW169638   5.983   6.950   2.539
19192SOL    HW269639   5.894   7.082   2.503
19193SOL     OW69640   5.835   7.296   3.613
19193SOL    HW169641   5.878   7.380   3.579
19193SOL    HW269642   5.860   7.283   3.709
19194SOL     OW69643   5.695   6.832   3.484
19194SOL    HW169644   5.674   6.737   3.457
19194SOL    HW269645   5.626   6.893   3.446
19195SOL     OW69646   5.784   7.197   2.888
19195SOL    HW169647   5.726   7.117   2.902
19195SOL    HW269648   5.808   7.204   2.791
19196SOL     OW69649   6.530   5.718   2.743
19196SOL    HW169650   6.626   5.719   2.771
19196SOL    HW269651   6.475   5.675   2.815
19197SOL     OW69652   6.592   6.724   2.259
19197SOL    HW169653   6.672   6.760   2.307
19197SOL    HW269654   6.550   6.651   2.315
19198SOL     OW69655   7.183   5.991   2.623
19198SOL    HW169656   7.202   6.077   2.670
19198SOL    HW269657   7.251   5.922   2.651
19199SOL     OW69658   6.326   6.663   2.109
19199SOL    HW169659   6.398   6.722   2.074
19199SOL    HW269660   6.366   6.579   2.145
19200SOL     OW69661   6.397   5.639   1.961
19200SOL    HW169662   6.472   5.573   1.973
19200SOL    HW269663   6.428   5.730   1.989
19201SOL     OW69664   6.076   6.068   2.573
19201SOL    HW169665   6.114   5.979   2.599
19201SOL    HW269666   6.143   6.118   2.518
19202SOL     OW69667   6.064   6.626   3.227
19202SOL    HW169668   6.160   6.606   3.247
19202SOL    HW269669   6.053   6.724   3.209
19203SOL     OW69670   7.286   6.669   3.196
19203SOL    HW169671   7.300   6.767   3.210
19203SOL    HW269672   7.343   6.638   3.120
19204SOL     OW69673   5.769   6.778   1.888
19204SOL    HW169674   5.761   6.790   1.789
19204SOL    HW269675   5.828   6.849   1.926
19205SOL     OW69676   6.196   7.217   2.048
19205SOL    HW169677   6.171   7.312   2.032
19205SOL    HW269678   6.163   7.189   2.138
19206SOL     OW69679   6.846   6.640   3.272
19206SOL    HW169680   6.790   6.599   3.343
19206SOL    HW269681   6.826   6.738   3.266
19207SOL     OW69682   6.113   7.256   3.272
19207SOL    HW169683   6.162   7.336   3.236
19207SOL    HW269684   6.021   7.254   3.233
19208SOL     OW69685   5.756   6.137   3.634
19208SOL    HW169686   5.773   6.038   3.639
19208SOL    HW269687   5.820   6.185   3.695
19209SOL     OW69688   7.195   7.098   2.873
19209SOL    HW169689   7.167   7.191   2.897
19209SOL    HW269690   7.245   7.057   2.949
19210SOL     OW69691   5.591   6.471   2.434
19210SOL    HW169692   5.598   6.570   2.421
19210SOL    HW269693   5.500   6.448   2.468
19211SOL     OW69694   6.100   6.269   3.372
19211SOL    HW169695   6.006   6.239   3.353
19211SOL    HW269696   6.109   6.366   3.349
19212SOL     OW69697   7.167   6.645   2.684
19212SOL    HW169698   7.129   6.734   2.657
19212SOL    HW269699   7.167   6.583   2.606
19213SOL     OW69700   6.325   6.051   2.853
19213SOL    HW169701   6.417   6.079   2.880
19213SOL    HW269702   6.257   6.102   2.907
19214SOL     OW69703   6.178   6.902   3.080
19214SOL    HW169704   6.091   6.901   3.031
19214SOL    HW269705   6.244   6.842   3.033
19215SOL     OW69706   5.744   6.244   2.994
19215SOL    HW169707   5.782   6.303   3.065
19215SOL    HW269708   5.727   6.297   2.912
19216SOL     OW69709   5.915   6.890   3.292
19216SOL    HW169710   5.934   6.978   3.336
19216SOL    HW269711   5.820   6.864   3.310
19217SOL     OW69712   7.158   7.206   3.640
19217SOL    HW169713   7.127   7.128   3.585
19217SOL    HW269714   7.127   7.291   3.598
19218SOL     OW69715   6.866   6.744   2.361
19218SOL    HW169716   6.965   6.748   2.377
19218SOL    HW269717   6.849   6.730   2.263
19219SOL     OW69718   6.219   5.910   2.309
19219SOL    HW169719   6.121   5.904   2.289
19219SOL    HW269720   6.238   5.867   2.397
19220SOL     OW69721   6.742   6.349   3.261
19220SOL    HW169722   6.841   6.358   3.251
19220SOL    HW269723   6.698   6.351   3.171
19221SOL     OW69724   6.236   6.309   2.663
19221SOL    HW169725   6.258   6.231   2.721
19221SOL    HW269726   6.245   6.283   2.567
19222SOL     OW69727   6.901   7.016   2.875
19222SOL    HW169728   6.815   6.973   2.904
19222SOL    HW269729   6.890   7.056   2.784
19223SOL     OW69730   6.904   6.001   2.550
19223SOL    HW169731   6.903   5.993   2.451
19223SOL    HW269732   6.993   5.973   2.585
19224SOL     OW69733   6.631   7.017   4.383
19224SOL    HW169734   6.722   7.051   4.406
19224SOL    HW269735   6.603   7.055   4.295
19225SOL     OW69736   7.142   6.813   4.241
19225SOL    HW169737   7.153   6.897   4.295
19225SOL    HW269738   7.232   6.776   4.218
19226SOL     OW69739   7.222   6.095   5.105
19226SOL    HW169740   7.124   6.087   5.127
19226SOL    HW269741   7.275   6.084   5.189
19227SOL     OW69742   5.889   5.732   3.710
19227SOL    HW169743   5.802   5.729   3.661
19227SOL    HW269744   5.940   5.814   3.682
19228SOL     OW69745   6.876   7.121   4.485
19228SOL    HW169746   6.865   7.218   4.508
19228SOL    HW269747   6.969   7.104   4.455
19229SOL     OW69748   6.754   5.632   5.043
19229SOL    HW169749   6.678   5.587   5.090
19229SOL    HW269750   6.783   5.577   4.965
19230SOL     OW69751   6.492   6.412   5.420
19230SOL    HW169752   6.457   6.387   5.330
19230SOL    HW269753   6.416   6.433   5.481
19231SOL     OW69754   6.099   7.086   4.114
19231SOL    HW169755   6.055   7.095   4.203
19231SOL    HW269756   6.170   7.016   4.118
19232SOL     OW69757   6.117   5.619   3.836
19232SOL    HW169758   6.205   5.647   3.797
19232SOL    HW269759   6.045   5.682   3.806
19233SOL     OW69760   7.087   6.604   5.219
19233SOL    HW169761   6.995   6.609   5.181
19233SOL    HW269762   7.152   6.642   5.153
19234SOL     OW69763   6.987   6.611   4.900
19234SOL    HW169764   6.912   6.600   4.965
19234SOL    HW269765   7.024   6.704   4.906
19235SOL     OW69766   6.483   6.866   5.200
19235SOL    HW169767   6.426   6.929   5.146
19235SOL    HW269768   6.516   6.792   5.141
19236SOL     OW69769   6.026   6.759   4.409
19236SOL    HW169770   5.959   6.713   4.468
19236SOL    HW269771   6.118   6.727   4.432
19237SOL     OW69772   6.253   6.165   4.240
19237SOL    HW169773   6.292   6.235   4.181
19237SOL    HW269774   6.227   6.085   4.186
19238SOL     OW69775   6.873   6.073   5.449
19238SOL    HW169776   6.969   6.077   5.475
19238SOL    HW269777   6.829   5.997   5.496
19239SOL     OW69778   5.956   6.928   3.893
19239SOL    HW169779   6.020   6.944   3.818
19239SOL    HW269780   5.980   6.986   3.971
19240SOL     OW69781   5.804   6.310   4.121
19240SOL    HW169782   5.819   6.244   4.195
19240SOL    HW269783   5.754   6.389   4.156
19241SOL     OW69784   6.390   7.255   4.298
19241SOL    HW169785   6.455   7.188   4.262
19241SOL    HW269786   6.380   7.331   4.234
19242SOL     OW69787   7.282   7.137   4.040
19242SOL    HW169788   7.378   7.111   4.033
19242SOL    HW269789   7.258   7.197   3.964
19243SOL     OW69790   7.194   5.830   4.811
19243SOL    HW169791   7.245   5.902   4.764
19243SOL    HW269792   7.099   5.857   4.820
19244SOL     OW69793   6.594   5.859   4.080
19244SOL    HW169794   6.619   5.953   4.101
19244SOL    HW269795   6.595   5.805   4.164
19245SOL     OW69796   6.044   6.217   3.808
19245SOL    HW169797   6.004   6.296   3.761
19245SOL    HW269798   6.133   6.196   3.768
19246SOL     OW69799   6.217   7.141   4.506
19246SOL    HW169800   6.290   7.164   4.442
19246SOL    HW269801   6.146   7.088   4.460
19247SOL     OW69802   6.559   6.173   5.260
19247SOL    HW169803   6.592   6.090   5.307
19247SOL    HW269804   6.632   6.241   5.259
19248SOL     OW69805   7.163   6.973   4.482
19248SOL    HW169806   7.159   7.008   4.575
19248SOL    HW269807   7.222   7.032   4.426
19249SOL     OW69808   5.894   6.794   4.158
19249SOL    HW169809   5.940   6.768   4.243
19249SOL    HW269810   5.914   6.726   4.087
19250SOL     OW69811   6.752   5.849   3.869
19250SOL    HW169812   6.846   5.819   3.887
19250SOL    HW269813   6.700   5.849   3.955
19251SOL     OW69814   6.986   6.334   5.002
19251SOL    HW169815   6.990   6.428   4.967
19251SOL    HW269816   7.079   6.303   5.024
19252SOL     OW69817   5.939   5.826   4.123
19252SOL    HW169818   5.893   5.866   4.202
19252SOL    HW269819   5.887   5.845   4.041
19253SOL     OW69820   7.067   7.353   5.035
19253SOL    HW169821   7.010   7.304   4.969
19253SOL    HW269822   7.153   7.380   4.992
19254SOL     OW69823   7.362   6.071   4.890
19254SOL    HW169824   7.419   6.153   4.892
19254SOL    HW269825   7.303   6.070   4.970
19255SOL     OW69826   7.379   7.297   4.803
19255SOL    HW169827   7.425   7.307   4.891
19255SOL    HW269828   7.446   7.300   4.730
19256SOL     OW69829   6.492   6.037   4.365
19256SOL    HW169830   6.568   6.065   4.424
19256SOL    HW269831   6.448   6.117   4.326
19257SOL     OW69832   6.727   6.501   3.882
19257SOL    HW169833   6.764   6.451   3.960
19257SOL    HW269834   6.657   6.446   3.837
19258SOL     OW69835   6.569   5.923   5.503
19258SOL    HW169836   6.632   5.928   5.580
19258SOL    HW269837   6.477   5.901   5.536
19259SOL     OW69838   7.310   6.170   3.961
19259SOL    HW169839   7.331   6.089   3.907
19259SOL    HW269840   7.327   6.151   4.058
19260SOL     OW69841   6.604   7.308   3.869
19260SOL    HW169842   6.638   7.221   3.834
19260SOL    HW269843   6.572   7.296   3.963
19261SOL     OW69844   6.285   5.575   5.401
19261SOL    HW169845   6.292   5.481   5.368
19261SOL    HW269846   6.342   5.585   5.483
19262SOL     OW69847   7.208   6.176   4.669
19262SOL    HW169848   7.193   6.267   4.706
19262SOL    HW269849   7.278   6.129   4.723
19263SOL     OW69850   6.618   6.842   5.435
19263SOL    HW169851   6.640   6.752   5.397
19263SOL    HW269852   6.553   6.889   5.376
19264SOL     OW69853   6.273   6.684   5.439
19264SOL    HW169854   6.244   6.761   5.496
19264SOL    HW269855   6.283   6.603   5.497
19265SOL     OW69856   6.908   5.548   4.545
19265SOL    HW169857   6.857   5.632   4.527
19265SOL    HW269858   6.994   5.550   4.494
19266SOL     OW69859   7.263   5.754   5.474
19266SOL    HW169860   7.240   5.775   5.569
19266SOL    HW269861   7.239   5.659   5.454
19267SOL     OW69862   5.566   6.158   4.218
19267SOL    HW169863   5.568   6.109   4.305
19267SOL    HW269864   5.568   6.257   4.236
19268SOL     OW69865   6.538   6.416   4.613
19268SOL    HW169866   6.564   6.496   4.559
19268SOL    HW269867   6.532   6.336   4.553
19269SOL     OW69868   5.739   7.043   4.072
19269SOL    HW169869   5.766   6.949   4.092
19269SOL    HW269870   5.764   7.065   3.978
19270SOL     OW69871   7.021   6.912   4.946
19270SOL    HW169872   6.992   6.949   4.857
19270SOL    HW269873   6.943   6.912   5.008
19271SOL     OW69874   5.753   7.186   4.309
19271SOL    HW169875   5.669   7.237   4.327
19271SOL    HW269876   5.744   7.135   4.224
19272SOL     OW69877   7.274   6.983   4.984
19272SOL    HW169878   7.305   6.997   5.078
19272SOL    HW269879   7.175   6.970   4.983
19273SOL     OW69880   6.026   6.483   3.711
19273SOL    HW169881   5.995   6.517   3.623
19273SOL    HW269882   6.030   6.558   3.777
19274SOL     OW69883   6.543   6.670   5.010
19274SOL    HW169884   6.593   6.585   4.994
19274SOL    HW269885   6.497   6.697   4.925
19275SOL     OW69886   5.630   6.375   3.884
19275SOL    HW169887   5.690   6.322   3.944
19275SOL    HW269888   5.536   6.343   3.896
19276SOL     OW69889   7.150   6.373   4.084
19276SOL    HW169890   7.218   6.307   4.051
19276SOL    HW269891   7.165   6.461   4.040
19277SOL     OW69892   6.398   7.360   4.732
19277SOL    HW169893   6.444   7.293   4.674
19277SOL    HW269894   6.324   7.316   4.782
19278SOL     OW69895   6.305   6.429   3.768
19278SOL    HW169896   6.334   6.348   3.819
19278SOL    HW269897   6.205   6.428   3.759
19279SOL     OW69898   6.901   5.961   4.114
19279SOL    HW169899   6.838   6.019   4.062
19279SOL    HW269900   6.994   5.995   4.102
19280SOL     OW69901   5.798   6.162   5.214
19280SOL    HW169902   5.818   6.067   5.189
19280SOL    HW269903   5.761   6.165   5.307
19281SOL     OW69904   6.578   6.438   4.869
19281SOL    HW169905   6.572   6.424   4.770
19281SOL    HW269906   6.497   6.399   4.913
19282SOL     OW69907   7.169   5.972   4.184
19282SOL    HW169908   7.265   5.943   4.181
19282SOL    HW269909   7.130   5.950   4.273
19283SOL     OW69910   6.453   7.047   4.621
19283SOL    HW169911   6.511   7.058   4.540
19283SOL    HW269912   6.359   7.071   4.599
19284SOL     OW69913   6.403   5.913   3.906
19284SOL    HW169914   6.312   5.926   3.944
19284SOL    HW269915   6.463   5.873   3.976
19285SOL     OW69916   6.514   6.858   3.841
19285SOL    HW169917   6.567   6.798   3.901
19285SOL    HW269918   6.553   6.859   3.750
19286SOL     OW69919   7.265   7.153   4.326
19286SOL    HW169920   7.232   7.246   4.345
19286SOL    HW269921   7.263   7.137   4.227
19287SOL     OW69922   6.428   7.152   5.339
19287SOL    HW169923   6.416   7.083   5.268
19287SOL    HW269924   6.391   7.117   5.426
19288SOL     OW69925   6.872   6.466   4.518
19288SOL    HW169926   6.893   6.408   4.596
19288SOL    HW269927   6.881   6.562   4.544
19289SOL     OW69928   5.828   6.595   4.564
19289SOL    HW169929   5.751   6.657   4.557
19289SOL    HW269930   5.865   6.596   4.657
19290SOL     OW69931   6.461   6.543   4.263
19290SOL    HW169932   6.448   6.454   4.220
19290SOL    HW269933   6.392   6.557   4.334
19291SOL     OW69934   6.765   6.931   5.102
19291SOL    HW169935   6.798   7.016   5.143
19291SOL    HW269936   6.666   6.927   5.109
19292SOL     OW69937   5.572   5.848   4.166
19292SOL    HW169938   5.632   5.799   4.104
19292SOL    HW269939   5.627   5.900   4.231
19293SOL     OW69940   6.359   6.313   5.015
19293SOL    HW169941   6.361   6.399   5.066
19293SOL    HW269942   6.416   6.245   5.062
19294SOL     OW69943   5.596   7.340   5.086
19294SOL    HW169944   5.604   7.440   5.084
19294SOL    HW269945   5.572   7.311   5.179
19295SOL     OW69946   6.377   6.359   4.080
19295SOL    HW169947   6.288   6.387   4.045
19295SOL    HW269948   6.418   6.293   4.016
19296SOL     OW69949   5.896   7.275   3.890
19296SOL    HW169950   5.988   7.305   3.865
19296SOL    HW269951   5.871   7.314   3.979
19297SOL     OW69952   6.872   7.297   4.827
19297SOL    HW169953   6.891   7.360   4.753
19297SOL    HW269954   6.880   7.203   4.794
19298SOL     OW69955   5.577   6.692   4.639
19298SOL    HW169956   5.487   6.708   4.600
19298SOL    HW269957   5.575   6.608   4.694
19299SOL     OW69958   6.328   5.597   4.089
19299SOL    HW169959   6.289   5.586   3.998
19299SOL    HW269960   6.284   5.673   4.136
19300SOL     OW69961   5.573   6.733   4.183
19300SOL    HW169962   5.651   6.791   4.207
19300SOL    HW269963   5.592   6.684   4.098
19301SOL     OW69964   7.103   5.861   5.267
19301SOL    HW169965   7.042   5.939   5.264
19301SOL    HW269966   7.158   5.865   5.350
19302SOL     OW69967   6.819   5.807   4.558
19302SOL    HW169968   6.818   5.885   4.495
19302SOL    HW269969   6.862   5.834   4.644
19303SOL     OW69970   6.939   5.613   3.854
19303SOL    HW169971   7.019   5.553   3.851
19303SOL    HW269972   6.865   5.566   3.902
19304SOL     OW69973   7.152   5.585   5.288
19304SOL    HW169974   7.178   5.542   5.202
19304SOL    HW269975   7.102   5.669   5.270
19305SOL     OW69976   6.254   5.844   4.420
19305SOL    HW169977   6.243   5.786   4.501
19305SOL    HW269978   6.339   5.896   4.428
19306SOL     OW69979   6.834   6.195   4.812
19306SOL    HW169980   6.888   6.235   4.738
19306SOL    HW269981   6.872   6.224   4.900
19307SOL     OW69982   7.127   5.601   4.128
19307SOL    HW169983   7.134   5.555   4.040
19307SOL    HW269984   7.031   5.611   4.153
19308SOL     OW69985   5.640   6.938   4.797
19308SOL    HW169986   5.609   6.864   4.738
19308SOL    HW269987   5.572   6.956   4.868
19309SOL     OW69988   7.326   6.166   5.366
19309SOL    HW169989   7.315   6.252   5.315
19309SOL    HW269990   7.420   6.157   5.396
19310SOL     OW69991   6.897   5.939   4.785
19310SOL    HW169992   6.871   6.036   4.791
19310SOL    HW269993   6.897   5.899   4.877
19311SOL     OW69994   7.127   6.071   5.536
19311SOL    HW169995   7.207   6.096   5.480
19311SOL    HW269996   7.158   6.036   5.624
19312SOL     OW69997   7.135   6.470   4.336
19312SOL    HW169998   7.149   6.433   4.243
19312SOL    HW269999   7.046   6.440   4.370
19313SOL     OW70000   7.291   6.407   5.231
19313SOL    HW170001   7.193   6.428   5.233
19313SOL    HW270002   7.340   6.483   5.190
19314SOL     OW70003   7.145   5.827   3.910
19314SOL    HW170004   7.150   5.869   4.001
19314SOL    HW270005   7.078   5.752   3.912
19315SOL     OW70006   6.292   7.042   5.130
19315SOL    HW170007   6.229   7.120   5.137
19315SOL    HW270008   6.260   6.980   5.058
19316SOL     OW70009   5.683   5.837   5.395
19316SOL    HW170010   5.701   5.826   5.297
19316SOL    HW270011   5.585   5.833   5.412
19317SOL     OW70012   5.563   7.251   5.339
19317SOL    HW170013   5.635   7.237   5.407
19317SOL    HW270014   5.474   7.254   5.384
19318SOL     OW70015   5.731   5.907   4.363
19318SOL    HW170016   5.674   5.962   4.424
19318SOL    HW270017   5.801   5.859   4.416
19319SOL     OW70018   6.903   7.139   5.226
19319SOL    HW170019   6.856   7.207   5.281
19319SOL    HW270020   6.970   7.185   5.167
19320SOL     OW70021   5.868   6.098   3.961
19320SOL    HW170022   5.940   6.127   3.898
19320SOL    HW270023   5.824   6.178   4.001
19321SOL     OW70024   7.254   5.760   5.064
19321SOL    HW170025   7.210   5.808   5.140
19321SOL    HW270026   7.232   5.806   4.978
19322SOL     OW70027   5.983   7.361   4.427
19322SOL    HW170028   5.907   7.327   4.372
19322SOL    HW270029   6.069   7.324   4.392
19323SOL     OW70030   5.908   6.870   4.872
19323SOL    HW170031   5.920   6.886   4.969
19323SOL    HW270032   5.821   6.910   4.842
19324SOL     OW70033   6.792   7.074   5.518
19324SOL    HW170034   6.751   6.989   5.484
19324SOL    HW270035   6.772   7.148   5.454
19325SOL     OW70036   6.282   6.794   4.208
19325SOL    HW170037   6.325   6.725   4.150
19325SOL    HW270038   6.246   6.751   4.291
19326SOL     OW70039   5.914   6.345   4.410
19326SOL    HW170040   5.906   6.443   4.428
19326SOL    HW270041   5.998   6.311   4.451
19327SOL     OW70042   5.760   5.825   3.925
19327SOL    HW170043   5.804   5.794   3.842
19327SOL    HW270044   5.761   5.925   3.929
19328SOL     OW70045   5.613   6.077   4.536
19328SOL    HW170046   5.577   6.170   4.528
19328SOL    HW270047   5.696   6.078   4.592
19329SOL     OW70048   6.048   6.664   3.922
19329SOL    HW170049   6.148   6.664   3.933
19329SOL    HW270050   6.017   6.757   3.901
19330SOL     OW70051   6.674   6.256   3.738
19330SOL    HW170052   6.605   6.313   3.694
19330SOL    HW270053   6.755   6.250   3.679
19331SOL     OW70054   6.409   6.175   3.881
19331SOL    HW170055   6.499   6.176   3.836
19331SOL    HW270056   6.386   6.081   3.906
19332SOL     OW70057   6.860   5.692   4.175
19332SOL    HW170058   6.770   5.676   4.216
19332SOL    HW270059   6.868   5.788   4.149
19333SOL     OW70060   6.974   6.092   5.191
19333SOL    HW170061   6.926   6.115   5.275
19333SOL    HW270062   6.908   6.062   5.122
19334SOL     OW70063   5.609   5.607   3.835
19334SOL    HW170064   5.672   5.530   3.843
19334SOL    HW270065   5.629   5.675   3.906
19335SOL     OW70066   6.306   6.564   5.175
19335SOL    HW170067   6.375   6.616   5.125
19335SOL    HW270068   6.301   6.597   5.270
19336SOL     OW70069   6.698   6.585   5.335
19336SOL    HW170070   6.620   6.531   5.368
19336SOL    HW270071   6.779   6.563   5.390
19337SOL     OW70072   6.627   5.767   4.331
19337SOL    HW170073   6.686   5.827   4.386
19337SOL    HW270074   6.554   5.731   4.388
19338SOL     OW70075   6.737   7.299   5.371
19338SOL    HW170076   6.642   7.297   5.339
19338SOL    HW270077   6.758   7.390   5.408
19339SOL     OW70078   5.855   7.309   4.969
19339SOL    HW170079   5.835   7.291   4.873
19339SOL    HW270080   5.782   7.271   5.026
19340SOL     OW70081   6.548   6.773   4.514
19340SOL    HW170082   6.587   6.816   4.433
19340SOL    HW270083   6.621   6.756   4.581
19341SOL     OW70084   6.242   6.501   4.716
19341SOL    HW170085   6.240   6.417   4.661
19341SOL    HW270086   6.191   6.487   4.801
19342SOL     OW70087   5.809   5.556   4.122
19342SOL    HW170088   5.847   5.644   4.149
19342SOL    HW270089   5.732   5.532   4.182
19343SOL     OW70090   6.225   6.173   5.450
19343SOL    HW170091   6.177   6.224   5.379
19343SOL    HW270092   6.318   6.152   5.420
19344SOL     OW70093   5.631   6.643   3.942
19344SOL    HW170094   5.621   6.546   3.921
19344SOL    HW270095   5.684   6.688   3.870
19345SOL     OW70096   7.328   5.755   4.543
19345SOL    HW170097   7.283   5.737   4.630
19345SOL    HW270098   7.426   5.772   4.559
19346SOL     OW70099   6.376   6.731   4.795
19346SOL    HW170100   6.327   6.646   4.776
19346SOL    HW270101   6.446   6.746   4.726
19347SOL     OW70102   7.075   6.969   5.331
19347SOL    HW170103   7.060   6.871   5.345
19347SOL    HW270104   6.992   7.011   5.295
19348SOL     OW70105   6.334   7.037   3.729
19348SOL    HW170106   6.309   7.114   3.788
19348SOL    HW270107   6.398   6.977   3.777
19349SOL     OW70108   6.152   7.244   4.763
19349SOL    HW170109   6.172   7.214   4.670
19349SOL    HW270110   6.077   7.189   4.800
19350SOL     OW70111   6.295   6.655   4.480
19350SOL    HW170112   6.384   6.701   4.480
19350SOL    HW270113   6.288   6.595   4.559
19351SOL     OW70114   6.473   7.002   4.149
19351SOL    HW170115   6.523   6.990   4.064
19351SOL    HW270116   6.419   6.919   4.168
19352SOL     OW70117   5.663   6.349   4.549
19352SOL    HW170118   5.758   6.340   4.517
19352SOL    HW270119   5.629   6.441   4.528
19353SOL     OW70120   5.600   6.466   5.476
19353SOL    HW170121   5.515   6.417   5.457
19353SOL    HW270122   5.627   6.453   5.571
19354SOL     OW70123   6.497   7.375   5.182
19354SOL    HW170124   6.469   7.288   5.223
19354SOL    HW270125   6.441   7.449   5.219
19355SOL     OW70126   6.726   6.722   4.712
19355SOL    HW170127   6.710   6.816   4.743
19355SOL    HW270128   6.729   6.661   4.792
19356SOL     OW70129   6.000   5.993   5.476
19356SOL    HW170130   6.036   5.940   5.399
19356SOL    HW270131   6.061   6.070   5.494
19357SOL     OW70132   6.064   6.410   4.048
19357SOL    HW170133   6.014   6.475   3.992
19357SOL    HW270134   6.006   6.331   4.067
19358SOL     OW70135   7.145   6.441   4.746
19358SOL    HW170136   7.164   6.480   4.655
19358SOL    HW270137   7.099   6.510   4.802
19359SOL     OW70138   6.837   5.884   5.042
19359SOL    HW170139   6.908   5.856   5.106
19359SOL    HW270140   6.784   5.804   5.014
19360SOL     OW70141   5.538   5.583   4.243
19360SOL    HW170142   5.451   5.570   4.196
19360SOL    HW270143   5.546   5.678   4.273
19361SOL     OW70144   6.759   5.684   5.484
19361SOL    HW170145   6.818   5.700   5.564
19361SOL    HW270146   6.706   5.767   5.465
19362SOL     OW70147   7.331   6.990   5.250
19362SOL    HW170148   7.359   7.083   5.272
19362SOL    HW270149   7.238   6.974   5.283
19363SOL     OW70150   6.581   6.103   4.800
19363SOL    HW170151   6.667   6.154   4.799
19363SOL    HW270152   6.587   6.029   4.867
19364SOL     OW70153   5.985   7.049   4.372
19364SOL    HW170154   5.983   6.950   4.385
19364SOL    HW270155   5.894   7.082   4.349
19365SOL     OW70156   6.626   7.166   4.960
19365SOL    HW170157   6.552   7.230   4.978
19365SOL    HW270158   6.705   7.215   4.922
19366SOL     OW70159   5.784   7.197   4.734
19366SOL    HW170160   5.726   7.117   4.748
19366SOL    HW270161   5.808   7.204   4.637
19367SOL     OW70162   6.592   6.724   4.105
19367SOL    HW170163   6.672   6.760   4.153
19367SOL    HW270164   6.550   6.651   4.161
19368SOL     OW70165   7.183   5.991   4.469
19368SOL    HW170166   7.202   6.077   4.516
19368SOL    HW270167   7.251   5.922   4.497
19369SOL     OW70168   6.326   6.663   3.955
19369SOL    HW170169   6.398   6.722   3.920
19369SOL    HW270170   6.366   6.579   3.991
19370SOL     OW70171   6.397   5.639   3.807
19370SOL    HW170172   6.472   5.573   3.819
19370SOL    HW270173   6.428   5.730   3.835
19371SOL     OW70174   7.286   6.669   5.042
19371SOL    HW170175   7.300   6.767   5.056
19371SOL    HW270176   7.343   6.638   4.966
19372SOL     OW70177   5.769   6.778   3.734
19372SOL    HW170178   5.761   6.790   3.635
19372SOL    HW270179   5.828   6.849   3.772
19373SOL     OW70180   6.196   7.217   3.894
19373SOL    HW170181   6.171   7.312   3.878
19373SOL    HW270182   6.163   7.189   3.984
19374SOL     OW70183   6.846   6.640   5.118
19374SOL    HW170184   6.790   6.599   5.189
19374SOL    HW270185   6.826   6.738   5.112
19375SOL     OW70186   6.113   7.256   5.118
19375SOL    HW170187   6.162   7.336   5.082
19375SOL    HW270188   6.021   7.254   5.079
19376SOL     OW70189   5.756   6.137   5.480
19376SOL    HW170190   5.773   6.038   5.485
19376SOL    HW270191   5.820   6.185   5.541
19377SOL     OW70192   7.195   7.098   4.719
19377SOL    HW170193   7.167   7.191   4.743
19377SOL    HW270194   7.245   7.057   4.795
19378SOL     OW70195   5.591   6.471   4.280
19378SOL    HW170196   5.598   6.570   4.267
19378SOL    HW270197   5.500   6.448   4.314
19379SOL     OW70198   7.167   6.645   4.530
19379SOL    HW170199   7.129   6.734   4.503
19379SOL    HW270200   7.167   6.583   4.452
19380SOL     OW70201   6.325   6.051   4.699
19380SOL    HW170202   6.417   6.079   4.726
19380SOL    HW270203   6.257   6.102   4.753
19381SOL     OW70204   6.178   6.902   4.926
19381SOL    HW170205   6.091   6.901   4.877
19381SOL    HW270206   6.244   6.842   4.879
19382SOL     OW70207   7.158   7.206   5.486
19382SOL    HW170208   7.127   7.128   5.431
19382SOL    HW270209   7.127   7.291   5.444
19383SOL     OW70210   6.866   6.744   4.207
19383SOL    HW170211   6.965   6.748   4.223
19383SOL    HW270212   6.849   6.730   4.109
19384SOL     OW70213   6.219   5.910   4.155
19384SOL    HW170214   6.121   5.904   4.135
19384SOL    HW270215   6.238   5.867   4.243
19385SOL     OW70216   7.139   5.593   4.414
19385SOL    HW170217   7.134   5.634   4.323
19385SOL    HW270218   7.220   5.627   4.461
19386SOL     OW70219   6.742   6.349   5.107
19386SOL    HW170220   6.841   6.358   5.097
19386SOL    HW270221   6.698   6.351   5.017
19387SOL     OW70222   6.236   6.309   4.509
19387SOL    HW170223   6.258   6.231   4.567
19387SOL    HW270224   6.245   6.283   4.413
19388SOL     OW70225   6.901   7.016   4.721
19388SOL    HW170226   6.815   6.973   4.750
19388SOL    HW270227   6.890   7.056   4.630
19389SOL     OW70228   6.631   7.017   6.228
19389SOL    HW170229   6.722   7.051   6.251
19389SOL    HW270230   6.603   7.055   6.140
19390SOL     OW70231   7.142   6.813   6.086
19390SOL    HW170232   7.153   6.897   6.140
19390SOL    HW270233   7.232   6.776   6.063
19391SOL     OW70234   7.222   6.095   6.950
19391SOL    HW170235   7.124   6.087   6.972
19391SOL    HW270236   7.275   6.084   7.034
19392SOL     OW70237   5.889   5.732   5.555
19392SOL    HW170238   5.802   5.729   5.506
19392SOL    HW270239   5.940   5.814   5.527
19393SOL     OW70240   6.876   7.121   6.330
19393SOL    HW170241   6.865   7.218   6.353
19393SOL    HW270242   6.969   7.104   6.300
19394SOL     OW70243   6.754   5.632   6.888
19394SOL    HW170244   6.678   5.587   6.935
19394SOL    HW270245   6.783   5.577   6.810
19395SOL     OW70246   6.492   6.412   7.265
19395SOL    HW170247   6.457   6.387   7.175
19395SOL    HW270248   6.416   6.433   7.326
19396SOL     OW70249   6.117   5.619   5.681
19396SOL    HW170250   6.205   5.647   5.642
19396SOL    HW270251   6.045   5.682   5.651
19397SOL     OW70252   7.087   6.604   7.064
19397SOL    HW170253   6.995   6.609   7.026
19397SOL    HW270254   7.152   6.642   6.998
19398SOL     OW70255   6.987   6.611   6.745
19398SOL    HW170256   6.912   6.600   6.810
19398SOL    HW270257   7.024   6.704   6.751
19399SOL     OW70258   6.483   6.866   7.045
19399SOL    HW170259   6.426   6.929   6.991
19399SOL    HW270260   6.516   6.792   6.986
19400SOL     OW70261   6.026   6.759   6.254
19400SOL    HW170262   5.959   6.713   6.313
19400SOL    HW270263   6.118   6.727   6.277
19401SOL     OW70264   6.253   6.165   6.085
19401SOL    HW170265   6.292   6.235   6.026
19401SOL    HW270266   6.227   6.085   6.031
19402SOL     OW70267   6.873   6.073   7.294
19402SOL    HW170268   6.969   6.077   7.320
19402SOL    HW270269   6.829   5.997   7.341
19403SOL     OW70270   6.107   5.884   6.548
19403SOL    HW170271   6.183   5.949   6.544
19403SOL    HW270272   6.137   5.795   6.515
19404SOL     OW70273   5.804   6.310   5.966
19404SOL    HW170274   5.819   6.244   6.040
19404SOL    HW270275   5.754   6.389   6.001
19405SOL     OW70276   6.390   7.255   6.143
19405SOL    HW170277   6.455   7.188   6.107
19405SOL    HW270278   6.380   7.331   6.079
19406SOL     OW70279   7.282   7.137   5.885
19406SOL    HW170280   7.378   7.111   5.878
19406SOL    HW270281   7.258   7.197   5.809
19407SOL     OW70282   7.194   5.830   6.656
19407SOL    HW170283   7.245   5.902   6.609
19407SOL    HW270284   7.099   5.857   6.665
19408SOL     OW70285   6.594   5.859   5.925
19408SOL    HW170286   6.619   5.953   5.946
19408SOL    HW270287   6.595   5.805   6.009
19409SOL     OW70288   5.718   6.572   7.110
19409SOL    HW170289   5.814   6.587   7.128
19409SOL    HW270290   5.680   6.510   7.179
19410SOL     OW70291   6.044   6.217   5.653
19410SOL    HW170292   6.004   6.296   5.606
19410SOL    HW270293   6.133   6.196   5.613
19411SOL     OW70294   6.217   7.141   6.351
19411SOL    HW170295   6.290   7.164   6.287
19411SOL    HW270296   6.146   7.088   6.305
19412SOL     OW70297   6.559   6.173   7.105
19412SOL    HW170298   6.592   6.090   7.152
19412SOL    HW270299   6.632   6.241   7.104
19413SOL     OW70300   7.163   6.973   6.327
19413SOL    HW170301   7.159   7.008   6.420
19413SOL    HW270302   7.222   7.032   6.271
19414SOL     OW70303   5.894   6.794   6.003
19414SOL    HW170304   5.940   6.768   6.088
19414SOL    HW270305   5.914   6.726   5.932
19415SOL     OW70306   6.752   5.849   5.714
19415SOL    HW170307   6.846   5.819   5.732
19415SOL    HW270308   6.700   5.849   5.800
19416SOL     OW70309   5.904   6.054   6.809
19416SOL    HW170310   5.894   5.967   6.761
19416SOL    HW270311   5.840   6.121   6.772
19417SOL     OW70312   6.986   6.334   6.847
19417SOL    HW170313   6.990   6.428   6.812
19417SOL    HW270314   7.079   6.303   6.869
19418SOL     OW70315   5.939   5.826   5.968
19418SOL    HW170316   5.893   5.866   6.047
19418SOL    HW270317   5.887   5.845   5.886
19419SOL     OW70318   7.067   7.353   6.880
19419SOL    HW170319   7.010   7.304   6.814
19419SOL    HW270320   7.153   7.380   6.837
19420SOL     OW70321   7.362   6.071   6.735
19420SOL    HW170322   7.419   6.153   6.737
19420SOL    HW270323   7.303   6.070   6.815
19421SOL     OW70324   7.379   7.297   6.648
19421SOL    HW170325   7.425   7.307   6.736
19421SOL    HW270326   7.446   7.300   6.575
19422SOL     OW70327   6.492   6.037   6.210
19422SOL    HW170328   6.568   6.065   6.269
19422SOL    HW270329   6.448   6.117   6.171
19423SOL     OW70330   6.727   6.501   5.727
19423SOL    HW170331   6.764   6.451   5.805
19423SOL    HW270332   6.657   6.446   5.682
19424SOL     OW70333   6.569   5.923   7.348
19424SOL    HW170334   6.632   5.928   7.425
19424SOL    HW270335   6.477   5.901   7.381
19425SOL     OW70336   7.310   6.170   5.806
19425SOL    HW170337   7.331   6.089   5.752
19425SOL    HW270338   7.327   6.151   5.903
19426SOL     OW70339   6.604   7.308   5.714
19426SOL    HW170340   6.638   7.221   5.679
19426SOL    HW270341   6.572   7.296   5.808
19427SOL     OW70342   6.285   5.575   7.246
19427SOL    HW170343   6.292   5.481   7.213
19427SOL    HW270344   6.342   5.585   7.328
19428SOL     OW70345   7.208   6.176   6.514
19428SOL    HW170346   7.193   6.267   6.551
19428SOL    HW270347   7.278   6.129   6.568
19429SOL     OW70348   6.618   6.842   7.280
19429SOL    HW170349   6.640   6.752   7.242
19429SOL    HW270350   6.553   6.889   7.221
19430SOL     OW70351   6.273   6.684   7.284
19430SOL    HW170352   6.244   6.761   7.341
19430SOL    HW270353   6.283   6.603   7.342
19431SOL     OW70354   6.908   5.548   6.390
19431SOL    HW170355   6.857   5.632   6.372
19431SOL    HW270356   6.994   5.550   6.339
19432SOL     OW70357   7.263   5.754   7.319
19432SOL    HW170358   7.240   5.775   7.414
19432SOL    HW270359   7.239   5.659   7.299
19433SOL     OW70360   5.566   6.158   6.063
19433SOL    HW170361   5.568   6.109   6.150
19433SOL    HW270362   5.568   6.257   6.081
19434SOL     OW70363   5.887   5.746   6.384
19434SOL    HW170364   5.939   5.786   6.459
19434SOL    HW270365   5.940   5.673   6.341
19435SOL     OW70366   5.871   5.794   6.718
19435SOL    HW170367   5.836   5.701   6.718
19435SOL    HW270368   5.958   5.797   6.669
19436SOL     OW70369   6.538   6.416   6.458
19436SOL    HW170370   6.564   6.496   6.404
19436SOL    HW270371   6.532   6.336   6.398
19437SOL     OW70372   7.021   6.912   6.791
19437SOL    HW170373   6.992   6.949   6.702
19437SOL    HW270374   6.943   6.912   6.853
19438SOL     OW70375   5.753   7.186   6.154
19438SOL    HW170376   5.669   7.237   6.172
19438SOL    HW270377   5.744   7.135   6.069
19439SOL     OW70378   7.274   6.983   6.829
19439SOL    HW170379   7.305   6.997   6.923
19439SOL    HW270380   7.175   6.970   6.828
19440SOL     OW70381   6.026   6.483   5.556
19440SOL    HW170382   5.995   6.517   5.468
19440SOL    HW270383   6.030   6.558   5.622
19441SOL     OW70384   6.543   6.670   6.855
19441SOL    HW170385   6.593   6.585   6.839
19441SOL    HW270386   6.497   6.697   6.770
19442SOL     OW70387   5.630   6.375   5.729
19442SOL    HW170388   5.690   6.322   5.789
19442SOL    HW270389   5.536   6.343   5.741
19443SOL     OW70390   7.150   6.373   5.929
19443SOL    HW170391   7.218   6.307   5.896
19443SOL    HW270392   7.165   6.461   5.885
19444SOL     OW70393   6.398   7.360   6.577
19444SOL    HW170394   6.444   7.293   6.519
19444SOL    HW270395   6.324   7.316   6.627
19445SOL     OW70396   6.305   6.429   5.613
19445SOL    HW170397   6.334   6.348   5.664
19445SOL    HW270398   6.205   6.428   5.604
19446SOL     OW70399   6.901   5.961   5.959
19446SOL    HW170400   6.838   6.019   5.907
19446SOL    HW270401   6.994   5.995   5.947
19447SOL     OW70402   5.798   6.162   7.059
19447SOL    HW170403   5.818   6.067   7.034
19447SOL    HW270404   5.761   6.165   7.152
19448SOL     OW70405   5.680   5.817   6.949
19448SOL    HW170406   5.752   5.827   6.880
19448SOL    HW270407   5.591   5.816   6.904
19449SOL     OW70408   6.578   6.438   6.714
19449SOL    HW170409   6.572   6.424   6.615
19449SOL    HW270410   6.497   6.399   6.758
19450SOL     OW70411   7.169   5.972   6.029
19450SOL    HW170412   7.265   5.943   6.026
19450SOL    HW270413   7.130   5.950   6.118
19451SOL     OW70414   6.453   7.047   6.466
19451SOL    HW170415   6.511   7.058   6.385
19451SOL    HW270416   6.359   7.071   6.444
19452SOL     OW70417   6.403   5.913   5.751
19452SOL    HW170418   6.312   5.926   5.789
19452SOL    HW270419   6.463   5.873   5.821
19453SOL     OW70420   6.514   6.858   5.686
19453SOL    HW170421   6.567   6.798   5.746
19453SOL    HW270422   6.553   6.859   5.595
19454SOL     OW70423   7.265   7.153   6.171
19454SOL    HW170424   7.232   7.246   6.190
19454SOL    HW270425   7.263   7.137   6.072
19455SOL     OW70426   6.680   6.426   6.160
19455SOL    HW170427   6.745   6.454   6.231
19455SOL    HW270428   6.601   6.487   6.162
19456SOL     OW70429   6.428   7.152   7.184
19456SOL    HW170430   6.416   7.083   7.113
19456SOL    HW270431   6.391   7.117   7.271
19457SOL     OW70432   6.872   6.466   6.363
19457SOL    HW170433   6.893   6.408   6.441
19457SOL    HW270434   6.881   6.562   6.389
19458SOL     OW70435   5.828   6.595   6.409
19458SOL    HW170436   5.751   6.657   6.402
19458SOL    HW270437   5.865   6.596   6.502
19459SOL     OW70438   6.461   6.543   6.108
19459SOL    HW170439   6.448   6.454   6.065
19459SOL    HW270440   6.392   6.557   6.179
19460SOL     OW70441   6.765   6.931   6.947
19460SOL    HW170442   6.798   7.016   6.988
19460SOL    HW270443   6.666   6.927   6.954
19461SOL     OW70444   5.572   5.848   6.011
19461SOL    HW170445   5.632   5.799   5.949
19461SOL    HW270446   5.627   5.900   6.076
19462SOL     OW70447   7.195   7.346   5.702
19462SOL    HW170448   7.285   7.390   5.704
19462SOL    HW270449   7.194   7.277   5.630
19463SOL     OW70450   6.359   6.313   6.860
19463SOL    HW170451   6.361   6.399   6.911
19463SOL    HW270452   6.416   6.245   6.907
19464SOL     OW70453   6.377   6.359   5.925
19464SOL    HW170454   6.288   6.387   5.890
19464SOL    HW270455   6.418   6.293   5.861
19465SOL     OW70456   5.899   6.077   6.464
19465SOL    HW170457   5.955   6.070   6.381
19465SOL    HW270458   5.956   6.055   6.544
19466SOL     OW70459   6.872   7.297   6.672
19466SOL    HW170460   6.891   7.360   6.598
19466SOL    HW270461   6.880   7.203   6.639
19467SOL     OW70462   6.328   5.597   5.934
19467SOL    HW170463   6.289   5.586   5.843
19467SOL    HW270464   6.284   5.673   5.981
19468SOL     OW70465   5.573   6.733   6.028
19468SOL    HW170466   5.651   6.791   6.052
19468SOL    HW270467   5.592   6.684   5.943
19469SOL     OW70468   7.103   5.861   7.112
19469SOL    HW170469   7.042   5.939   7.109
19469SOL    HW270470   7.158   5.865   7.195
19470SOL     OW70471   6.819   5.807   6.403
19470SOL    HW170472   6.818   5.885   6.340
19470SOL    HW270473   6.862   5.834   6.489
19471SOL     OW70474   6.939   5.613   5.699
19471SOL    HW170475   7.019   5.553   5.696
19471SOL    HW270476   6.865   5.566   5.747
19472SOL     OW70477   7.152   5.585   7.133
19472SOL    HW170478   7.178   5.542   7.047
19472SOL    HW270479   7.102   5.669   7.115
19473SOL     OW70480   6.254   5.844   6.265
19473SOL    HW170481   6.243   5.786   6.346
19473SOL    HW270482   6.339   5.896   6.273
19474SOL     OW70483   6.834   6.195   6.657
19474SOL    HW170484   6.888   6.235   6.583
19474SOL    HW270485   6.872   6.224   6.745
19475SOL     OW70486   7.127   5.601   5.973
19475SOL    HW170487   7.134   5.555   5.885
19475SOL    HW270488   7.031   5.611   5.998
19476SOL     OW70489   6.103   6.916   7.336
19476SOL    HW170490   6.064   6.979   7.269
19476SOL    HW270491   6.186   6.956   7.376
19477SOL     OW70492   5.979   6.648   7.168
19477SOL    HW170493   5.998   6.672   7.073
19477SOL    HW270494   5.972   6.731   7.223
19478SOL     OW70495   6.726   6.139   6.375
19478SOL    HW170496   6.808   6.116   6.323
19478SOL    HW270497   6.721   6.080   6.456
19479SOL     OW70498   6.897   5.939   6.630
19479SOL    HW170499   6.871   6.036   6.636
19479SOL    HW270500   6.897   5.899   6.722
19480SOL     OW70501   7.127   6.071   7.381
19480SOL    HW170502   7.207   6.096   7.325
19480SOL    HW270503   7.158   6.036   7.469
19481SOL     OW70504   6.838   6.374   5.961
19481SOL    HW170505   6.784   6.372   6.045
19481SOL    HW270506   6.915   6.437   5.972
19482SOL     OW70507   7.135   6.470   6.181
19482SOL    HW170508   7.149   6.433   6.088
19482SOL    HW270509   7.046   6.440   6.215
19483SOL     OW70510   7.291   6.407   7.076
19483SOL    HW170511   7.193   6.428   7.078
19483SOL    HW270512   7.340   6.483   7.035
19484SOL     OW70513   7.145   5.827   5.755
19484SOL    HW170514   7.150   5.869   5.846
19484SOL    HW270515   7.078   5.752   5.757
19485SOL     OW70516   6.292   7.042   6.975
19485SOL    HW170517   6.229   7.120   6.982
19485SOL    HW270518   6.260   6.980   6.903
19486SOL     OW70519   5.683   5.837   7.240
19486SOL    HW170520   5.701   5.826   7.142
19486SOL    HW270521   5.585   5.833   7.257
19487SOL     OW70522   5.563   7.251   7.184
19487SOL    HW170523   5.635   7.237   7.252
19487SOL    HW270524   5.474   7.254   7.229
19488SOL     OW70525   5.731   5.907   6.208
19488SOL    HW170526   5.674   5.962   6.269
19488SOL    HW270527   5.801   5.859   6.261
19489SOL     OW70528   6.903   7.139   7.071
19489SOL    HW170529   6.856   7.207   7.126
19489SOL    HW270530   6.970   7.185   7.012
19490SOL     OW70531   5.868   6.098   5.806
19490SOL    HW170532   5.940   6.127   5.743
19490SOL    HW270533   5.824   6.178   5.846
19491SOL     OW70534   7.254   5.760   6.909
19491SOL    HW170535   7.210   5.808   6.985
19491SOL    HW270536   7.232   5.806   6.823
19492SOL     OW70537   5.983   7.361   6.272
19492SOL    HW170538   5.907   7.327   6.217
19492SOL    HW270539   6.069   7.324   6.237
19493SOL     OW70540   5.908   6.870   6.717
19493SOL    HW170541   5.920   6.886   6.814
19493SOL    HW270542   5.821   6.910   6.687
19494SOL     OW70543   6.792   7.074   7.363
19494SOL    HW170544   6.751   6.989   7.329
19494SOL    HW270545   6.772   7.148   7.299
19495SOL     OW70546   6.282   6.794   6.053
19495SOL    HW170547   6.325   6.725   5.995
19495SOL    HW270548   6.246   6.751   6.136
19496SOL     OW70549   5.914   6.345   6.255
19496SOL    HW170550   5.906   6.443   6.273
19496SOL    HW270551   5.998   6.311   6.296
19497SOL     OW70552   5.760   5.825   5.770
19497SOL    HW170553   5.804   5.794   5.687
19497SOL    HW270554   5.761   5.925   5.774
19498SOL     OW70555   5.613   6.077   6.381
19498SOL    HW170556   5.577   6.170   6.373
19498SOL    HW270557   5.696   6.078   6.437
19499SOL     OW70558   6.674   6.256   5.583
19499SOL    HW170559   6.605   6.313   5.539
19499SOL    HW270560   6.755   6.250   5.524
19500SOL     OW70561   6.409   6.175   5.726
19500SOL    HW170562   6.499   6.176   5.681
19500SOL    HW270563   6.386   6.081   5.751
19501SOL     OW70564   6.860   5.692   6.020
19501SOL    HW170565   6.770   5.676   6.061
19501SOL    HW270566   6.868   5.788   5.994
19502SOL     OW70567   6.974   6.092   7.036
19502SOL    HW170568   6.926   6.115   7.120
19502SOL    HW270569   6.908   6.062   6.967
19503SOL     OW70570   5.609   5.607   5.680
19503SOL    HW170571   5.672   5.530   5.688
19503SOL    HW270572   5.629   5.675   5.751
19504SOL     OW70573   5.882   6.582   6.681
19504SOL    HW170574   5.893   6.537   6.770
19504SOL    HW270575   5.909   6.678   6.688
19505SOL     OW70576   7.181   6.594   5.781
19505SOL    HW170577   7.252   6.664   5.783
19505SOL    HW270578   7.168   6.564   5.686
19506SOL     OW70579   6.163   6.195   6.703
19506SOL    HW170580   6.238   6.238   6.752
19506SOL    HW270581   6.096   6.160   6.769
19507SOL     OW70582   6.306   6.564   7.020
19507SOL    HW170583   6.375   6.616   6.970
19507SOL    HW270584   6.301   6.597   7.115
19508SOL     OW70585   6.698   6.585   7.180
19508SOL    HW170586   6.620   6.531   7.213
19508SOL    HW270587   6.779   6.563   7.235
19509SOL     OW70588   6.627   5.767   6.176
19509SOL    HW170589   6.686   5.827   6.231
19509SOL    HW270590   6.554   5.731   6.233
19510SOL     OW70591   6.737   7.299   7.216
19510SOL    HW170592   6.642   7.297   7.184
19510SOL    HW270593   6.758   7.390   7.253
19511SOL     OW70594   6.155   5.644   6.447
19511SOL    HW170595   6.083   5.577   6.433
19511SOL    HW270596   6.237   5.598   6.482
19512SOL     OW70597   6.548   6.773   6.359
19512SOL    HW170598   6.587   6.816   6.278
19512SOL    HW270599   6.621   6.756   6.426
19513SOL     OW70600   6.242   6.501   6.561
19513SOL    HW170601   6.240   6.417   6.506
19513SOL    HW270602   6.191   6.487   6.646
19514SOL     OW70603   5.581   6.511   6.687
19514SOL    HW170604   5.670   6.489   6.727
19514SOL    HW270605   5.526   6.427   6.683
19515SOL     OW70606   5.809   5.556   5.967
19515SOL    HW170607   5.847   5.644   5.994
19515SOL    HW270608   5.732   5.532   6.027
19516SOL     OW70609   6.225   6.173   7.295
19516SOL    HW170610   6.177   6.224   7.224
19516SOL    HW270611   6.318   6.152   7.265
19517SOL     OW70612   7.328   5.755   6.388
19517SOL    HW170613   7.283   5.737   6.475
19517SOL    HW270614   7.426   5.772   6.404
19518SOL     OW70615   6.376   6.731   6.640
19518SOL    HW170616   6.327   6.646   6.621
19518SOL    HW270617   6.446   6.746   6.571
19519SOL     OW70618   6.714   6.154   5.849
19519SOL    HW170619   6.766   6.226   5.895
19519SOL    HW270620   6.727   6.161   5.751
19520SOL     OW70621   7.075   6.969   7.176
19520SOL    HW170622   7.060   6.871   7.190
19520SOL    HW270623   6.992   7.011   7.140
19521SOL     OW70624   5.832   6.411   6.916
19521SOL    HW170625   5.796   6.321   6.942
19521SOL    HW270626   5.793   6.481   6.976
19522SOL     OW70627   6.334   7.037   5.574
19522SOL    HW170628   6.309   7.114   5.633
19522SOL    HW270629   6.398   6.977   5.622
19523SOL     OW70630   6.152   7.244   6.608
19523SOL    HW170631   6.172   7.214   6.515
19523SOL    HW270632   6.077   7.189   6.645
19524SOL     OW70633   6.295   6.655   6.325
19524SOL    HW170634   6.384   6.701   6.325
19524SOL    HW270635   6.288   6.595   6.404
19525SOL     OW70636   6.473   7.002   5.994
19525SOL    HW170637   6.523   6.990   5.909
19525SOL    HW270638   6.419   6.919   6.013
19526SOL     OW70639   5.663   6.349   6.394
19526SOL    HW170640   5.758   6.340   6.362
19526SOL    HW270641   5.629   6.441   6.373
19527SOL     OW70642   5.600   6.466   7.321
19527SOL    HW170643   5.515   6.417   7.302
19527SOL    HW270644   5.627   6.453   7.416
19528SOL     OW70645   6.497   7.375   7.027
19528SOL    HW170646   6.469   7.288   7.068
19528SOL    HW270647   6.441   7.449   7.064
19529SOL     OW70648   6.726   6.722   6.557
19529SOL    HW170649   6.710   6.816   6.588
19529SOL    HW270650   6.729   6.661   6.637
19530SOL     OW70651   6.000   5.993   7.321
19530SOL    HW170652   6.036   5.940   7.244
19530SOL    HW270653   6.061   6.070   7.339
19531SOL     OW70654   6.064   6.410   5.893
19531SOL    HW170655   6.014   6.475   5.837
19531SOL    HW270656   6.006   6.331   5.912
19532SOL     OW70657   7.145   6.441   6.591
19532SOL    HW170658   7.164   6.480   6.500
19532SOL    HW270659   7.099   6.510   6.647
19533SOL     OW70660   6.837   5.884   6.887
19533SOL    HW170661   6.908   5.856   6.951
19533SOL    HW270662   6.784   5.804   6.859
19534SOL     OW70663   5.538   5.583   6.088
19534SOL    HW170664   5.451   5.570   6.041
19534SOL    HW270665   5.546   5.678   6.118
19535SOL     OW70666   6.759   5.684   7.329
19535SOL    HW170667   6.818   5.700   7.409
19535SOL    HW270668   6.706   5.767   7.310
19536SOL     OW70669   5.975   7.103   7.154
19536SOL    HW170670   5.917   7.168   7.203
19536SOL    HW270671   6.037   7.153   7.094
19537SOL     OW70672   7.331   6.990   7.095
19537SOL    HW170673   7.359   7.083   7.117
19537SOL    HW270674   7.238   6.974   7.128
19538SOL     OW70675   6.581   6.103   6.645
19538SOL    HW170676   6.667   6.154   6.644
19538SOL    HW270677   6.587   6.029   6.712
19539SOL     OW70678   5.985   7.049   6.217
19539SOL    HW170679   5.983   6.950   6.230
19539SOL    HW270680   5.894   7.082   6.194
19540SOL     OW70681   6.626   7.166   6.805
19540SOL    HW170682   6.552   7.230   6.823
19540SOL    HW270683   6.705   7.215   6.767
19541SOL     OW70684   5.835   7.296   7.304
19541SOL    HW170685   5.878   7.380   7.270
19541SOL    HW270686   5.860   7.283   7.400
19542SOL     OW70687   5.695   6.832   7.175
19542SOL    HW170688   5.674   6.737   7.148
19542SOL    HW270689   5.626   6.893   7.137
19543SOL     OW70690   5.784   7.197   6.579
19543SOL    HW170691   5.726   7.117   6.593
19543SOL    HW270692   5.808   7.204   6.482
19544SOL     OW70693   6.530   5.718   6.434
19544SOL    HW170694   6.626   5.719   6.462
19544SOL    HW270695   6.475   5.675   6.506
19545SOL     OW70696   6.592   6.724   5.950
19545SOL    HW170697   6.672   6.760   5.998
19545SOL    HW270698   6.550   6.651   6.006
19546SOL     OW70699   7.183   5.991   6.314
19546SOL    HW170700   7.202   6.077   6.361
19546SOL    HW270701   7.251   5.922   6.342
19547SOL     OW70702   6.326   6.663   5.800
19547SOL    HW170703   6.398   6.722   5.765
19547SOL    HW270704   6.366   6.579   5.836
19548SOL     OW70705   6.397   5.639   5.652
19548SOL    HW170706   6.472   5.573   5.664
19548SOL    HW270707   6.428   5.730   5.680
19549SOL     OW70708   6.076   6.068   6.264
19549SOL    HW170709   6.114   5.979   6.290
19549SOL    HW270710   6.143   6.118   6.209
19550SOL     OW70711   6.064   6.626   6.918
19550SOL    HW170712   6.160   6.606   6.938
19550SOL    HW270713   6.053   6.724   6.900
19551SOL     OW70714   7.286   6.669   6.887
19551SOL    HW170715   7.300   6.767   6.901
19551SOL    HW270716   7.343   6.638   6.811
19552SOL     OW70717   6.846   6.640   6.963
19552SOL    HW170718   6.790   6.599   7.034
19552SOL    HW270719   6.826   6.738   6.957
19553SOL     OW70720   6.113   7.256   6.963
19553SOL    HW170721   6.162   7.336   6.927
19553SOL    HW270722   6.021   7.254   6.924
19554SOL     OW70723   5.756   6.137   7.325
19554SOL    HW170724   5.773   6.038   7.330
19554SOL    HW270725   5.820   6.185   7.386
19555SOL     OW70726   7.195   7.098   6.564
19555SOL    HW170727   7.167   7.191   6.588
19555SOL    HW270728   7.245   7.057   6.640
19556SOL     OW70729   5.591   6.471   6.125
19556SOL    HW170730   5.598   6.570   6.112
19556SOL    HW270731   5.500   6.448   6.159
19557SOL     OW70732   6.100   6.269   7.063
19557SOL    HW170733   6.006   6.239   7.044
19557SOL    HW270734   6.109   6.366   7.040
19558SOL     OW70735   7.167   6.645   6.375
19558SOL    HW170736   7.129   6.734   6.348
19558SOL    HW270737   7.167   6.583   6.297
19559SOL     OW70738   6.325   6.051   6.544
19559SOL    HW170739   6.417   6.079   6.571
19559SOL    HW270740   6.257   6.102   6.598
19560SOL     OW70741   6.178   6.902   6.771
19560SOL    HW170742   6.091   6.901   6.722
19560SOL    HW270743   6.244   6.842   6.724
19561SOL     OW70744   5.744   6.244   6.685
19561SOL    HW170745   5.782   6.303   6.756
19561SOL    HW270746   5.727   6.297   6.603
19562SOL     OW70747   5.915   6.890   6.983
19562SOL    HW170748   5.934   6.978   7.027
19562SOL    HW270749   5.820   6.864   7.001
19563SOL     OW70750   7.158   7.206   7.331
19563SOL    HW170751   7.127   7.128   7.276
19563SOL    HW270752   7.127   7.291   7.289
19564SOL     OW70753   6.866   6.744   6.052
19564SOL    HW170754   6.965   6.748   6.068
19564SOL    HW270755   6.849   6.730   5.954
19565SOL     OW70756   6.219   5.910   6.000
19565SOL    HW170757   6.121   5.904   5.980
19565SOL    HW270758   6.238   5.867   6.088
19566SOL     OW70759   7.139   5.593   6.259
19566SOL    HW170760   7.134   5.634   6.168
19566SOL    HW270761   7.220   5.627   6.306
19567SOL     OW70762   6.742   6.349   6.952
19567SOL    HW170763   6.841   6.358   6.942
19567SOL    HW270764   6.698   6.351   6.862
19568SOL     OW70765   6.236   6.309   6.354
19568SOL    HW170766   6.258   6.231   6.412
19568SOL    HW270767   6.245   6.283   6.258
19569SOL     OW70768   6.901   7.016   6.566
19569SOL    HW170769   6.815   6.973   6.595
19569SOL    HW270770   6.890   7.056   6.475
19570SOL     OW70771   6.904   6.001   6.241
19570SOL    HW170772   6.903   5.993   6.142
19570SOL    HW270773   6.993   5.973   6.276
19571SOL     OW70774   6.631   7.017   8.074
19571SOL    HW170775   6.722   7.051   8.097
19571SOL    HW270776   6.603   7.055   7.986
19572SOL     OW70777   7.142   6.813   7.932
19572SOL    HW170778   7.153   6.897   7.986
19572SOL    HW270779   7.232   6.776   7.909
19573SOL     OW70780   7.222   6.095   8.796
19573SOL    HW170781   7.124   6.087   8.818
19573SOL    HW270782   7.275   6.084   8.880
19574SOL     OW70783   5.889   5.732   7.401
19574SOL    HW170784   5.802   5.729   7.352
19574SOL    HW270785   5.940   5.814   7.373
19575SOL     OW70786   6.876   7.121   8.176
19575SOL    HW170787   6.865   7.218   8.199
19575SOL    HW270788   6.969   7.104   8.146
19576SOL     OW70789   6.754   5.632   8.734
19576SOL    HW170790   6.678   5.587   8.781
19576SOL    HW270791   6.783   5.577   8.656
19577SOL     OW70792   6.099   7.086   7.805
19577SOL    HW170793   6.055   7.095   7.894
19577SOL    HW270794   6.170   7.016   7.809
19578SOL     OW70795   6.117   5.619   7.527
19578SOL    HW170796   6.205   5.647   7.488
19578SOL    HW270797   6.045   5.682   7.497
19579SOL     OW70798   7.087   6.604   8.910
19579SOL    HW170799   6.995   6.609   8.872
19579SOL    HW270800   7.152   6.642   8.844
19580SOL     OW70801   6.987   6.611   8.591
19580SOL    HW170802   6.912   6.600   8.656
19580SOL    HW270803   7.024   6.704   8.597
19581SOL     OW70804   6.483   6.866   8.891
19581SOL    HW170805   6.426   6.929   8.837
19581SOL    HW270806   6.516   6.792   8.832
19582SOL     OW70807   6.026   6.759   8.100
19582SOL    HW170808   5.959   6.713   8.159
19582SOL    HW270809   6.118   6.727   8.123
19583SOL     OW70810   6.253   6.165   7.931
19583SOL    HW170811   6.292   6.235   7.872
19583SOL    HW270812   6.227   6.085   7.877
19584SOL     OW70813   5.956   6.928   7.584
19584SOL    HW170814   6.020   6.944   7.509
19584SOL    HW270815   5.980   6.986   7.662
19585SOL     OW70816   6.107   5.884   8.394
19585SOL    HW170817   6.183   5.949   8.390
19585SOL    HW270818   6.137   5.795   8.361
19586SOL     OW70819   5.804   6.310   7.812
19586SOL    HW170820   5.819   6.244   7.886
19586SOL    HW270821   5.754   6.389   7.847
19587SOL     OW70822   6.390   7.255   7.989
19587SOL    HW170823   6.455   7.188   7.953
19587SOL    HW270824   6.380   7.331   7.925
19588SOL     OW70825   7.282   7.137   7.731
19588SOL    HW170826   7.378   7.111   7.724
19588SOL    HW270827   7.258   7.197   7.655
19589SOL     OW70828   7.194   5.830   8.502
19589SOL    HW170829   7.245   5.902   8.455
19589SOL    HW270830   7.099   5.857   8.511
19590SOL     OW70831   6.594   5.859   7.771
19590SOL    HW170832   6.619   5.953   7.792
19590SOL    HW270833   6.595   5.805   7.855
19591SOL     OW70834   5.718   6.572   8.956
19591SOL    HW170835   5.814   6.587   8.974
19591SOL    HW270836   5.680   6.510   9.025
19592SOL     OW70837   6.044   6.217   7.499
19592SOL    HW170838   6.004   6.296   7.452
19592SOL    HW270839   6.133   6.196   7.459
19593SOL     OW70840   6.217   7.141   8.197
19593SOL    HW170841   6.290   7.164   8.133
19593SOL    HW270842   6.146   7.088   8.151
19594SOL     OW70843   7.163   6.973   8.173
19594SOL    HW170844   7.159   7.008   8.266
19594SOL    HW270845   7.222   7.032   8.117
19595SOL     OW70846   5.894   6.794   7.849
19595SOL    HW170847   5.940   6.768   7.934
19595SOL    HW270848   5.914   6.726   7.778
19596SOL     OW70849   6.752   5.849   7.560
19596SOL    HW170850   6.846   5.819   7.578
19596SOL    HW270851   6.700   5.849   7.646
19597SOL     OW70852   5.904   6.054   8.655
19597SOL    HW170853   5.894   5.967   8.607
19597SOL    HW270854   5.840   6.121   8.618
19598SOL     OW70855   5.939   5.826   7.814
19598SOL    HW170856   5.893   5.866   7.893
19598SOL    HW270857   5.887   5.845   7.732
19599SOL     OW70858   7.067   7.353   8.726
19599SOL    HW170859   7.010   7.304   8.660
19599SOL    HW270860   7.153   7.380   8.683
19600SOL     OW70861   7.362   6.071   8.581
19600SOL    HW170862   7.419   6.153   8.583
19600SOL    HW270863   7.303   6.070   8.661
19601SOL     OW70864   7.379   7.297   8.494
19601SOL    HW170865   7.425   7.307   8.582
19601SOL    HW270866   7.446   7.300   8.421
19602SOL     OW70867   6.492   6.037   8.056
19602SOL    HW170868   6.568   6.065   8.115
19602SOL    HW270869   6.448   6.117   8.017
19603SOL     OW70870   6.727   6.501   7.573
19603SOL    HW170871   6.764   6.451   7.651
19603SOL    HW270872   6.657   6.446   7.528
19604SOL     OW70873   6.569   5.923   9.194
19604SOL    HW170874   6.632   5.928   9.271
19604SOL    HW270875   6.477   5.901   9.227
19605SOL     OW70876   7.310   6.170   7.652
19605SOL    HW170877   7.331   6.089   7.598
19605SOL    HW270878   7.327   6.151   7.749
19606SOL     OW70879   6.604   7.308   7.560
19606SOL    HW170880   6.638   7.221   7.525
19606SOL    HW270881   6.572   7.296   7.654
19607SOL     OW70882   6.618   6.842   9.126
19607SOL    HW170883   6.640   6.752   9.088
19607SOL    HW270884   6.553   6.889   9.067
19608SOL     OW70885   6.273   6.684   9.130
19608SOL    HW170886   6.244   6.761   9.187
19608SOL    HW270887   6.283   6.603   9.188
19609SOL     OW70888   6.908   5.548   8.236
19609SOL    HW170889   6.857   5.632   8.218
19609SOL    HW270890   6.994   5.550   8.185
19610SOL     OW70891   5.566   6.158   7.909
19610SOL    HW170892   5.568   6.109   7.996
19610SOL    HW270893   5.568   6.257   7.927
19611SOL     OW70894   5.887   5.746   8.230
19611SOL    HW170895   5.939   5.786   8.305
19611SOL    HW270896   5.940   5.673   8.187
19612SOL     OW70897   5.871   5.794   8.564
19612SOL    HW170898   5.836   5.701   8.564
19612SOL    HW270899   5.958   5.797   8.515
19613SOL     OW70900   6.538   6.416   8.304
19613SOL    HW170901   6.564   6.496   8.250
19613SOL    HW270902   6.532   6.336   8.244
19614SOL     OW70903   5.739   7.043   7.763
19614SOL    HW170904   5.766   6.949   7.783
19614SOL    HW270905   5.764   7.065   7.669
19615SOL     OW70906   7.021   6.912   8.637
19615SOL    HW170907   6.992   6.949   8.548
19615SOL    HW270908   6.943   6.912   8.699
19616SOL     OW70909   5.753   7.186   8.000
19616SOL    HW170910   5.669   7.237   8.018
19616SOL    HW270911   5.744   7.135   7.915
19617SOL     OW70912   7.274   6.983   8.675
19617SOL    HW170913   7.305   6.997   8.769
19617SOL    HW270914   7.175   6.970   8.674
19618SOL     OW70915   6.026   6.483   7.402
19618SOL    HW170916   5.995   6.517   7.314
19618SOL    HW270917   6.030   6.558   7.468
19619SOL     OW70918   6.543   6.670   8.701
19619SOL    HW170919   6.593   6.585   8.685
19619SOL    HW270920   6.497   6.697   8.616
19620SOL     OW70921   5.630   6.375   7.575
19620SOL    HW170922   5.690   6.322   7.635
19620SOL    HW270923   5.536   6.343   7.587
19621SOL     OW70924   7.150   6.373   7.775
19621SOL    HW170925   7.218   6.307   7.742
19621SOL    HW270926   7.165   6.461   7.731
19622SOL     OW70927   6.398   7.360   8.423
19622SOL    HW170928   6.444   7.293   8.365
19622SOL    HW270929   6.324   7.316   8.473
19623SOL     OW70930   6.305   6.429   7.459
19623SOL    HW170931   6.334   6.348   7.510
19623SOL    HW270932   6.205   6.428   7.450
19624SOL     OW70933   6.901   5.961   7.805
19624SOL    HW170934   6.838   6.019   7.753
19624SOL    HW270935   6.994   5.995   7.793
19625SOL     OW70936   5.798   6.162   8.905
19625SOL    HW170937   5.818   6.067   8.880
19625SOL    HW270938   5.761   6.165   8.998
19626SOL     OW70939   5.680   5.817   8.795
19626SOL    HW170940   5.752   5.827   8.726
19626SOL    HW270941   5.591   5.816   8.750
19627SOL     OW70942   6.578   6.438   8.560
19627SOL    HW170943   6.572   6.424   8.461
19627SOL    HW270944   6.497   6.399   8.604
19628SOL     OW70945   7.169   5.972   7.875
19628SOL    HW170946   7.265   5.943   7.872
19628SOL    HW270947   7.130   5.950   7.964
19629SOL     OW70948   6.453   7.047   8.312
19629SOL    HW170949   6.511   7.058   8.231
19629SOL    HW270950   6.359   7.071   8.290
19630SOL     OW70951   6.403   5.913   7.597
19630SOL    HW170952   6.312   5.926   7.635
19630SOL    HW270953   6.463   5.873   7.667
19631SOL     OW70954   6.514   6.858   7.532
19631SOL    HW170955   6.567   6.798   7.592
19631SOL    HW270956   6.553   6.859   7.441
19632SOL     OW70957   7.265   7.153   8.017
19632SOL    HW170958   7.232   7.246   8.036
19632SOL    HW270959   7.263   7.137   7.918
19633SOL     OW70960   6.680   6.426   8.006
19633SOL    HW170961   6.745   6.454   8.077
19633SOL    HW270962   6.601   6.487   8.008
19634SOL     OW70963   6.428   7.152   9.030
19634SOL    HW170964   6.416   7.083   8.959
19634SOL    HW270965   6.391   7.117   9.117
19635SOL     OW70966   6.872   6.466   8.209
19635SOL    HW170967   6.893   6.408   8.287
19635SOL    HW270968   6.881   6.562   8.235
19636SOL     OW70969   5.828   6.595   8.255
19636SOL    HW170970   5.751   6.657   8.248
19636SOL    HW270971   5.865   6.596   8.348
19637SOL     OW70972   6.461   6.543   7.954
19637SOL    HW170973   6.448   6.454   7.911
19637SOL    HW270974   6.392   6.557   8.025
19638SOL     OW70975   6.765   6.931   8.793
19638SOL    HW170976   6.798   7.016   8.834
19638SOL    HW270977   6.666   6.927   8.800
19639SOL     OW70978   5.572   5.848   7.857
19639SOL    HW170979   5.632   5.799   7.795
19639SOL    HW270980   5.627   5.900   7.922
19640SOL     OW70981   7.195   7.346   7.548
19640SOL    HW170982   7.285   7.390   7.550
19640SOL    HW270983   7.194   7.277   7.476
19641SOL     OW70984   6.359   6.313   8.706
19641SOL    HW170985   6.361   6.399   8.757
19641SOL    HW270986   6.416   6.245   8.753
19642SOL     OW70987   6.377   6.359   7.771
19642SOL    HW170988   6.288   6.387   7.736
19642SOL    HW270989   6.418   6.293   7.707
19643SOL     OW70990   5.899   6.077   8.310
19643SOL    HW170991   5.955   6.070   8.227
19643SOL    HW270992   5.956   6.055   8.390
19644SOL     OW70993   5.896   7.275   7.581
19644SOL    HW170994   5.988   7.305   7.556
19644SOL    HW270995   5.871   7.314   7.670
19645SOL     OW70996   6.872   7.297   8.518
19645SOL    HW170997   6.891   7.360   8.444
19645SOL    HW270998   6.880   7.203   8.485
19646SOL     OW70999   5.577   6.692   8.330
19646SOL    HW171000   5.487   6.708   8.291
19646SOL    HW271001   5.575   6.608   8.385
19647SOL     OW71002   6.328   5.597   7.780
19647SOL    HW171003   6.289   5.586   7.689
19647SOL    HW271004   6.284   5.673   7.827
19648SOL     OW71005   5.573   6.733   7.874
19648SOL    HW171006   5.651   6.791   7.898
19648SOL    HW271007   5.592   6.684   7.789
19649SOL     OW71008   6.819   5.807   8.249
19649SOL    HW171009   6.818   5.885   8.186
19649SOL    HW271010   6.862   5.834   8.335
19650SOL     OW71011   6.939   5.613   7.545
19650SOL    HW171012   7.019   5.553   7.542
19650SOL    HW271013   6.865   5.566   7.593
19651SOL     OW71014   7.152   5.585   8.979
19651SOL    HW171015   7.178   5.542   8.893
19651SOL    HW271016   7.102   5.669   8.961
19652SOL     OW71017   6.254   5.844   8.111
19652SOL    HW171018   6.243   5.786   8.192
19652SOL    HW271019   6.339   5.896   8.119
19653SOL     OW71020   6.834   6.195   8.503
19653SOL    HW171021   6.888   6.235   8.429
19653SOL    HW271022   6.872   6.224   8.591
19654SOL     OW71023   7.127   5.601   7.819
19654SOL    HW171024   7.134   5.555   7.731
19654SOL    HW271025   7.031   5.611   7.844
19655SOL     OW71026   6.103   6.916   9.182
19655SOL    HW171027   6.064   6.979   9.115
19655SOL    HW271028   6.186   6.956   9.222
19656SOL     OW71029   5.979   6.648   9.014
19656SOL    HW171030   5.998   6.672   8.919
19656SOL    HW271031   5.972   6.731   9.069
19657SOL     OW71032   5.640   6.938   8.488
19657SOL    HW171033   5.609   6.864   8.429
19657SOL    HW271034   5.572   6.956   8.559
19658SOL     OW71035   6.726   6.139   8.221
19658SOL    HW171036   6.808   6.116   8.169
19658SOL    HW271037   6.721   6.080   8.302
19659SOL     OW71038   7.326   6.166   9.057
19659SOL    HW171039   7.315   6.252   9.006
19659SOL    HW271040   7.420   6.157   9.087
19660SOL     OW71041   6.897   5.939   8.476
19660SOL    HW171042   6.871   6.036   8.482
19660SOL    HW271043   6.897   5.899   8.568
19661SOL     OW71044   7.127   6.071   9.227
19661SOL    HW171045   7.207   6.096   9.171
19661SOL    HW271046   7.158   6.036   9.315
19662SOL     OW71047   6.838   6.374   7.807
19662SOL    HW171048   6.784   6.372   7.891
19662SOL    HW271049   6.915   6.437   7.818
19663SOL     OW71050   7.135   6.470   8.027
19663SOL    HW171051   7.149   6.433   7.934
19663SOL    HW271052   7.046   6.440   8.061
19664SOL     OW71053   7.145   5.827   7.601
19664SOL    HW171054   7.150   5.869   7.692
19664SOL    HW271055   7.078   5.752   7.603
19665SOL     OW71056   6.292   7.042   8.821
19665SOL    HW171057   6.229   7.120   8.828
19665SOL    HW271058   6.260   6.980   8.749
19666SOL     OW71059   5.683   5.837   9.086
19666SOL    HW171060   5.701   5.826   8.988
19666SOL    HW271061   5.585   5.833   9.103
19667SOL     OW71062   5.731   5.907   8.054
19667SOL    HW171063   5.674   5.962   8.115
19667SOL    HW271064   5.801   5.859   8.107
19668SOL     OW71065   6.903   7.139   8.917
19668SOL    HW171066   6.856   7.207   8.972
19668SOL    HW271067   6.970   7.185   8.858
19669SOL     OW71068   5.868   6.098   7.652
19669SOL    HW171069   5.940   6.127   7.589
19669SOL    HW271070   5.824   6.178   7.692
19670SOL     OW71071   7.254   5.760   8.755
19670SOL    HW171072   7.210   5.808   8.831
19670SOL    HW271073   7.232   5.806   8.669
19671SOL     OW71074   5.983   7.361   8.118
19671SOL    HW171075   5.907   7.327   8.063
19671SOL    HW271076   6.069   7.324   8.083
19672SOL     OW71077   5.908   6.870   8.563
19672SOL    HW171078   5.920   6.886   8.660
19672SOL    HW271079   5.821   6.910   8.533
19673SOL     OW71080   6.792   7.074   9.209
19673SOL    HW171081   6.751   6.989   9.175
19673SOL    HW271082   6.772   7.148   9.145
19674SOL     OW71083   6.282   6.794   7.899
19674SOL    HW171084   6.325   6.725   7.841
19674SOL    HW271085   6.246   6.751   7.982
19675SOL     OW71086   5.914   6.345   8.101
19675SOL    HW171087   5.906   6.443   8.119
19675SOL    HW271088   5.998   6.311   8.142
19676SOL     OW71089   5.760   5.825   7.616
19676SOL    HW171090   5.804   5.794   7.533
19676SOL    HW271091   5.761   5.925   7.620
19677SOL     OW71092   5.613   6.077   8.227
19677SOL    HW171093   5.577   6.170   8.219
19677SOL    HW271094   5.696   6.078   8.283
19678SOL     OW71095   6.048   6.664   7.613
19678SOL    HW171096   6.148   6.664   7.624
19678SOL    HW271097   6.017   6.757   7.592
19679SOL     OW71098   6.674   6.256   7.429
19679SOL    HW171099   6.605   6.313   7.385
19679SOL    HW271100   6.755   6.250   7.370
19680SOL     OW71101   6.409   6.175   7.572
19680SOL    HW171102   6.499   6.176   7.527
19680SOL    HW271103   6.386   6.081   7.597
19681SOL     OW71104   6.860   5.692   7.866
19681SOL    HW171105   6.770   5.676   7.907
19681SOL    HW271106   6.868   5.788   7.840
19682SOL     OW71107   5.609   5.607   7.526
19682SOL    HW171108   5.672   5.530   7.534
19682SOL    HW271109   5.629   5.675   7.597
19683SOL     OW71110   5.882   6.582   8.527
19683SOL    HW171111   5.893   6.537   8.616
19683SOL    HW271112   5.909   6.678   8.534
19684SOL     OW71113   7.181   6.594   7.627
19684SOL    HW171114   7.252   6.664   7.629
19684SOL    HW271115   7.168   6.564   7.532
19685SOL     OW71116   6.163   6.195   8.549
19685SOL    HW171117   6.238   6.238   8.598
19685SOL    HW271118   6.096   6.160   8.615
19686SOL     OW71119   6.306   6.564   8.866
19686SOL    HW171120   6.375   6.616   8.816
19686SOL    HW271121   6.301   6.597   8.961
19687SOL     OW71122   6.627   5.767   8.022
19687SOL    HW171123   6.686   5.827   8.077
19687SOL    HW271124   6.554   5.731   8.079
19688SOL     OW71125   6.737   7.299   9.062
19688SOL    HW171126   6.642   7.297   9.030
19688SOL    HW271127   6.758   7.390   9.099
19689SOL     OW71128   6.155   5.644   8.293
19689SOL    HW171129   6.083   5.577   8.279
19689SOL    HW271130   6.237   5.598   8.328
19690SOL     OW71131   6.548   6.773   8.205
19690SOL    HW171132   6.587   6.816   8.124
19690SOL    HW271133   6.621   6.756   8.272
19691SOL     OW71134   6.242   6.501   8.407
19691SOL    HW171135   6.240   6.417   8.352
19691SOL    HW271136   6.191   6.487   8.492
19692SOL     OW71137   5.581   6.511   8.533
19692SOL    HW171138   5.670   6.489   8.573
19692SOL    HW271139   5.526   6.427   8.529
19693SOL     OW71140   5.809   5.556   7.813
19693SOL    HW171141   5.847   5.644   7.840
19693SOL    HW271142   5.732   5.532   7.873
19694SOL     OW71143   6.225   6.173   9.141
19694SOL    HW171144   6.177   6.224   9.070
19694SOL    HW271145   6.318   6.152   9.111
19695SOL     OW71146   5.631   6.643   7.633
19695SOL    HW171147   5.621   6.546   7.612
19695SOL    HW271148   5.684   6.688   7.561
19696SOL     OW71149   7.328   5.755   8.234
19696SOL    HW171150   7.283   5.737   8.321
19696SOL    HW271151   7.426   5.772   8.250
19697SOL     OW71152   6.376   6.731   8.486
19697SOL    HW171153   6.327   6.646   8.467
19697SOL    HW271154   6.446   6.746   8.417
19698SOL     OW71155   6.714   6.154   7.695
19698SOL    HW171156   6.766   6.226   7.741
19698SOL    HW271157   6.727   6.161   7.597
19699SOL     OW71158   7.075   6.969   9.022
19699SOL    HW171159   7.060   6.871   9.036
19699SOL    HW271160   6.992   7.011   8.986
19700SOL     OW71161   5.832   6.411   8.762
19700SOL    HW171162   5.796   6.321   8.788
19700SOL    HW271163   5.793   6.481   8.822
19701SOL     OW71164   6.334   7.037   7.420
19701SOL    HW171165   6.309   7.114   7.479
19701SOL    HW271166   6.398   6.977   7.468
19702SOL     OW71167   6.152   7.244   8.454
19702SOL    HW171168   6.172   7.214   8.361
19702SOL    HW271169   6.077   7.189   8.491
19703SOL     OW71170   6.295   6.655   8.171
19703SOL    HW171171   6.384   6.701   8.171
19703SOL    HW271172   6.288   6.595   8.250
19704SOL     OW71173   6.473   7.002   7.840
19704SOL    HW171174   6.523   6.990   7.755
19704SOL    HW271175   6.419   6.919   7.859
19705SOL     OW71176   5.663   6.349   8.240
19705SOL    HW171177   5.758   6.340   8.208
19705SOL    HW271178   5.629   6.441   8.219
19706SOL     OW71179   5.600   6.466   9.167
19706SOL    HW171180   5.515   6.417   9.148
19706SOL    HW271181   5.627   6.453   9.262
19707SOL     OW71182   6.497   7.375   8.873
19707SOL    HW171183   6.469   7.288   8.914
19707SOL    HW271184   6.441   7.449   8.910
19708SOL     OW71185   6.726   6.722   8.403
19708SOL    HW171186   6.710   6.816   8.434
19708SOL    HW271187   6.729   6.661   8.483
19709SOL     OW71188   6.000   5.993   9.167
19709SOL    HW171189   6.036   5.940   9.090
19709SOL    HW271190   6.061   6.070   9.185
19710SOL     OW71191   6.064   6.410   7.739
19710SOL    HW171192   6.014   6.475   7.683
19710SOL    HW271193   6.006   6.331   7.758
19711SOL     OW71194   5.538   5.583   7.934
19711SOL    HW171195   5.451   5.570   7.887
19711SOL    HW271196   5.546   5.678   7.964
19712SOL     OW71197   5.975   7.103   9.000
19712SOL    HW171198   5.917   7.168   9.049
19712SOL    HW271199   6.037   7.153   8.940
19713SOL     OW71200   7.331   6.990   8.941
19713SOL    HW171201   7.359   7.083   8.963
19713SOL    HW271202   7.238   6.974   8.974
19714SOL     OW71203   6.581   6.103   8.491
19714SOL    HW171204   6.667   6.154   8.490
19714SOL    HW271205   6.587   6.029   8.558
19715SOL     OW71206   5.985   7.049   8.063
19715SOL    HW171207   5.983   6.950   8.076
19715SOL    HW271208   5.894   7.082   8.040
19716SOL     OW71209   6.626   7.166   8.651
19716SOL    HW171210   6.552   7.230   8.669
19716SOL    HW271211   6.705   7.215   8.613
19717SOL     OW71212   5.695   6.832   9.021
19717SOL    HW171213   5.674   6.737   8.994
19717SOL    HW271214   5.626   6.893   8.983
19718SOL     OW71215   5.784   7.197   8.425
19718SOL    HW171216   5.726   7.117   8.439
19718SOL    HW271217   5.808   7.204   8.328
19719SOL     OW71218   6.530   5.718   8.280
19719SOL    HW171219   6.626   5.719   8.308
19719SOL    HW271220   6.475   5.675   8.352
19720SOL     OW71221   6.592   6.724   7.796
19720SOL    HW171222   6.672   6.760   7.844
19720SOL    HW271223   6.550   6.651   7.852
19721SOL     OW71224   7.183   5.991   8.160
19721SOL    HW171225   7.202   6.077   8.207
19721SOL    HW271226   7.251   5.922   8.188
19722SOL     OW71227   6.326   6.663   7.646
19722SOL    HW171228   6.398   6.722   7.611
19722SOL    HW271229   6.366   6.579   7.682
19723SOL     OW71230   6.397   5.639   7.498
19723SOL    HW171231   6.472   5.573   7.510
19723SOL    HW271232   6.428   5.730   7.526
19724SOL     OW71233   6.076   6.068   8.110
19724SOL    HW171234   6.114   5.979   8.136
19724SOL    HW271235   6.143   6.118   8.055
19725SOL     OW71236   6.064   6.626   8.764
19725SOL    HW171237   6.160   6.606   8.784
19725SOL    HW271238   6.053   6.724   8.746
19726SOL     OW71239   5.769   6.778   7.425
19726SOL    HW171240   5.761   6.790   7.326
19726SOL    HW271241   5.828   6.849   7.463
19727SOL     OW71242   6.196   7.217   7.585
19727SOL    HW171243   6.171   7.312   7.569
19727SOL    HW271244   6.163   7.189   7.675
19728SOL     OW71245   6.846   6.640   8.809
19728SOL    HW171246   6.790   6.599   8.880
19728SOL    HW271247   6.826   6.738   8.803
19729SOL     OW71248   6.113   7.256   8.809
19729SOL    HW171249   6.162   7.336   8.773
19729SOL    HW271250   6.021   7.254   8.770
19730SOL     OW71251   5.756   6.137   9.171
19730SOL    HW171252   5.773   6.038   9.176
19730SOL    HW271253   5.820   6.185   9.232
19731SOL     OW71254   7.195   7.098   8.410
19731SOL    HW171255   7.167   7.191   8.434
19731SOL    HW271256   7.245   7.057   8.486
19732SOL     OW71257   5.591   6.471   7.971
19732SOL    HW171258   5.598   6.570   7.958
19732SOL    HW271259   5.500   6.448   8.005
19733SOL     OW71260   6.100   6.269   8.909
19733SOL    HW171261   6.006   6.239   8.890
19733SOL    HW271262   6.109   6.366   8.886
19734SOL     OW71263   7.167   6.645   8.221
19734SOL    HW171264   7.129   6.734   8.194
19734SOL    HW271265   7.167   6.583   8.143
19735SOL     OW71266   6.325   6.051   8.390
19735SOL    HW171267   6.417   6.079   8.417
19735SOL    HW271268   6.257   6.102   8.444
19736SOL     OW71269   6.178   6.902   8.617
19736SOL    HW171270   6.091   6.901   8.568
19736SOL    HW271271   6.244   6.842   8.570
19737SOL     OW71272   5.744   6.244   8.531
19737SOL    HW171273   5.782   6.303   8.602
19737SOL    HW271274   5.727   6.297   8.449
19738SOL     OW71275   5.915   6.890   8.829
19738SOL    HW171276   5.934   6.978   8.873
19738SOL    HW271277   5.820   6.864   8.847
19739SOL     OW71278   7.158   7.206   9.177
19739SOL    HW171279   7.127   7.128   9.122
19739SOL    HW271280   7.127   7.291   9.135
19740SOL     OW71281   6.866   6.744   7.898
19740SOL    HW171282   6.965   6.748   7.914
19740SOL    HW271283   6.849   6.730   7.800
19741SOL     OW71284   6.219   5.910   7.846
19741SOL    HW171285   6.121   5.904   7.826
19741SOL    HW271286   6.238   5.867   7.934
19742SOL     OW71287   7.139   5.593   8.105
19742SOL    HW171288   7.134   5.634   8.014
19742SOL    HW271289   7.220   5.627   8.152
19743SOL     OW71290   6.742   6.349   8.798
19743SOL    HW171291   6.841   6.358   8.788
19743SOL    HW271292   6.698   6.351   8.708
19744SOL     OW71293   6.236   6.309   8.200
19744SOL    HW171294   6.258   6.231   8.258
19744SOL    HW271295   6.245   6.283   8.104
19745SOL     OW71296   6.901   7.016   8.412
19745SOL    HW171297   6.815   6.973   8.441
19745SOL    HW271298   6.890   7.056   8.321
19746SOL     OW71299   6.904   6.001   8.087
19746SOL    HW171300   6.903   5.993   7.988
19746SOL    HW271301   6.993   5.973   8.122
19747SOL     OW71302   6.631   7.017   9.919
19747SOL    HW171303   6.722   7.051   9.942
19747SOL    HW271304   6.603   7.055   9.831
19748SOL     OW71305   7.142   6.813   9.777
19748SOL    HW171306   7.153   6.897   9.831
19748SOL    HW271307   7.232   6.776   9.754
19749SOL     OW71308   5.889   5.732   9.246
19749SOL    HW171309   5.802   5.729   9.197
19749SOL    HW271310   5.940   5.814   9.218
19750SOL     OW71311   6.099   7.086   9.650
19750SOL    HW171312   6.055   7.095   9.739
19750SOL    HW271313   6.170   7.016   9.654
19751SOL     OW71314   6.026   6.759   9.945
19751SOL    HW171315   5.959   6.713  10.004
19751SOL    HW271316   6.118   6.727   9.968
19752SOL     OW71317   6.253   6.165   9.776
19752SOL    HW171318   6.292   6.235   9.717
19752SOL    HW271319   6.227   6.085   9.722
19753SOL     OW71320   5.956   6.928   9.429
19753SOL    HW171321   6.020   6.944   9.354
19753SOL    HW271322   5.980   6.986   9.507
19754SOL     OW71323   5.804   6.310   9.657
19754SOL    HW171324   5.819   6.244   9.731
19754SOL    HW271325   5.754   6.389   9.692
19755SOL     OW71326   6.390   7.255   9.834
19755SOL    HW171327   6.455   7.188   9.798
19755SOL    HW271328   6.380   7.331   9.770
19756SOL     OW71329   7.282   7.137   9.576
19756SOL    HW171330   7.378   7.111   9.569
19756SOL    HW271331   7.258   7.197   9.500
19757SOL     OW71332   6.594   5.859   9.616
19757SOL    HW171333   6.619   5.953   9.637
19757SOL    HW271334   6.595   5.805   9.700
19758SOL     OW71335   6.044   6.217   9.344
19758SOL    HW171336   6.004   6.296   9.297
19758SOL    HW271337   6.133   6.196   9.304
19759SOL     OW71338   7.163   6.973  10.018
19759SOL    HW171339   7.159   7.008  10.111
19759SOL    HW271340   7.222   7.032   9.962
19760SOL     OW71341   5.894   6.794   9.694
19760SOL    HW171342   5.940   6.768   9.779
19760SOL    HW271343   5.914   6.726   9.623
19761SOL     OW71344   7.379   7.297  10.339
19761SOL    HW171345   7.425   7.307  10.427
19761SOL    HW271346   7.446   7.300  10.266
19762SOL     OW71347   6.492   6.037   9.901
19762SOL    HW171348   6.568   6.065   9.960
19762SOL    HW271349   6.448   6.117   9.862
19763SOL     OW71350   6.727   6.501   9.418
19763SOL    HW171351   6.764   6.451   9.496
19763SOL    HW271352   6.657   6.446   9.373
19764SOL     OW71353   7.310   6.170   9.497
19764SOL    HW171354   7.331   6.089   9.443
19764SOL    HW271355   7.327   6.151   9.594
19765SOL     OW71356   6.604   7.308   9.405
19765SOL    HW171357   6.638   7.221   9.370
19765SOL    HW271358   6.572   7.296   9.499
19766SOL     OW71359   5.566   6.158   9.754
19766SOL    HW171360   5.568   6.109   9.841
19766SOL    HW271361   5.568   6.257   9.772
19767SOL     OW71362   6.026   6.483   9.247
19767SOL    HW171363   5.995   6.517   9.159
19767SOL    HW271364   6.030   6.558   9.313
19768SOL     OW71365   5.630   6.375   9.420
19768SOL    HW171366   5.690   6.322   9.480
19768SOL    HW271367   5.536   6.343   9.432
19769SOL     OW71368   7.150   6.373   9.620
19769SOL    HW171369   7.218   6.307   9.587
19769SOL    HW271370   7.165   6.461   9.576
19770SOL     OW71371   6.305   6.429   9.304
19770SOL    HW171372   6.334   6.348   9.355
19770SOL    HW271373   6.205   6.428   9.295
19771SOL     OW71374   6.901   5.961   9.650
19771SOL    HW171375   6.838   6.019   9.598
19771SOL    HW271376   6.994   5.995   9.638
19772SOL     OW71377   7.169   5.972   9.720
19772SOL    HW171378   7.265   5.943   9.717
19772SOL    HW271379   7.130   5.950   9.809
19773SOL     OW71380   6.403   5.913   9.442
19773SOL    HW171381   6.312   5.926   9.480
19773SOL    HW271382   6.463   5.873   9.512
19774SOL     OW71383   6.514   6.858   9.377
19774SOL    HW171384   6.567   6.798   9.437
19774SOL    HW271385   6.553   6.859   9.286
19775SOL     OW71386   7.265   7.153   9.862
19775SOL    HW171387   7.232   7.246   9.881
19775SOL    HW271388   7.263   7.137   9.763
19776SOL     OW71389   6.680   6.426   9.851
19776SOL    HW171390   6.745   6.454   9.922
19776SOL    HW271391   6.601   6.487   9.853
19777SOL     OW71392   6.872   6.466  10.054
19777SOL    HW171393   6.893   6.408  10.132
19777SOL    HW271394   6.881   6.562  10.080
19778SOL     OW71395   6.461   6.543   9.799
19778SOL    HW171396   6.448   6.454   9.756
19778SOL    HW271397   6.392   6.557   9.870
19779SOL     OW71398   5.572   5.848   9.702
19779SOL    HW171399   5.632   5.799   9.640
19779SOL    HW271400   5.627   5.900   9.767
19780SOL     OW71401   7.195   7.346   9.393
19780SOL    HW171402   7.285   7.390   9.395
19780SOL    HW271403   7.194   7.277   9.321
19781SOL     OW71404   6.377   6.359   9.616
19781SOL    HW171405   6.288   6.387   9.581
19781SOL    HW271406   6.418   6.293   9.552
19782SOL     OW71407   6.254   5.844   9.956
19782SOL    HW171408   6.243   5.786  10.037
19782SOL    HW271409   6.339   5.896   9.964
19783SOL     OW71410   7.127   5.601   9.664
19783SOL    HW171411   7.134   5.555   9.576
19783SOL    HW271412   7.031   5.611   9.689
19784SOL     OW71413   6.838   6.374   9.652
19784SOL    HW171414   6.784   6.372   9.736
19784SOL    HW271415   6.915   6.437   9.663
19785SOL     OW71416   7.135   6.470   9.872
19785SOL    HW171417   7.149   6.433   9.779
19785SOL    HW271418   7.046   6.440   9.906
19786SOL     OW71419   7.145   5.827   9.446
19786SOL    HW171420   7.150   5.869   9.537
19786SOL    HW271421   7.078   5.752   9.448
19787SOL     OW71422   5.868   6.098   9.497
19787SOL    HW171423   5.940   6.127   9.434
19787SOL    HW271424   5.824   6.178   9.537
19788SOL     OW71425   5.983   7.361   9.963
19788SOL    HW171426   5.907   7.327   9.908
19788SOL    HW271427   6.069   7.324   9.928
19789SOL     OW71428   6.282   6.794   9.744
19789SOL    HW171429   6.325   6.725   9.686
19789SOL    HW271430   6.246   6.751   9.827
19790SOL     OW71431   5.760   5.825   9.461
19790SOL    HW171432   5.804   5.794   9.378
19790SOL    HW271433   5.761   5.925   9.465
19791SOL     OW71434   5.613   6.077  10.072
19791SOL    HW171435   5.577   6.170  10.064
19791SOL    HW271436   5.696   6.078  10.128
19792SOL     OW71437   6.048   6.664   9.458
19792SOL    HW171438   6.148   6.664   9.469
19792SOL    HW271439   6.017   6.757   9.437
19793SOL     OW71440   6.409   6.175   9.417
19793SOL    HW171441   6.499   6.176   9.372
19793SOL    HW271442   6.386   6.081   9.442
19794SOL     OW71443   6.860   5.692   9.711
19794SOL    HW171444   6.770   5.676   9.752
19794SOL    HW271445   6.868   5.788   9.685
19795SOL     OW71446   5.609   5.607   9.371
19795SOL    HW171447   5.672   5.530   9.379
19795SOL    HW271448   5.629   5.675   9.442
19796SOL     OW71449   7.181   6.594   9.472
19796SOL    HW171450   7.252   6.664   9.474
19796SOL    HW271451   7.168   6.564   9.377
19797SOL     OW71452   6.627   5.767   9.867
19797SOL    HW171453   6.686   5.827   9.922
19797SOL    HW271454   6.554   5.731   9.924
19798SOL     OW71455   7.328   5.755  10.079
19798SOL    HW171456   7.283   5.737  10.166
19798SOL    HW271457   7.426   5.772  10.095
19799SOL     OW71458   6.714   6.154   9.540
19799SOL    HW171459   6.766   6.226   9.586
19799SOL    HW271460   6.727   6.161   9.442
19800SOL     OW71461   6.334   7.037   9.265
19800SOL    HW171462   6.309   7.114   9.324
19800SOL    HW271463   6.398   6.977   9.313
19801SOL     OW71464   6.295   6.655  10.016
19801SOL    HW171465   6.384   6.701  10.016
19801SOL    HW271466   6.288   6.595  10.095
19802SOL     OW71467   6.473   7.002   9.685
19802SOL    HW171468   6.523   6.990   9.600
19802SOL    HW271469   6.419   6.919   9.704
19803SOL     OW71470   6.064   6.410   9.584
19803SOL    HW171471   6.014   6.475   9.528
19803SOL    HW271472   6.006   6.331   9.603
19804SOL     OW71473   5.538   5.583   9.779
19804SOL    HW171474   5.451   5.570   9.732
19804SOL    HW271475   5.546   5.678   9.809
19805SOL     OW71476   5.985   7.049   9.908
19805SOL    HW171477   5.983   6.950   9.921
19805SOL    HW271478   5.894   7.082   9.885
19806SOL     OW71479   6.592   6.724   9.641
19806SOL    HW171480   6.672   6.760   9.689
19806SOL    HW271481   6.550   6.651   9.697
19807SOL     OW71482   7.183   5.991  10.005
19807SOL    HW171483   7.202   6.077  10.052
19807SOL    HW271484   7.251   5.922  10.033
19808SOL     OW71485   6.326   6.663   9.491
19808SOL    HW171486   6.398   6.722   9.456
19808SOL    HW271487   6.366   6.579   9.527
19809SOL     OW71488   6.076   6.068   9.955
19809SOL    HW171489   6.114   5.979   9.981
19809SOL    HW271490   6.143   6.118   9.900
19810SOL     OW71491   5.769   6.778   9.270
19810SOL    HW171492   5.761   6.790   9.171
19810SOL    HW271493   5.828   6.849   9.308
19811SOL     OW71494   6.196   7.217   9.430
19811SOL    HW171495   6.171   7.312   9.414
19811SOL    HW271496   6.163   7.189   9.520
19812SOL     OW71497   5.591   6.471   9.816
19812SOL    HW171498   5.598   6.570   9.803
19812SOL    HW271499   5.500   6.448   9.850
19813SOL     OW71500   6.866   6.744   9.743
19813SOL    HW171501   6.965   6.748   9.759
19813SOL    HW271502   6.849   6.730   9.645
19814SOL     OW71503   6.219   5.910   9.691
19814SOL    HW171504   6.121   5.904   9.671
19814SOL    HW271505   6.238   5.867   9.779
19815SOL     OW71506   7.139   5.593   9.950
19815SOL    HW171507   7.134   5.634   9.859
19815SOL    HW271508   7.220   5.627   9.997
19816SOL     OW71509   6.904   6.001   9.932
19816SOL    HW171510   6.903   5.993   9.833
19816SOL    HW271511   6.993   5.973   9.967
19817SOL     OW71512   6.631   8.863   0.692
19817SOL    HW171513   6.722   8.897   0.715
19817SOL    HW271514   6.603   8.901   0.604
19818SOL     OW71515   7.142   8.659   0.550
19818SOL    HW171516   7.153   8.743   0.604
19818SOL    HW271517   7.232   8.622   0.527
19819SOL     OW71518   5.889   7.578   0.019
19819SOL    HW171519   5.802   7.575  -0.030
19819SOL    HW271520   5.940   7.660  -0.009
19820SOL     OW71521   6.876   8.967   0.794
19820SOL    HW171522   6.865   9.064   0.817
19820SOL    HW271523   6.969   8.950   0.764
19821SOL     OW71524   6.492   8.258   1.729
19821SOL    HW171525   6.457   8.233   1.639
19821SOL    HW271526   6.416   8.279   1.790
19822SOL     OW71527   6.099   8.932   0.423
19822SOL    HW171528   6.055   8.941   0.512
19822SOL    HW271529   6.170   8.862   0.427
19823SOL     OW71530   6.117   7.465   0.145
19823SOL    HW171531   6.205   7.493   0.106
19823SOL    HW271532   6.045   7.528   0.115
19824SOL     OW71533   7.087   8.450   1.528
19824SOL    HW171534   6.995   8.455   1.490
19824SOL    HW271535   7.152   8.488   1.462
19825SOL     OW71536   6.987   8.457   1.209
19825SOL    HW171537   6.912   8.446   1.274
19825SOL    HW271538   7.024   8.550   1.215
19826SOL     OW71539   6.483   8.712   1.509
19826SOL    HW171540   6.426   8.775   1.455
19826SOL    HW271541   6.516   8.638   1.450
19827SOL     OW71542   6.026   8.605   0.718
19827SOL    HW171543   5.959   8.559   0.777
19827SOL    HW271544   6.118   8.573   0.741
19828SOL     OW71545   6.253   8.011   0.549
19828SOL    HW171546   6.292   8.081   0.490
19828SOL    HW271547   6.227   7.931   0.495
19829SOL     OW71548   5.956   8.774   0.202
19829SOL    HW171549   6.020   8.790   0.127
19829SOL    HW271550   5.980   8.832   0.280
19830SOL     OW71551   6.107   7.730   1.012
19830SOL    HW171552   6.183   7.795   1.008
19830SOL    HW271553   6.137   7.641   0.979
19831SOL     OW71554   5.804   8.156   0.430
19831SOL    HW171555   5.819   8.090   0.504
19831SOL    HW271556   5.754   8.235   0.465
19832SOL     OW71557   6.390   9.101   0.607
19832SOL    HW171558   6.455   9.034   0.571
19832SOL    HW271559   6.380   9.177   0.543
19833SOL     OW71560   7.282   8.983   0.349
19833SOL    HW171561   7.378   8.957   0.342
19833SOL    HW271562   7.258   9.043   0.273
19834SOL     OW71563   5.718   8.418   1.574
19834SOL    HW171564   5.814   8.433   1.592
19834SOL    HW271565   5.680   8.356   1.643
19835SOL     OW71566   6.044   8.063   0.117
19835SOL    HW171567   6.004   8.142   0.070
19835SOL    HW271568   6.133   8.042   0.077
19836SOL     OW71569   6.217   8.987   0.815
19836SOL    HW171570   6.290   9.010   0.751
19836SOL    HW271571   6.146   8.934   0.769
19837SOL     OW71572   6.559   8.019   1.569
19837SOL    HW171573   6.592   7.936   1.616
19837SOL    HW271574   6.632   8.087   1.568
19838SOL     OW71575   7.163   8.819   0.791
19838SOL    HW171576   7.159   8.854   0.884
19838SOL    HW271577   7.222   8.878   0.735
19839SOL     OW71578   5.894   8.640   0.467
19839SOL    HW171579   5.940   8.614   0.552
19839SOL    HW271580   5.914   8.572   0.396
19840SOL     OW71581   6.752   7.695   0.178
19840SOL    HW171582   6.846   7.665   0.196
19840SOL    HW271583   6.700   7.695   0.264
19841SOL     OW71584   5.904   7.900   1.273
19841SOL    HW171585   5.894   7.813   1.225
19841SOL    HW271586   5.840   7.967   1.236
19842SOL     OW71587   6.986   8.180   1.311
19842SOL    HW171588   6.990   8.274   1.276
19842SOL    HW271589   7.079   8.149   1.333
19843SOL     OW71590   5.939   7.672   0.432
19843SOL    HW171591   5.893   7.712   0.511
19843SOL    HW271592   5.887   7.691   0.350
19844SOL     OW71593   7.067   9.199   1.344
19844SOL    HW171594   7.010   9.150   1.278
19844SOL    HW271595   7.153   9.226   1.301
19845SOL     OW71596   7.362   7.917   1.199
19845SOL    HW171597   7.419   7.999   1.201
19845SOL    HW271598   7.303   7.916   1.279
19846SOL     OW71599   7.379   9.143   1.112
19846SOL    HW171600   7.425   9.153   1.200
19846SOL    HW271601   7.446   9.146   1.039
19847SOL     OW71602   6.492   7.883   0.674
19847SOL    HW171603   6.568   7.911   0.733
19847SOL    HW271604   6.448   7.963   0.635
19848SOL     OW71605   6.727   8.347   0.191
19848SOL    HW171606   6.764   8.297   0.269
19848SOL    HW271607   6.657   8.292   0.146
19849SOL     OW71608   6.569   7.769   1.812
19849SOL    HW171609   6.632   7.774   1.889
19849SOL    HW271610   6.477   7.747   1.845
19850SOL     OW71611   7.310   8.016   0.270
19850SOL    HW171612   7.331   7.935   0.216
19850SOL    HW271613   7.327   7.997   0.367
19851SOL     OW71614   6.604   9.154   0.178
19851SOL    HW171615   6.638   9.067   0.143
19851SOL    HW271616   6.572   9.142   0.272
19852SOL     OW71617   6.285   7.421   1.710
19852SOL    HW171618   6.292   7.327   1.677
19852SOL    HW271619   6.342   7.431   1.792
19853SOL     OW71620   7.208   8.022   0.978
19853SOL    HW171621   7.193   8.113   1.015
19853SOL    HW271622   7.278   7.975   1.032
19854SOL     OW71623   6.618   8.688   1.744
19854SOL    HW171624   6.640   8.598   1.706
19854SOL    HW271625   6.553   8.735   1.685
19855SOL     OW71626   6.273   8.530   1.748
19855SOL    HW171627   6.244   8.607   1.805
19855SOL    HW271628   6.283   8.449   1.806
19856SOL     OW71629   5.566   8.004   0.527
19856SOL    HW171630   5.568   7.955   0.614
19856SOL    HW271631   5.568   8.103   0.545
19857SOL     OW71632   5.887   7.592   0.848
19857SOL    HW171633   5.939   7.632   0.923
19857SOL    HW271634   5.940   7.519   0.805
19858SOL     OW71635   5.871   7.640   1.182
19858SOL    HW171636   5.836   7.547   1.182
19858SOL    HW271637   5.958   7.643   1.133
19859SOL     OW71638   6.538   8.262   0.922
19859SOL    HW171639   6.564   8.342   0.868
19859SOL    HW271640   6.532   8.182   0.862
19860SOL     OW71641   5.739   8.889   0.381
19860SOL    HW171642   5.766   8.795   0.401
19860SOL    HW271643   5.764   8.911   0.287
19861SOL     OW71644   7.021   8.758   1.255
19861SOL    HW171645   6.992   8.795   1.166
19861SOL    HW271646   6.943   8.758   1.317
19862SOL     OW71647   5.753   9.032   0.618
19862SOL    HW171648   5.669   9.083   0.636
19862SOL    HW271649   5.744   8.981   0.533
19863SOL     OW71650   7.274   8.829   1.293
19863SOL    HW171651   7.305   8.843   1.387
19863SOL    HW271652   7.175   8.816   1.292
19864SOL     OW71653   6.026   8.329   0.020
19864SOL    HW171654   5.995   8.363  -0.068
19864SOL    HW271655   6.030   8.404   0.086
19865SOL     OW71656   6.543   8.516   1.319
19865SOL    HW171657   6.593   8.431   1.303
19865SOL    HW271658   6.497   8.543   1.234
19866SOL     OW71659   5.630   8.221   0.193
19866SOL    HW171660   5.690   8.168   0.253
19866SOL    HW271661   5.536   8.189   0.205
19867SOL     OW71662   7.150   8.219   0.393
19867SOL    HW171663   7.218   8.153   0.360
19867SOL    HW271664   7.165   8.307   0.349
19868SOL     OW71665   6.398   9.206   1.041
19868SOL    HW171666   6.444   9.139   0.983
19868SOL    HW271667   6.324   9.162   1.091
19869SOL     OW71668   6.305   8.275   0.077
19869SOL    HW171669   6.334   8.194   0.128
19869SOL    HW271670   6.205   8.274   0.068
19870SOL     OW71671   6.578   8.284   1.178
19870SOL    HW171672   6.572   8.270   1.079
19870SOL    HW271673   6.497   8.245   1.222
19871SOL     OW71674   6.453   8.893   0.930
19871SOL    HW171675   6.511   8.904   0.849
19871SOL    HW271676   6.359   8.917   0.908
19872SOL     OW71677   6.403   7.759   0.215
19872SOL    HW171678   6.312   7.772   0.253
19872SOL    HW271679   6.463   7.719   0.285
19873SOL     OW71680   6.514   8.704   0.150
19873SOL    HW171681   6.567   8.644   0.210
19873SOL    HW271682   6.553   8.705   0.059
19874SOL     OW71683   7.265   8.999   0.635
19874SOL    HW171684   7.232   9.092   0.654
19874SOL    HW271685   7.263   8.983   0.536
19875SOL     OW71686   6.680   8.272   0.624
19875SOL    HW171687   6.745   8.300   0.695
19875SOL    HW271688   6.601   8.333   0.626
19876SOL     OW71689   6.428   8.998   1.648
19876SOL    HW171690   6.416   8.929   1.577
19876SOL    HW271691   6.391   8.963   1.735
19877SOL     OW71692   6.872   8.312   0.827
19877SOL    HW171693   6.893   8.254   0.905
19877SOL    HW271694   6.881   8.408   0.853
19878SOL     OW71695   5.828   8.441   0.873
19878SOL    HW171696   5.751   8.503   0.866
19878SOL    HW271697   5.865   8.442   0.966
19879SOL     OW71698   6.461   8.389   0.572
19879SOL    HW171699   6.448   8.300   0.529
19879SOL    HW271700   6.392   8.403   0.643
19880SOL     OW71701   6.765   8.777   1.411
19880SOL    HW171702   6.798   8.862   1.452
19880SOL    HW271703   6.666   8.773   1.418
19881SOL     OW71704   5.572   7.694   0.475
19881SOL    HW171705   5.632   7.645   0.413
19881SOL    HW271706   5.627   7.746   0.540
19882SOL     OW71707   7.195   9.192   0.166
19882SOL    HW171708   7.285   9.236   0.168
19882SOL    HW271709   7.194   9.123   0.094
19883SOL     OW71710   6.359   8.159   1.324
19883SOL    HW171711   6.361   8.245   1.375
19883SOL    HW271712   6.416   8.091   1.371
19884SOL     OW71713   5.596   9.186   1.395
19884SOL    HW171714   5.604   9.286   1.393
19884SOL    HW271715   5.572   9.157   1.488
19885SOL     OW71716   6.377   8.205   0.389
19885SOL    HW171717   6.288   8.233   0.354
19885SOL    HW271718   6.418   8.139   0.325
19886SOL     OW71719   5.899   7.923   0.928
19886SOL    HW171720   5.955   7.916   0.845
19886SOL    HW271721   5.956   7.901   1.008
19887SOL     OW71722   5.896   9.121   0.199
19887SOL    HW171723   5.988   9.151   0.174
19887SOL    HW271724   5.871   9.160   0.288
19888SOL     OW71725   6.872   9.143   1.136
19888SOL    HW171726   6.891   9.206   1.062
19888SOL    HW271727   6.880   9.049   1.103
19889SOL     OW71728   5.577   8.538   0.948
19889SOL    HW171729   5.487   8.554   0.909
19889SOL    HW271730   5.575   8.454   1.003
19890SOL     OW71731   6.328   7.443   0.398
19890SOL    HW171732   6.289   7.432   0.307
19890SOL    HW271733   6.284   7.519   0.445
19891SOL     OW71734   5.573   8.579   0.492
19891SOL    HW171735   5.651   8.637   0.516
19891SOL    HW271736   5.592   8.530   0.407
19892SOL     OW71737   6.939   7.459   0.163
19892SOL    HW171738   7.019   7.399   0.160
19892SOL    HW271739   6.865   7.412   0.211
19893SOL     OW71740   6.254   7.690   0.729
19893SOL    HW171741   6.243   7.632   0.810
19893SOL    HW271742   6.339   7.742   0.737
19894SOL     OW71743   7.127   7.447   0.437
19894SOL    HW171744   7.134   7.401   0.349
19894SOL    HW271745   7.031   7.457   0.462
19895SOL     OW71746   6.103   8.762   1.800
19895SOL    HW171747   6.064   8.825   1.733
19895SOL    HW271748   6.186   8.802   1.840
19896SOL     OW71749   5.979   8.494   1.632
19896SOL    HW171750   5.998   8.518   1.537
19896SOL    HW271751   5.972   8.577   1.687
19897SOL     OW71752   5.640   8.784   1.106
19897SOL    HW171753   5.609   8.710   1.047
19897SOL    HW271754   5.572   8.802   1.177
19898SOL     OW71755   7.326   8.012   1.675
19898SOL    HW171756   7.315   8.098   1.624
19898SOL    HW271757   7.420   8.003   1.705
19899SOL     OW71758   6.838   8.220   0.425
19899SOL    HW171759   6.784   8.218   0.509
19899SOL    HW271760   6.915   8.283   0.436
19900SOL     OW71761   7.135   8.316   0.645
19900SOL    HW171762   7.149   8.279   0.552
19900SOL    HW271763   7.046   8.286   0.679
19901SOL     OW71764   7.291   8.253   1.540
19901SOL    HW171765   7.193   8.274   1.542
19901SOL    HW271766   7.340   8.329   1.499
19902SOL     OW71767   7.145   7.673   0.219
19902SOL    HW171768   7.150   7.715   0.310
19902SOL    HW271769   7.078   7.598   0.221
19903SOL     OW71770   6.292   8.888   1.439
19903SOL    HW171771   6.229   8.966   1.446
19903SOL    HW271772   6.260   8.826   1.367
19904SOL     OW71773   5.563   9.097   1.648
19904SOL    HW171774   5.635   9.083   1.716
19904SOL    HW271775   5.474   9.100   1.693
19905SOL     OW71776   5.731   7.753   0.672
19905SOL    HW171777   5.674   7.808   0.733
19905SOL    HW271778   5.801   7.705   0.725
19906SOL     OW71779   6.903   8.985   1.535
19906SOL    HW171780   6.856   9.053   1.590
19906SOL    HW271781   6.970   9.031   1.476
19907SOL     OW71782   5.868   7.944   0.270
19907SOL    HW171783   5.940   7.973   0.207
19907SOL    HW271784   5.824   8.024   0.310
19908SOL     OW71785   5.983   9.207   0.736
19908SOL    HW171786   5.907   9.173   0.681
19908SOL    HW271787   6.069   9.170   0.701
19909SOL     OW71788   5.908   8.716   1.181
19909SOL    HW171789   5.920   8.732   1.278
19909SOL    HW271790   5.821   8.756   1.151
19910SOL     OW71791   6.792   8.920   1.827
19910SOL    HW171792   6.751   8.835   1.793
19910SOL    HW271793   6.772   8.994   1.763
19911SOL     OW71794   6.282   8.640   0.517
19911SOL    HW171795   6.325   8.571   0.459
19911SOL    HW271796   6.246   8.597   0.600
19912SOL     OW71797   5.914   8.191   0.719
19912SOL    HW171798   5.906   8.289   0.737
19912SOL    HW271799   5.998   8.157   0.760
19913SOL     OW71800   5.760   7.671   0.234
19913SOL    HW171801   5.804   7.640   0.151
19913SOL    HW271802   5.761   7.771   0.238
19914SOL     OW71803   5.613   7.923   0.845
19914SOL    HW171804   5.577   8.016   0.837
19914SOL    HW271805   5.696   7.924   0.901
19915SOL     OW71806   6.048   8.510   0.231
19915SOL    HW171807   6.148   8.510   0.242
19915SOL    HW271808   6.017   8.603   0.210
19916SOL     OW71809   6.674   8.102   0.047
19916SOL    HW171810   6.605   8.159   0.003
19916SOL    HW271811   6.755   8.096  -0.012
19917SOL     OW71812   6.409   8.021   0.190
19917SOL    HW171813   6.499   8.022   0.145
19917SOL    HW271814   6.386   7.927   0.215
19918SOL     OW71815   5.609   7.453   0.144
19918SOL    HW171816   5.672   7.376   0.152
19918SOL    HW271817   5.629   7.521   0.215
19919SOL     OW71818   5.882   8.428   1.145
19919SOL    HW171819   5.893   8.383   1.234
19919SOL    HW271820   5.909   8.524   1.152
19920SOL     OW71821   7.181   8.440   0.245
19920SOL    HW171822   7.252   8.510   0.247
19920SOL    HW271823   7.168   8.410   0.150
19921SOL     OW71824   6.163   8.041   1.167
19921SOL    HW171825   6.238   8.084   1.216
19921SOL    HW271826   6.096   8.006   1.233
19922SOL     OW71827   6.306   8.410   1.484
19922SOL    HW171828   6.375   8.462   1.434
19922SOL    HW271829   6.301   8.443   1.579
19923SOL     OW71830   6.698   8.431   1.644
19923SOL    HW171831   6.620   8.377   1.677
19923SOL    HW271832   6.779   8.409   1.699
19924SOL     OW71833   6.737   9.145   1.680
19924SOL    HW171834   6.642   9.143   1.648
19924SOL    HW271835   6.758   9.236   1.717
19925SOL     OW71836   6.155   7.490   0.911
19925SOL    HW171837   6.083   7.423   0.897
19925SOL    HW271838   6.237   7.444   0.946
19926SOL     OW71839   5.855   9.155   1.278
19926SOL    HW171840   5.835   9.137   1.182
19926SOL    HW271841   5.782   9.117   1.335
19927SOL     OW71842   6.548   8.619   0.823
19927SOL    HW171843   6.587   8.662   0.742
19927SOL    HW271844   6.621   8.602   0.890
19928SOL     OW71845   6.242   8.347   1.025
19928SOL    HW171846   6.240   8.263   0.970
19928SOL    HW271847   6.191   8.333   1.110
19929SOL     OW71848   5.581   8.357   1.151
19929SOL    HW171849   5.670   8.335   1.191
19929SOL    HW271850   5.526   8.273   1.147
19930SOL     OW71851   5.809   7.402   0.431
19930SOL    HW171852   5.847   7.490   0.458
19930SOL    HW271853   5.732   7.378   0.491
19931SOL     OW71854   6.225   8.019   1.759
19931SOL    HW171855   6.177   8.070   1.688
19931SOL    HW271856   6.318   7.998   1.729
19932SOL     OW71857   5.631   8.489   0.251
19932SOL    HW171858   5.621   8.392   0.230
19932SOL    HW271859   5.684   8.534   0.179
19933SOL     OW71860   7.328   7.601   0.852
19933SOL    HW171861   7.283   7.583   0.939
19933SOL    HW271862   7.426   7.618   0.868
19934SOL     OW71863   6.376   8.577   1.104
19934SOL    HW171864   6.327   8.492   1.085
19934SOL    HW271865   6.446   8.592   1.035
19935SOL     OW71866   6.714   8.000   0.313
19935SOL    HW171867   6.766   8.072   0.359
19935SOL    HW271868   6.727   8.007   0.215
19936SOL     OW71869   7.075   8.815   1.640
19936SOL    HW171870   7.060   8.717   1.654
19936SOL    HW271871   6.992   8.857   1.604
19937SOL     OW71872   5.832   8.257   1.380
19937SOL    HW171873   5.796   8.167   1.406
19937SOL    HW271874   5.793   8.327   1.440
19938SOL     OW71875   6.334   8.883   0.038
19938SOL    HW171876   6.309   8.960   0.097
19938SOL    HW271877   6.398   8.823   0.086
19939SOL     OW71878   6.152   9.090   1.072
19939SOL    HW171879   6.172   9.060   0.979
19939SOL    HW271880   6.077   9.035   1.109
19940SOL     OW71881   6.295   8.501   0.789
19940SOL    HW171882   6.384   8.547   0.789
19940SOL    HW271883   6.288   8.441   0.868
19941SOL     OW71884   6.473   8.848   0.458
19941SOL    HW171885   6.523   8.836   0.373
19941SOL    HW271886   6.419   8.765   0.477
19942SOL     OW71887   5.663   8.195   0.858
19942SOL    HW171888   5.758   8.186   0.826
19942SOL    HW271889   5.629   8.287   0.837
19943SOL     OW71890   6.497   9.221   1.491
19943SOL    HW171891   6.469   9.134   1.532
19943SOL    HW271892   6.441   9.295   1.528
19944SOL     OW71893   6.726   8.568   1.021
19944SOL    HW171894   6.710   8.662   1.052
19944SOL    HW271895   6.729   8.507   1.101
19945SOL     OW71896   6.000   7.839   1.785
19945SOL    HW171897   6.036   7.786   1.708
19945SOL    HW271898   6.061   7.916   1.803
19946SOL     OW71899   6.064   8.256   0.357
19946SOL    HW171900   6.014   8.321   0.301
19946SOL    HW271901   6.006   8.177   0.376
19947SOL     OW71902   7.145   8.287   1.055
19947SOL    HW171903   7.164   8.326   0.964
19947SOL    HW271904   7.099   8.356   1.111
19948SOL     OW71905   5.538   7.429   0.552
19948SOL    HW171906   5.451   7.416   0.505
19948SOL    HW271907   5.546   7.524   0.582
19949SOL     OW71908   6.759   7.530   1.793
19949SOL    HW171909   6.818   7.546   1.873
19949SOL    HW271910   6.706   7.613   1.774
19950SOL     OW71911   5.975   8.949   1.618
19950SOL    HW171912   5.917   9.014   1.667
19950SOL    HW271913   6.037   8.999   1.558
19951SOL     OW71914   7.331   8.836   1.559
19951SOL    HW171915   7.359   8.929   1.581
19951SOL    HW271916   7.238   8.820   1.592
19952SOL     OW71917   5.985   8.895   0.681
19952SOL    HW171918   5.983   8.796   0.694
19952SOL    HW271919   5.894   8.928   0.658
19953SOL     OW71920   6.626   9.012   1.269
19953SOL    HW171921   6.552   9.076   1.287
19953SOL    HW271922   6.705   9.061   1.231
19954SOL     OW71923   5.835   9.142   1.768
19954SOL    HW171924   5.878   9.226   1.734
19954SOL    HW271925   5.860   9.129   1.864
19955SOL     OW71926   5.695   8.678   1.639
19955SOL    HW171927   5.674   8.583   1.612
19955SOL    HW271928   5.626   8.739   1.601
19956SOL     OW71929   5.784   9.043   1.043
19956SOL    HW171930   5.726   8.963   1.057
19956SOL    HW271931   5.808   9.050   0.946
19957SOL     OW71932   6.592   8.570   0.414
19957SOL    HW171933   6.672   8.606   0.462
19957SOL    HW271934   6.550   8.497   0.470
19958SOL     OW71935   7.183   7.837   0.778
19958SOL    HW171936   7.202   7.923   0.825
19958SOL    HW271937   7.251   7.768   0.806
19959SOL     OW71938   6.326   8.509   0.264
19959SOL    HW171939   6.398   8.568   0.229
19959SOL    HW271940   6.366   8.425   0.300
19960SOL     OW71941   6.397   7.485   0.116
19960SOL    HW171942   6.472   7.419   0.128
19960SOL    HW271943   6.428   7.576   0.144
19961SOL     OW71944   6.076   7.914   0.728
19961SOL    HW171945   6.114   7.825   0.754
19961SOL    HW271946   6.143   7.964   0.673
19962SOL     OW71947   6.064   8.472   1.382
19962SOL    HW171948   6.160   8.452   1.402
19962SOL    HW271949   6.053   8.570   1.364
19963SOL     OW71950   7.286   8.515   1.351
19963SOL    HW171951   7.300   8.613   1.365
19963SOL    HW271952   7.343   8.484   1.275
19964SOL     OW71953   5.769   8.624   0.043
19964SOL    HW171954   5.761   8.636  -0.056
19964SOL    HW271955   5.828   8.695   0.081
19965SOL     OW71956   6.196   9.063   0.203
19965SOL    HW171957   6.171   9.158   0.187
19965SOL    HW271958   6.163   9.035   0.293
19966SOL     OW71959   6.846   8.486   1.427
19966SOL    HW171960   6.790   8.445   1.498
19966SOL    HW271961   6.826   8.584   1.421
19967SOL     OW71962   6.113   9.102   1.427
19967SOL    HW171963   6.162   9.182   1.391
19967SOL    HW271964   6.021   9.100   1.388
19968SOL     OW71965   7.195   8.944   1.028
19968SOL    HW171966   7.167   9.037   1.052
19968SOL    HW271967   7.245   8.903   1.104
19969SOL     OW71968   5.591   8.317   0.589
19969SOL    HW171969   5.598   8.416   0.576
19969SOL    HW271970   5.500   8.294   0.623
19970SOL     OW71971   6.100   8.115   1.527
19970SOL    HW171972   6.006   8.085   1.508
19970SOL    HW271973   6.109   8.212   1.504
19971SOL     OW71974   7.167   8.491   0.839
19971SOL    HW171975   7.129   8.580   0.812
19971SOL    HW271976   7.167   8.429   0.761
19972SOL     OW71977   6.325   7.897   1.008
19972SOL    HW171978   6.417   7.925   1.035
19972SOL    HW271979   6.257   7.948   1.062
19973SOL     OW71980   6.178   8.748   1.235
19973SOL    HW171981   6.091   8.747   1.186
19973SOL    HW271982   6.244   8.688   1.188
19974SOL     OW71983   5.744   8.090   1.149
19974SOL    HW171984   5.782   8.149   1.220
19974SOL    HW271985   5.727   8.143   1.067
19975SOL     OW71986   5.915   8.736   1.447
19975SOL    HW171987   5.934   8.824   1.491
19975SOL    HW271988   5.820   8.710   1.465
19976SOL     OW71989   7.158   9.052   1.795
19976SOL    HW171990   7.127   8.974   1.740
19976SOL    HW271991   7.127   9.137   1.753
19977SOL     OW71992   6.866   8.590   0.516
19977SOL    HW171993   6.965   8.594   0.532
19977SOL    HW271994   6.849   8.576   0.418
19978SOL     OW71995   6.219   7.756   0.464
19978SOL    HW171996   6.121   7.750   0.444
19978SOL    HW271997   6.238   7.713   0.552
19979SOL     OW71998   6.742   8.195   1.416
19979SOL    HW171999   6.841   8.204   1.406
19979SOL    HW272000   6.698   8.197   1.326
19980SOL     OW72001   6.236   8.155   0.818
19980SOL    HW172002   6.258   8.077   0.876
19980SOL    HW272003   6.245   8.129   0.722
19981SOL     OW72004   6.901   8.862   1.030
19981SOL    HW172005   6.815   8.819   1.059
19981SOL    HW272006   6.890   8.902   0.939
19982SOL     OW72007   6.631   8.863   2.537
19982SOL    HW172008   6.722   8.897   2.560
19982SOL    HW272009   6.603   8.901   2.449
19983SOL     OW72010   7.142   8.659   2.395
19983SOL    HW172011   7.153   8.743   2.449
19983SOL    HW272012   7.232   8.622   2.372
19984SOL     OW72013   7.222   7.941   3.259
19984SOL    HW172014   7.124   7.933   3.281
19984SOL    HW272015   7.275   7.930   3.343
19985SOL     OW72016   5.889   7.578   1.864
19985SOL    HW172017   5.802   7.575   1.815
19985SOL    HW272018   5.940   7.660   1.836
19986SOL     OW72019   6.876   8.967   2.639
19986SOL    HW172020   6.865   9.064   2.662
19986SOL    HW272021   6.969   8.950   2.609
19987SOL     OW72022   6.754   7.478   3.197
19987SOL    HW172023   6.678   7.433   3.244
19987SOL    HW272024   6.783   7.423   3.119
19988SOL     OW72025   6.492   8.258   3.574
19988SOL    HW172026   6.457   8.233   3.484
19988SOL    HW272027   6.416   8.279   3.635
19989SOL     OW72028   6.099   8.932   2.268
19989SOL    HW172029   6.055   8.941   2.357
19989SOL    HW272030   6.170   8.862   2.272
19990SOL     OW72031   6.117   7.465   1.990
19990SOL    HW172032   6.205   7.493   1.951
19990SOL    HW272033   6.045   7.528   1.960
19991SOL     OW72034   7.087   8.450   3.373
19991SOL    HW172035   6.995   8.455   3.335
19991SOL    HW272036   7.152   8.488   3.307
19992SOL     OW72037   6.987   8.457   3.054
19992SOL    HW172038   6.912   8.446   3.119
19992SOL    HW272039   7.024   8.550   3.060
19993SOL     OW72040   6.483   8.712   3.354
19993SOL    HW172041   6.426   8.775   3.300
19993SOL    HW272042   6.516   8.638   3.295
19994SOL     OW72043   6.026   8.605   2.563
19994SOL    HW172044   5.959   8.559   2.622
19994SOL    HW272045   6.118   8.573   2.586
19995SOL     OW72046   6.253   8.011   2.394
19995SOL    HW172047   6.292   8.081   2.335
19995SOL    HW272048   6.227   7.931   2.340
19996SOL     OW72049   6.873   7.919   3.603
19996SOL    HW172050   6.969   7.923   3.629
19996SOL    HW272051   6.829   7.843   3.650
19997SOL     OW72052   5.956   8.774   2.047
19997SOL    HW172053   6.020   8.790   1.972
19997SOL    HW272054   5.980   8.832   2.125
19998SOL     OW72055   6.107   7.730   2.857
19998SOL    HW172056   6.183   7.795   2.853
19998SOL    HW272057   6.137   7.641   2.824
19999SOL     OW72058   5.804   8.156   2.275
19999SOL    HW172059   5.819   8.090   2.349
19999SOL    HW272060   5.754   8.235   2.310
20000SOL     OW72061   6.390   9.101   2.452
20000SOL    HW172062   6.455   9.034   2.416
20000SOL    HW272063   6.380   9.177   2.388
20001SOL     OW72064   7.282   8.983   2.194
20001SOL    HW172065   7.378   8.957   2.187
20001SOL    HW272066   7.258   9.043   2.118
20002SOL     OW72067   7.194   7.676   2.965
20002SOL    HW172068   7.245   7.748   2.918
20002SOL    HW272069   7.099   7.703   2.974
20003SOL     OW72070   6.594   7.705   2.234
20003SOL    HW172071   6.619   7.799   2.255
20003SOL    HW272072   6.595   7.651   2.318
20004SOL     OW72073   5.718   8.418   3.419
20004SOL    HW172074   5.814   8.433   3.437
20004SOL    HW272075   5.680   8.356   3.488
20005SOL     OW72076   6.044   8.063   1.962
20005SOL    HW172077   6.004   8.142   1.915
20005SOL    HW272078   6.133   8.042   1.922
20006SOL     OW72079   6.217   8.987   2.660
20006SOL    HW172080   6.290   9.010   2.596
20006SOL    HW272081   6.146   8.934   2.614
20007SOL     OW72082   6.559   8.019   3.414
20007SOL    HW172083   6.592   7.936   3.461
20007SOL    HW272084   6.632   8.087   3.413
20008SOL     OW72085   7.163   8.819   2.636
20008SOL    HW172086   7.159   8.854   2.729
20008SOL    HW272087   7.222   8.878   2.580
20009SOL     OW72088   5.894   8.640   2.312
20009SOL    HW172089   5.940   8.614   2.397
20009SOL    HW272090   5.914   8.572   2.241
20010SOL     OW72091   6.752   7.695   2.023
20010SOL    HW172092   6.846   7.665   2.041
20010SOL    HW272093   6.700   7.695   2.109
20011SOL     OW72094   5.904   7.900   3.118
20011SOL    HW172095   5.894   7.813   3.070
20011SOL    HW272096   5.840   7.967   3.081
20012SOL     OW72097   6.986   8.180   3.156
20012SOL    HW172098   6.990   8.274   3.121
20012SOL    HW272099   7.079   8.149   3.178
20013SOL     OW72100   5.939   7.672   2.277
20013SOL    HW172101   5.893   7.712   2.356
20013SOL    HW272102   5.887   7.691   2.195
20014SOL     OW72103   7.067   9.199   3.189
20014SOL    HW172104   7.010   9.150   3.123
20014SOL    HW272105   7.153   9.226   3.146
20015SOL     OW72106   7.362   7.917   3.044
20015SOL    HW172107   7.419   7.999   3.046
20015SOL    HW272108   7.303   7.916   3.124
20016SOL     OW72109   7.379   9.143   2.957
20016SOL    HW172110   7.425   9.153   3.045
20016SOL    HW272111   7.446   9.146   2.884
20017SOL     OW72112   6.492   7.883   2.519
20017SOL    HW172113   6.568   7.911   2.578
20017SOL    HW272114   6.448   7.963   2.480
20018SOL     OW72115   6.727   8.347   2.036
20018SOL    HW172116   6.764   8.297   2.114
20018SOL    HW272117   6.657   8.292   1.991
20019SOL     OW72118   6.569   7.769   3.657
20019SOL    HW172119   6.632   7.774   3.734
20019SOL    HW272120   6.477   7.747   3.690
20020SOL     OW72121   7.310   8.016   2.115
20020SOL    HW172122   7.331   7.935   2.061
20020SOL    HW272123   7.327   7.997   2.212
20021SOL     OW72124   6.604   9.154   2.023
20021SOL    HW172125   6.638   9.067   1.988
20021SOL    HW272126   6.572   9.142   2.117
20022SOL     OW72127   6.285   7.421   3.555
20022SOL    HW172128   6.292   7.327   3.522
20022SOL    HW272129   6.342   7.431   3.637
20023SOL     OW72130   7.208   8.022   2.823
20023SOL    HW172131   7.193   8.113   2.860
20023SOL    HW272132   7.278   7.975   2.877
20024SOL     OW72133   6.618   8.688   3.589
20024SOL    HW172134   6.640   8.598   3.551
20024SOL    HW272135   6.553   8.735   3.530
20025SOL     OW72136   6.273   8.530   3.593
20025SOL    HW172137   6.244   8.607   3.650
20025SOL    HW272138   6.283   8.449   3.651
20026SOL     OW72139   5.566   8.004   2.372
20026SOL    HW172140   5.568   7.955   2.459
20026SOL    HW272141   5.568   8.103   2.390
20027SOL     OW72142   5.887   7.592   2.693
20027SOL    HW172143   5.939   7.632   2.768
20027SOL    HW272144   5.940   7.519   2.650
20028SOL     OW72145   5.871   7.640   3.027
20028SOL    HW172146   5.836   7.547   3.027
20028SOL    HW272147   5.958   7.643   2.978
20029SOL     OW72148   6.538   8.262   2.767
20029SOL    HW172149   6.564   8.342   2.713
20029SOL    HW272150   6.532   8.182   2.707
20030SOL     OW72151   5.739   8.889   2.226
20030SOL    HW172152   5.766   8.795   2.246
20030SOL    HW272153   5.764   8.911   2.132
20031SOL     OW72154   7.021   8.758   3.100
20031SOL    HW172155   6.992   8.795   3.011
20031SOL    HW272156   6.943   8.758   3.162
20032SOL     OW72157   5.753   9.032   2.463
20032SOL    HW172158   5.669   9.083   2.481
20032SOL    HW272159   5.744   8.981   2.378
20033SOL     OW72160   7.274   8.829   3.138
20033SOL    HW172161   7.305   8.843   3.232
20033SOL    HW272162   7.175   8.816   3.137
20034SOL     OW72163   6.026   8.329   1.865
20034SOL    HW172164   5.995   8.363   1.777
20034SOL    HW272165   6.030   8.404   1.931
20035SOL     OW72166   6.543   8.516   3.164
20035SOL    HW172167   6.593   8.431   3.148
20035SOL    HW272168   6.497   8.543   3.079
20036SOL     OW72169   5.630   8.221   2.038
20036SOL    HW172170   5.690   8.168   2.098
20036SOL    HW272171   5.536   8.189   2.050
20037SOL     OW72172   7.150   8.219   2.238
20037SOL    HW172173   7.218   8.153   2.205
20037SOL    HW272174   7.165   8.307   2.194
20038SOL     OW72175   6.398   9.206   2.886
20038SOL    HW172176   6.444   9.139   2.828
20038SOL    HW272177   6.324   9.162   2.936
20039SOL     OW72178   6.305   8.275   1.922
20039SOL    HW172179   6.334   8.194   1.973
20039SOL    HW272180   6.205   8.274   1.913
20040SOL     OW72181   6.901   7.807   2.268
20040SOL    HW172182   6.838   7.865   2.216
20040SOL    HW272183   6.994   7.841   2.256
20041SOL     OW72184   5.798   8.008   3.368
20041SOL    HW172185   5.818   7.913   3.343
20041SOL    HW272186   5.761   8.011   3.461
20042SOL     OW72187   5.680   7.663   3.258
20042SOL    HW172188   5.752   7.673   3.189
20042SOL    HW272189   5.591   7.662   3.213
20043SOL     OW72190   6.578   8.284   3.023
20043SOL    HW172191   6.572   8.270   2.924
20043SOL    HW272192   6.497   8.245   3.067
20044SOL     OW72193   6.453   8.893   2.775
20044SOL    HW172194   6.511   8.904   2.694
20044SOL    HW272195   6.359   8.917   2.753
20045SOL     OW72196   6.403   7.759   2.060
20045SOL    HW172197   6.312   7.772   2.098
20045SOL    HW272198   6.463   7.719   2.130
20046SOL     OW72199   6.514   8.704   1.995
20046SOL    HW172200   6.567   8.644   2.055
20046SOL    HW272201   6.553   8.705   1.904
20047SOL     OW72202   7.265   8.999   2.480
20047SOL    HW172203   7.232   9.092   2.499
20047SOL    HW272204   7.263   8.983   2.381
20048SOL     OW72205   6.680   8.272   2.469
20048SOL    HW172206   6.745   8.300   2.540
20048SOL    HW272207   6.601   8.333   2.471
20049SOL     OW72208   6.428   8.998   3.493
20049SOL    HW172209   6.416   8.929   3.422
20049SOL    HW272210   6.391   8.963   3.580
20050SOL     OW72211   6.872   8.312   2.672
20050SOL    HW172212   6.893   8.254   2.750
20050SOL    HW272213   6.881   8.408   2.698
20051SOL     OW72214   5.828   8.441   2.718
20051SOL    HW172215   5.751   8.503   2.711
20051SOL    HW272216   5.865   8.442   2.811
20052SOL     OW72217   6.461   8.389   2.417
20052SOL    HW172218   6.448   8.300   2.374
20052SOL    HW272219   6.392   8.403   2.488
20053SOL     OW72220   6.765   8.777   3.256
20053SOL    HW172221   6.798   8.862   3.297
20053SOL    HW272222   6.666   8.773   3.263
20054SOL     OW72223   7.195   9.192   2.011
20054SOL    HW172224   7.285   9.236   2.013
20054SOL    HW272225   7.194   9.123   1.939
20055SOL     OW72226   6.359   8.159   3.169
20055SOL    HW172227   6.361   8.245   3.220
20055SOL    HW272228   6.416   8.091   3.216
20056SOL     OW72229   5.596   9.186   3.240
20056SOL    HW172230   5.604   9.286   3.238
20056SOL    HW272231   5.572   9.157   3.333
20057SOL     OW72232   6.377   8.205   2.234
20057SOL    HW172233   6.288   8.233   2.199
20057SOL    HW272234   6.418   8.139   2.170
20058SOL     OW72235   5.899   7.923   2.773
20058SOL    HW172236   5.955   7.916   2.690
20058SOL    HW272237   5.956   7.901   2.853
20059SOL     OW72238   5.896   9.121   2.044
20059SOL    HW172239   5.988   9.151   2.019
20059SOL    HW272240   5.871   9.160   2.133
20060SOL     OW72241   6.872   9.143   2.981
20060SOL    HW172242   6.891   9.206   2.907
20060SOL    HW272243   6.880   9.049   2.948
20061SOL     OW72244   5.577   8.538   2.793
20061SOL    HW172245   5.487   8.554   2.754
20061SOL    HW272246   5.575   8.454   2.848
20062SOL     OW72247   6.328   7.443   2.243
20062SOL    HW172248   6.289   7.432   2.152
20062SOL    HW272249   6.284   7.519   2.290
20063SOL     OW72250   5.573   8.579   2.337
20063SOL    HW172251   5.651   8.637   2.361
20063SOL    HW272252   5.592   8.530   2.252
20064SOL     OW72253   7.103   7.707   3.421
20064SOL    HW172254   7.042   7.785   3.418
20064SOL    HW272255   7.158   7.711   3.504
20065SOL     OW72256   6.819   7.653   2.712
20065SOL    HW172257   6.818   7.731   2.649
20065SOL    HW272258   6.862   7.680   2.798
20066SOL     OW72259   6.939   7.459   2.008
20066SOL    HW172260   7.019   7.399   2.005
20066SOL    HW272261   6.865   7.412   2.056
20067SOL     OW72262   7.152   7.431   3.442
20067SOL    HW172263   7.178   7.388   3.356
20067SOL    HW272264   7.102   7.515   3.424
20068SOL     OW72265   6.254   7.690   2.574
20068SOL    HW172266   6.243   7.632   2.655
20068SOL    HW272267   6.339   7.742   2.582
20069SOL     OW72268   6.834   8.041   2.966
20069SOL    HW172269   6.888   8.081   2.892
20069SOL    HW272270   6.872   8.070   3.054
20070SOL     OW72271   6.103   8.762   3.645
20070SOL    HW172272   6.064   8.825   3.578
20070SOL    HW272273   6.186   8.802   3.685
20071SOL     OW72274   5.979   8.494   3.477
20071SOL    HW172275   5.998   8.518   3.382
20071SOL    HW272276   5.972   8.577   3.532
20072SOL     OW72277   5.640   8.784   2.951
20072SOL    HW172278   5.609   8.710   2.892
20072SOL    HW272279   5.572   8.802   3.022
20073SOL     OW72280   6.726   7.985   2.684
20073SOL    HW172281   6.808   7.962   2.632
20073SOL    HW272282   6.721   7.926   2.765
20074SOL     OW72283   7.326   8.012   3.520
20074SOL    HW172284   7.315   8.098   3.469
20074SOL    HW272285   7.420   8.003   3.550
20075SOL     OW72286   6.897   7.785   2.939
20075SOL    HW172287   6.871   7.882   2.945
20075SOL    HW272288   6.897   7.745   3.031
20076SOL     OW72289   7.127   7.917   3.690
20076SOL    HW172290   7.207   7.942   3.634
20076SOL    HW272291   7.158   7.882   3.778
20077SOL     OW72292   6.838   8.220   2.270
20077SOL    HW172293   6.784   8.218   2.354
20077SOL    HW272294   6.915   8.283   2.281
20078SOL     OW72295   7.135   8.316   2.490
20078SOL    HW172296   7.149   8.279   2.397
20078SOL    HW272297   7.046   8.286   2.524
20079SOL     OW72298   7.291   8.253   3.385
20079SOL    HW172299   7.193   8.274   3.387
20079SOL    HW272300   7.340   8.329   3.344
20080SOL     OW72301   6.292   8.888   3.284
20080SOL    HW172302   6.229   8.966   3.291
20080SOL    HW272303   6.260   8.826   3.212
20081SOL     OW72304   5.683   7.683   3.549
20081SOL    HW172305   5.701   7.672   3.451
20081SOL    HW272306   5.585   7.679   3.566
20082SOL     OW72307   5.563   9.097   3.493
20082SOL    HW172308   5.635   9.083   3.561
20082SOL    HW272309   5.474   9.100   3.538
20083SOL     OW72310   5.731   7.753   2.517
20083SOL    HW172311   5.674   7.808   2.578
20083SOL    HW272312   5.801   7.705   2.570
20084SOL     OW72313   6.903   8.985   3.380
20084SOL    HW172314   6.856   9.053   3.435
20084SOL    HW272315   6.970   9.031   3.321
20085SOL     OW72316   5.868   7.944   2.115
20085SOL    HW172317   5.940   7.973   2.052
20085SOL    HW272318   5.824   8.024   2.155
20086SOL     OW72319   7.254   7.606   3.218
20086SOL    HW172320   7.210   7.654   3.294
20086SOL    HW272321   7.232   7.652   3.132
20087SOL     OW72322   5.983   9.207   2.581
20087SOL    HW172323   5.907   9.173   2.526
20087SOL    HW272324   6.069   9.170   2.546
20088SOL     OW72325   5.908   8.716   3.026
20088SOL    HW172326   5.920   8.732   3.123
20088SOL    HW272327   5.821   8.756   2.996
20089SOL     OW72328   6.792   8.920   3.672
20089SOL    HW172329   6.751   8.835   3.638
20089SOL    HW272330   6.772   8.994   3.608
20090SOL     OW72331   6.282   8.640   2.362
20090SOL    HW172332   6.325   8.571   2.304
20090SOL    HW272333   6.246   8.597   2.445
20091SOL     OW72334   5.914   8.191   2.564
20091SOL    HW172335   5.906   8.289   2.582
20091SOL    HW272336   5.998   8.157   2.605
20092SOL     OW72337   5.613   7.923   2.690
20092SOL    HW172338   5.577   8.016   2.682
20092SOL    HW272339   5.696   7.924   2.746
20093SOL     OW72340   6.048   8.510   2.076
20093SOL    HW172341   6.148   8.510   2.087
20093SOL    HW272342   6.017   8.603   2.055
20094SOL     OW72343   6.674   8.102   1.892
20094SOL    HW172344   6.605   8.159   1.848
20094SOL    HW272345   6.755   8.096   1.833
20095SOL     OW72346   6.409   8.021   2.035
20095SOL    HW172347   6.499   8.022   1.990
20095SOL    HW272348   6.386   7.927   2.060
20096SOL     OW72349   6.860   7.538   2.329
20096SOL    HW172350   6.770   7.522   2.370
20096SOL    HW272351   6.868   7.634   2.303
20097SOL     OW72352   6.974   7.938   3.345
20097SOL    HW172353   6.926   7.961   3.429
20097SOL    HW272354   6.908   7.908   3.276
20098SOL     OW72355   5.882   8.428   2.990
20098SOL    HW172356   5.893   8.383   3.079
20098SOL    HW272357   5.909   8.524   2.997
20099SOL     OW72358   7.181   8.440   2.090
20099SOL    HW172359   7.252   8.510   2.092
20099SOL    HW272360   7.168   8.410   1.995
20100SOL     OW72361   6.163   8.041   3.012
20100SOL    HW172362   6.238   8.084   3.061
20100SOL    HW272363   6.096   8.006   3.078
20101SOL     OW72364   6.306   8.410   3.329
20101SOL    HW172365   6.375   8.462   3.279
20101SOL    HW272366   6.301   8.443   3.424
20102SOL     OW72367   6.698   8.431   3.489
20102SOL    HW172368   6.620   8.377   3.522
20102SOL    HW272369   6.779   8.409   3.544
20103SOL     OW72370   6.627   7.613   2.485
20103SOL    HW172371   6.686   7.673   2.540
20103SOL    HW272372   6.554   7.577   2.542
20104SOL     OW72373   6.737   9.145   3.525
20104SOL    HW172374   6.642   9.143   3.493
20104SOL    HW272375   6.758   9.236   3.562
20105SOL     OW72376   6.155   7.490   2.756
20105SOL    HW172377   6.083   7.423   2.742
20105SOL    HW272378   6.237   7.444   2.791
20106SOL     OW72379   5.855   9.155   3.123
20106SOL    HW172380   5.835   9.137   3.027
20106SOL    HW272381   5.782   9.117   3.180
20107SOL     OW72382   6.548   8.619   2.668
20107SOL    HW172383   6.587   8.662   2.587
20107SOL    HW272384   6.621   8.602   2.735
20108SOL     OW72385   6.242   8.347   2.870
20108SOL    HW172386   6.240   8.263   2.815
20108SOL    HW272387   6.191   8.333   2.955
20109SOL     OW72388   5.581   8.357   2.996
20109SOL    HW172389   5.670   8.335   3.036
20109SOL    HW272390   5.526   8.273   2.992
20110SOL     OW72391   5.809   7.402   2.276
20110SOL    HW172392   5.847   7.490   2.303
20110SOL    HW272393   5.732   7.378   2.336
20111SOL     OW72394   6.225   8.019   3.604
20111SOL    HW172395   6.177   8.070   3.533
20111SOL    HW272396   6.318   7.998   3.574
20112SOL     OW72397   5.631   8.489   2.096
20112SOL    HW172398   5.621   8.392   2.075
20112SOL    HW272399   5.684   8.534   2.024
20113SOL     OW72400   6.376   8.577   2.949
20113SOL    HW172401   6.327   8.492   2.930
20113SOL    HW272402   6.446   8.592   2.880
20114SOL     OW72403   6.714   8.000   2.158
20114SOL    HW172404   6.766   8.072   2.204
20114SOL    HW272405   6.727   8.007   2.060
20115SOL     OW72406   7.075   8.815   3.485
20115SOL    HW172407   7.060   8.717   3.499
20115SOL    HW272408   6.992   8.857   3.449
20116SOL     OW72409   5.832   8.257   3.225
20116SOL    HW172410   5.796   8.167   3.251
20116SOL    HW272411   5.793   8.327   3.285
20117SOL     OW72412   6.334   8.883   1.883
20117SOL    HW172413   6.309   8.960   1.942
20117SOL    HW272414   6.398   8.823   1.931
20118SOL     OW72415   6.152   9.090   2.917
20118SOL    HW172416   6.172   9.060   2.824
20118SOL    HW272417   6.077   9.035   2.954
20119SOL     OW72418   6.295   8.501   2.634
20119SOL    HW172419   6.384   8.547   2.634
20119SOL    HW272420   6.288   8.441   2.713
20120SOL     OW72421   6.473   8.848   2.303
20120SOL    HW172422   6.523   8.836   2.218
20120SOL    HW272423   6.419   8.765   2.322
20121SOL     OW72424   5.663   8.195   2.703
20121SOL    HW172425   5.758   8.186   2.671
20121SOL    HW272426   5.629   8.287   2.682
20122SOL     OW72427   6.497   9.221   3.336
20122SOL    HW172428   6.469   9.134   3.377
20122SOL    HW272429   6.441   9.295   3.373
20123SOL     OW72430   6.726   8.568   2.866
20123SOL    HW172431   6.710   8.662   2.897
20123SOL    HW272432   6.729   8.507   2.946
20124SOL     OW72433   6.000   7.839   3.630
20124SOL    HW172434   6.036   7.786   3.553
20124SOL    HW272435   6.061   7.916   3.648
20125SOL     OW72436   6.064   8.256   2.202
20125SOL    HW172437   6.014   8.321   2.146
20125SOL    HW272438   6.006   8.177   2.221
20126SOL     OW72439   7.145   8.287   2.900
20126SOL    HW172440   7.164   8.326   2.809
20126SOL    HW272441   7.099   8.356   2.956
20127SOL     OW72442   6.837   7.730   3.196
20127SOL    HW172443   6.908   7.702   3.260
20127SOL    HW272444   6.784   7.650   3.168
20128SOL     OW72445   5.538   7.429   2.397
20128SOL    HW172446   5.451   7.416   2.350
20128SOL    HW272447   5.546   7.524   2.427
20129SOL     OW72448   6.759   7.530   3.638
20129SOL    HW172449   6.818   7.546   3.718
20129SOL    HW272450   6.706   7.613   3.619
20130SOL     OW72451   5.975   8.949   3.463
20130SOL    HW172452   5.917   9.014   3.512
20130SOL    HW272453   6.037   8.999   3.403
20131SOL     OW72454   7.331   8.836   3.404
20131SOL    HW172455   7.359   8.929   3.426
20131SOL    HW272456   7.238   8.820   3.437
20132SOL     OW72457   6.581   7.949   2.954
20132SOL    HW172458   6.667   8.000   2.953
20132SOL    HW272459   6.587   7.875   3.021
20133SOL     OW72460   5.985   8.895   2.526
20133SOL    HW172461   5.983   8.796   2.539
20133SOL    HW272462   5.894   8.928   2.503
20134SOL     OW72463   6.626   9.012   3.114
20134SOL    HW172464   6.552   9.076   3.132
20134SOL    HW272465   6.705   9.061   3.076
20135SOL     OW72466   5.835   9.142   3.613
20135SOL    HW172467   5.878   9.226   3.579
20135SOL    HW272468   5.860   9.129   3.709
20136SOL     OW72469   5.695   8.678   3.484
20136SOL    HW172470   5.674   8.583   3.457
20136SOL    HW272471   5.626   8.739   3.446
20137SOL     OW72472   5.784   9.043   2.888
20137SOL    HW172473   5.726   8.963   2.902
20137SOL    HW272474   5.808   9.050   2.791
20138SOL     OW72475   6.530   7.564   2.743
20138SOL    HW172476   6.626   7.565   2.771
20138SOL    HW272477   6.475   7.521   2.815
20139SOL     OW72478   6.592   8.570   2.259
20139SOL    HW172479   6.672   8.606   2.307
20139SOL    HW272480   6.550   8.497   2.315
20140SOL     OW72481   7.183   7.837   2.623
20140SOL    HW172482   7.202   7.923   2.670
20140SOL    HW272483   7.251   7.768   2.651
20141SOL     OW72484   6.326   8.509   2.109
20141SOL    HW172485   6.398   8.568   2.074
20141SOL    HW272486   6.366   8.425   2.145
20142SOL     OW72487   6.397   7.485   1.961
20142SOL    HW172488   6.472   7.419   1.973
20142SOL    HW272489   6.428   7.576   1.989
20143SOL     OW72490   6.076   7.914   2.573
20143SOL    HW172491   6.114   7.825   2.599
20143SOL    HW272492   6.143   7.964   2.518
20144SOL     OW72493   6.064   8.472   3.227
20144SOL    HW172494   6.160   8.452   3.247
20144SOL    HW272495   6.053   8.570   3.209
20145SOL     OW72496   7.286   8.515   3.196
20145SOL    HW172497   7.300   8.613   3.210
20145SOL    HW272498   7.343   8.484   3.120
20146SOL     OW72499   5.769   8.624   1.888
20146SOL    HW172500   5.761   8.636   1.789
20146SOL    HW272501   5.828   8.695   1.926
20147SOL     OW72502   6.196   9.063   2.048
20147SOL    HW172503   6.171   9.158   2.032
20147SOL    HW272504   6.163   9.035   2.138
20148SOL     OW72505   6.846   8.486   3.272
20148SOL    HW172506   6.790   8.445   3.343
20148SOL    HW272507   6.826   8.584   3.266
20149SOL     OW72508   6.113   9.102   3.272
20149SOL    HW172509   6.162   9.182   3.236
20149SOL    HW272510   6.021   9.100   3.233
20150SOL     OW72511   5.756   7.983   3.634
20150SOL    HW172512   5.773   7.884   3.639
20150SOL    HW272513   5.820   8.031   3.695
20151SOL     OW72514   7.195   8.944   2.873
20151SOL    HW172515   7.167   9.037   2.897
20151SOL    HW272516   7.245   8.903   2.949
20152SOL     OW72517   5.591   8.317   2.434
20152SOL    HW172518   5.598   8.416   2.421
20152SOL    HW272519   5.500   8.294   2.468
20153SOL     OW72520   6.100   8.115   3.372
20153SOL    HW172521   6.006   8.085   3.353
20153SOL    HW272522   6.109   8.212   3.349
20154SOL     OW72523   7.167   8.491   2.684
20154SOL    HW172524   7.129   8.580   2.657
20154SOL    HW272525   7.167   8.429   2.606
20155SOL     OW72526   6.325   7.897   2.853
20155SOL    HW172527   6.417   7.925   2.880
20155SOL    HW272528   6.257   7.948   2.907
20156SOL     OW72529   6.178   8.748   3.080
20156SOL    HW172530   6.091   8.747   3.031
20156SOL    HW272531   6.244   8.688   3.033
20157SOL     OW72532   5.744   8.090   2.994
20157SOL    HW172533   5.782   8.149   3.065
20157SOL    HW272534   5.727   8.143   2.912
20158SOL     OW72535   5.915   8.736   3.292
20158SOL    HW172536   5.934   8.824   3.336
20158SOL    HW272537   5.820   8.710   3.310
20159SOL     OW72538   7.158   9.052   3.640
20159SOL    HW172539   7.127   8.974   3.585
20159SOL    HW272540   7.127   9.137   3.598
20160SOL     OW72541   6.866   8.590   2.361
20160SOL    HW172542   6.965   8.594   2.377
20160SOL    HW272543   6.849   8.576   2.263
20161SOL     OW72544   6.219   7.756   2.309
20161SOL    HW172545   6.121   7.750   2.289
20161SOL    HW272546   6.238   7.713   2.397
20162SOL     OW72547   6.742   8.195   3.261
20162SOL    HW172548   6.841   8.204   3.251
20162SOL    HW272549   6.698   8.197   3.171
20163SOL     OW72550   6.236   8.155   2.663
20163SOL    HW172551   6.258   8.077   2.721
20163SOL    HW272552   6.245   8.129   2.567
20164SOL     OW72553   6.901   8.862   2.875
20164SOL    HW172554   6.815   8.819   2.904
20164SOL    HW272555   6.890   8.902   2.784
20165SOL     OW72556   6.904   7.847   2.550
20165SOL    HW172557   6.903   7.839   2.451
20165SOL    HW272558   6.993   7.819   2.585
20166SOL     OW72559   6.631   8.863   4.383
20166SOL    HW172560   6.722   8.897   4.406
20166SOL    HW272561   6.603   8.901   4.295
20167SOL     OW72562   7.142   8.659   4.241
20167SOL    HW172563   7.153   8.743   4.295
20167SOL    HW272564   7.232   8.622   4.218
20168SOL     OW72565   7.222   7.941   5.105
20168SOL    HW172566   7.124   7.933   5.127
20168SOL    HW272567   7.275   7.930   5.189
20169SOL     OW72568   5.889   7.578   3.710
20169SOL    HW172569   5.802   7.575   3.661
20169SOL    HW272570   5.940   7.660   3.682
20170SOL     OW72571   6.876   8.967   4.485
20170SOL    HW172572   6.865   9.064   4.508
20170SOL    HW272573   6.969   8.950   4.455
20171SOL     OW72574   6.754   7.478   5.043
20171SOL    HW172575   6.678   7.433   5.090
20171SOL    HW272576   6.783   7.423   4.965
20172SOL     OW72577   6.492   8.258   5.420
20172SOL    HW172578   6.457   8.233   5.330
20172SOL    HW272579   6.416   8.279   5.481
20173SOL     OW72580   6.099   8.932   4.114
20173SOL    HW172581   6.055   8.941   4.203
20173SOL    HW272582   6.170   8.862   4.118
20174SOL     OW72583   6.117   7.465   3.836
20174SOL    HW172584   6.205   7.493   3.797
20174SOL    HW272585   6.045   7.528   3.806
20175SOL     OW72586   7.087   8.450   5.219
20175SOL    HW172587   6.995   8.455   5.181
20175SOL    HW272588   7.152   8.488   5.153
20176SOL     OW72589   6.987   8.457   4.900
20176SOL    HW172590   6.912   8.446   4.965
20176SOL    HW272591   7.024   8.550   4.906
20177SOL     OW72592   6.483   8.712   5.200
20177SOL    HW172593   6.426   8.775   5.146
20177SOL    HW272594   6.516   8.638   5.141
20178SOL     OW72595   6.026   8.605   4.409
20178SOL    HW172596   5.959   8.559   4.468
20178SOL    HW272597   6.118   8.573   4.432
20179SOL     OW72598   6.253   8.011   4.240
20179SOL    HW172599   6.292   8.081   4.181
20179SOL    HW272600   6.227   7.931   4.186
20180SOL     OW72601   6.873   7.919   5.449
20180SOL    HW172602   6.969   7.923   5.475
20180SOL    HW272603   6.829   7.843   5.496
20181SOL     OW72604   5.956   8.774   3.893
20181SOL    HW172605   6.020   8.790   3.818
20181SOL    HW272606   5.980   8.832   3.971
20182SOL     OW72607   6.107   7.730   4.703
20182SOL    HW172608   6.183   7.795   4.699
20182SOL    HW272609   6.137   7.641   4.670
20183SOL     OW72610   6.390   9.101   4.298
20183SOL    HW172611   6.455   9.034   4.262
20183SOL    HW272612   6.380   9.177   4.234
20184SOL     OW72613   7.282   8.983   4.040
20184SOL    HW172614   7.378   8.957   4.033
20184SOL    HW272615   7.258   9.043   3.964
20185SOL     OW72616   7.194   7.676   4.811
20185SOL    HW172617   7.245   7.748   4.764
20185SOL    HW272618   7.099   7.703   4.820
20186SOL     OW72619   6.594   7.705   4.080
20186SOL    HW172620   6.619   7.799   4.101
20186SOL    HW272621   6.595   7.651   4.164
20187SOL     OW72622   5.718   8.418   5.265
20187SOL    HW172623   5.814   8.433   5.283
20187SOL    HW272624   5.680   8.356   5.334
20188SOL     OW72625   6.044   8.063   3.808
20188SOL    HW172626   6.004   8.142   3.761
20188SOL    HW272627   6.133   8.042   3.768
20189SOL     OW72628   6.217   8.987   4.506
20189SOL    HW172629   6.290   9.010   4.442
20189SOL    HW272630   6.146   8.934   4.460
20190SOL     OW72631   6.559   8.019   5.260
20190SOL    HW172632   6.592   7.936   5.307
20190SOL    HW272633   6.632   8.087   5.259
20191SOL     OW72634   7.163   8.819   4.482
20191SOL    HW172635   7.159   8.854   4.575
20191SOL    HW272636   7.222   8.878   4.426
20192SOL     OW72637   5.894   8.640   4.158
20192SOL    HW172638   5.940   8.614   4.243
20192SOL    HW272639   5.914   8.572   4.087
20193SOL     OW72640   6.752   7.695   3.869
20193SOL    HW172641   6.846   7.665   3.887
20193SOL    HW272642   6.700   7.695   3.955
20194SOL     OW72643   5.904   7.900   4.964
20194SOL    HW172644   5.894   7.813   4.916
20194SOL    HW272645   5.840   7.967   4.927
20195SOL     OW72646   6.986   8.180   5.002
20195SOL    HW172647   6.990   8.274   4.967
20195SOL    HW272648   7.079   8.149   5.024
20196SOL     OW72649   5.939   7.672   4.123
20196SOL    HW172650   5.893   7.712   4.202
20196SOL    HW272651   5.887   7.691   4.041
20197SOL     OW72652   7.067   9.199   5.035
20197SOL    HW172653   7.010   9.150   4.969
20197SOL    HW272654   7.153   9.226   4.992
20198SOL     OW72655   7.362   7.917   4.890
20198SOL    HW172656   7.419   7.999   4.892
20198SOL    HW272657   7.303   7.916   4.970
20199SOL     OW72658   7.379   9.143   4.803
20199SOL    HW172659   7.425   9.153   4.891
20199SOL    HW272660   7.446   9.146   4.730
20200SOL     OW72661   6.492   7.883   4.365
20200SOL    HW172662   6.568   7.911   4.424
20200SOL    HW272663   6.448   7.963   4.326
20201SOL     OW72664   6.727   8.347   3.882
20201SOL    HW172665   6.764   8.297   3.960
20201SOL    HW272666   6.657   8.292   3.837
20202SOL     OW72667   6.569   7.769   5.503
20202SOL    HW172668   6.632   7.774   5.580
20202SOL    HW272669   6.477   7.747   5.536
20203SOL     OW72670   7.310   8.016   3.961
20203SOL    HW172671   7.331   7.935   3.907
20203SOL    HW272672   7.327   7.997   4.058
20204SOL     OW72673   6.604   9.154   3.869
20204SOL    HW172674   6.638   9.067   3.834
20204SOL    HW272675   6.572   9.142   3.963
20205SOL     OW72676   6.285   7.421   5.401
20205SOL    HW172677   6.292   7.327   5.368
20205SOL    HW272678   6.342   7.431   5.483
20206SOL     OW72679   7.208   8.022   4.669
20206SOL    HW172680   7.193   8.113   4.706
20206SOL    HW272681   7.278   7.975   4.723
20207SOL     OW72682   6.618   8.688   5.435
20207SOL    HW172683   6.640   8.598   5.397
20207SOL    HW272684   6.553   8.735   5.376
20208SOL     OW72685   6.273   8.530   5.439
20208SOL    HW172686   6.244   8.607   5.496
20208SOL    HW272687   6.283   8.449   5.497
20209SOL     OW72688   6.908   7.394   4.545
20209SOL    HW172689   6.857   7.478   4.527
20209SOL    HW272690   6.994   7.396   4.494
20210SOL     OW72691   7.263   7.600   5.474
20210SOL    HW172692   7.240   7.621   5.569
20210SOL    HW272693   7.239   7.505   5.454
20211SOL     OW72694   5.566   8.004   4.218
20211SOL    HW172695   5.568   7.955   4.305
20211SOL    HW272696   5.568   8.103   4.236
20212SOL     OW72697   5.887   7.592   4.539
20212SOL    HW172698   5.939   7.632   4.614
20212SOL    HW272699   5.940   7.519   4.496
20213SOL     OW72700   5.871   7.640   4.873
20213SOL    HW172701   5.836   7.547   4.873
20213SOL    HW272702   5.958   7.643   4.824
20214SOL     OW72703   6.538   8.262   4.613
20214SOL    HW172704   6.564   8.342   4.559
20214SOL    HW272705   6.532   8.182   4.553
20215SOL     OW72706   5.739   8.889   4.072
20215SOL    HW172707   5.766   8.795   4.092
20215SOL    HW272708   5.764   8.911   3.978
20216SOL     OW72709   7.021   8.758   4.946
20216SOL    HW172710   6.992   8.795   4.857
20216SOL    HW272711   6.943   8.758   5.008
20217SOL     OW72712   5.753   9.032   4.309
20217SOL    HW172713   5.669   9.083   4.327
20217SOL    HW272714   5.744   8.981   4.224
20218SOL     OW72715   7.274   8.829   4.984
20218SOL    HW172716   7.305   8.843   5.078
20218SOL    HW272717   7.175   8.816   4.983
20219SOL     OW72718   6.026   8.329   3.711
20219SOL    HW172719   5.995   8.363   3.623
20219SOL    HW272720   6.030   8.404   3.777
20220SOL     OW72721   6.543   8.516   5.010
20220SOL    HW172722   6.593   8.431   4.994
20220SOL    HW272723   6.497   8.543   4.925
20221SOL     OW72724   7.150   8.219   4.084
20221SOL    HW172725   7.218   8.153   4.051
20221SOL    HW272726   7.165   8.307   4.040
20222SOL     OW72727   6.398   9.206   4.732
20222SOL    HW172728   6.444   9.139   4.674
20222SOL    HW272729   6.324   9.162   4.782
20223SOL     OW72730   6.305   8.275   3.768
20223SOL    HW172731   6.334   8.194   3.819
20223SOL    HW272732   6.205   8.274   3.759
20224SOL     OW72733   6.901   7.807   4.114
20224SOL    HW172734   6.838   7.865   4.062
20224SOL    HW272735   6.994   7.841   4.102
20225SOL     OW72736   5.798   8.008   5.214
20225SOL    HW172737   5.818   7.913   5.189
20225SOL    HW272738   5.761   8.011   5.307
20226SOL     OW72739   5.680   7.663   5.104
20226SOL    HW172740   5.752   7.673   5.035
20226SOL    HW272741   5.591   7.662   5.059
20227SOL     OW72742   6.578   8.284   4.869
20227SOL    HW172743   6.572   8.270   4.770
20227SOL    HW272744   6.497   8.245   4.913
20228SOL     OW72745   7.169   7.818   4.184
20228SOL    HW172746   7.265   7.789   4.181
20228SOL    HW272747   7.130   7.796   4.273
20229SOL     OW72748   6.453   8.893   4.621
20229SOL    HW172749   6.511   8.904   4.540
20229SOL    HW272750   6.359   8.917   4.599
20230SOL     OW72751   6.403   7.759   3.906
20230SOL    HW172752   6.312   7.772   3.944
20230SOL    HW272753   6.463   7.719   3.976
20231SOL     OW72754   6.514   8.704   3.841
20231SOL    HW172755   6.567   8.644   3.901
20231SOL    HW272756   6.553   8.705   3.750
20232SOL     OW72757   7.265   8.999   4.326
20232SOL    HW172758   7.232   9.092   4.345
20232SOL    HW272759   7.263   8.983   4.227
20233SOL     OW72760   6.680   8.272   4.315
20233SOL    HW172761   6.745   8.300   4.386
20233SOL    HW272762   6.601   8.333   4.317
20234SOL     OW72763   6.428   8.998   5.339
20234SOL    HW172764   6.416   8.929   5.268
20234SOL    HW272765   6.391   8.963   5.426
20235SOL     OW72766   6.872   8.312   4.518
20235SOL    HW172767   6.893   8.254   4.596
20235SOL    HW272768   6.881   8.408   4.544
20236SOL     OW72769   6.461   8.389   4.263
20236SOL    HW172770   6.448   8.300   4.220
20236SOL    HW272771   6.392   8.403   4.334
20237SOL     OW72772   6.765   8.777   5.102
20237SOL    HW172773   6.798   8.862   5.143
20237SOL    HW272774   6.666   8.773   5.109
20238SOL     OW72775   5.572   7.694   4.166
20238SOL    HW172776   5.632   7.645   4.104
20238SOL    HW272777   5.627   7.746   4.231
20239SOL     OW72778   7.195   9.192   3.857
20239SOL    HW172779   7.285   9.236   3.859
20239SOL    HW272780   7.194   9.123   3.785
20240SOL     OW72781   6.359   8.159   5.015
20240SOL    HW172782   6.361   8.245   5.066
20240SOL    HW272783   6.416   8.091   5.062
20241SOL     OW72784   6.377   8.205   4.080
20241SOL    HW172785   6.288   8.233   4.045
20241SOL    HW272786   6.418   8.139   4.016
20242SOL     OW72787   5.899   7.923   4.619
20242SOL    HW172788   5.955   7.916   4.536
20242SOL    HW272789   5.956   7.901   4.699
20243SOL     OW72790   5.896   9.121   3.890
20243SOL    HW172791   5.988   9.151   3.865
20243SOL    HW272792   5.871   9.160   3.979
20244SOL     OW72793   6.872   9.143   4.827
20244SOL    HW172794   6.891   9.206   4.753
20244SOL    HW272795   6.880   9.049   4.794
20245SOL     OW72796   6.328   7.443   4.089
20245SOL    HW172797   6.289   7.432   3.998
20245SOL    HW272798   6.284   7.519   4.136
20246SOL     OW72799   7.103   7.707   5.267
20246SOL    HW172800   7.042   7.785   5.264
20246SOL    HW272801   7.158   7.711   5.350
20247SOL     OW72802   6.819   7.653   4.558
20247SOL    HW172803   6.818   7.731   4.495
20247SOL    HW272804   6.862   7.680   4.644
20248SOL     OW72805   6.939   7.459   3.854
20248SOL    HW172806   7.019   7.399   3.851
20248SOL    HW272807   6.865   7.412   3.902
20249SOL     OW72808   7.152   7.431   5.288
20249SOL    HW172809   7.178   7.388   5.202
20249SOL    HW272810   7.102   7.515   5.270
20250SOL     OW72811   6.254   7.690   4.420
20250SOL    HW172812   6.243   7.632   4.501
20250SOL    HW272813   6.339   7.742   4.428
20251SOL     OW72814   6.834   8.041   4.812
20251SOL    HW172815   6.888   8.081   4.738
20251SOL    HW272816   6.872   8.070   4.900
20252SOL     OW72817   7.127   7.447   4.128
20252SOL    HW172818   7.134   7.401   4.040
20252SOL    HW272819   7.031   7.457   4.153
20253SOL     OW72820   6.103   8.762   5.491
20253SOL    HW172821   6.064   8.825   5.424
20253SOL    HW272822   6.186   8.802   5.531
20254SOL     OW72823   5.979   8.494   5.323
20254SOL    HW172824   5.998   8.518   5.228
20254SOL    HW272825   5.972   8.577   5.378
20255SOL     OW72826   6.726   7.985   4.530
20255SOL    HW172827   6.808   7.962   4.478
20255SOL    HW272828   6.721   7.926   4.611
20256SOL     OW72829   7.326   8.012   5.366
20256SOL    HW172830   7.315   8.098   5.315
20256SOL    HW272831   7.420   8.003   5.396
20257SOL     OW72832   6.897   7.785   4.785
20257SOL    HW172833   6.871   7.882   4.791
20257SOL    HW272834   6.897   7.745   4.877
20258SOL     OW72835   7.127   7.917   5.536
20258SOL    HW172836   7.207   7.942   5.480
20258SOL    HW272837   7.158   7.882   5.624
20259SOL     OW72838   6.838   8.220   4.116
20259SOL    HW172839   6.784   8.218   4.200
20259SOL    HW272840   6.915   8.283   4.127
20260SOL     OW72841   7.135   8.316   4.336
20260SOL    HW172842   7.149   8.279   4.243
20260SOL    HW272843   7.046   8.286   4.370
20261SOL     OW72844   7.291   8.253   5.231
20261SOL    HW172845   7.193   8.274   5.233
20261SOL    HW272846   7.340   8.329   5.190
20262SOL     OW72847   7.145   7.673   3.910
20262SOL    HW172848   7.150   7.715   4.001
20262SOL    HW272849   7.078   7.598   3.912
20263SOL     OW72850   6.292   8.888   5.130
20263SOL    HW172851   6.229   8.966   5.137
20263SOL    HW272852   6.260   8.826   5.058
20264SOL     OW72853   5.683   7.683   5.395
20264SOL    HW172854   5.701   7.672   5.297
20264SOL    HW272855   5.585   7.679   5.412
20265SOL     OW72856   5.731   7.753   4.363
20265SOL    HW172857   5.674   7.808   4.424
20265SOL    HW272858   5.801   7.705   4.416
20266SOL     OW72859   6.903   8.985   5.226
20266SOL    HW172860   6.856   9.053   5.281
20266SOL    HW272861   6.970   9.031   5.167
20267SOL     OW72862   5.868   7.944   3.961
20267SOL    HW172863   5.940   7.973   3.898
20267SOL    HW272864   5.824   8.024   4.001
20268SOL     OW72865   7.254   7.606   5.064
20268SOL    HW172866   7.210   7.654   5.140
20268SOL    HW272867   7.232   7.652   4.978
20269SOL     OW72868   5.983   9.207   4.427
20269SOL    HW172869   5.907   9.173   4.372
20269SOL    HW272870   6.069   9.170   4.392
20270SOL     OW72871   6.792   8.920   5.518
20270SOL    HW172872   6.751   8.835   5.484
20270SOL    HW272873   6.772   8.994   5.454
20271SOL     OW72874   6.282   8.640   4.208
20271SOL    HW172875   6.325   8.571   4.150
20271SOL    HW272876   6.246   8.597   4.291
20272SOL     OW72877   5.914   8.191   4.410
20272SOL    HW172878   5.906   8.289   4.428
20272SOL    HW272879   5.998   8.157   4.451
20273SOL     OW72880   5.760   7.671   3.925
20273SOL    HW172881   5.804   7.640   3.842
20273SOL    HW272882   5.761   7.771   3.929
20274SOL     OW72883   5.613   7.923   4.536
20274SOL    HW172884   5.577   8.016   4.528
20274SOL    HW272885   5.696   7.924   4.592
20275SOL     OW72886   6.048   8.510   3.922
20275SOL    HW172887   6.148   8.510   3.933
20275SOL    HW272888   6.017   8.603   3.901
20276SOL     OW72889   6.674   8.102   3.738
20276SOL    HW172890   6.605   8.159   3.694
20276SOL    HW272891   6.755   8.096   3.679
20277SOL     OW72892   6.409   8.021   3.881
20277SOL    HW172893   6.499   8.022   3.836
20277SOL    HW272894   6.386   7.927   3.906
20278SOL     OW72895   6.860   7.538   4.175
20278SOL    HW172896   6.770   7.522   4.216
20278SOL    HW272897   6.868   7.634   4.149
20279SOL     OW72898   6.974   7.938   5.191
20279SOL    HW172899   6.926   7.961   5.275
20279SOL    HW272900   6.908   7.908   5.122
20280SOL     OW72901   5.609   7.453   3.835
20280SOL    HW172902   5.672   7.376   3.843
20280SOL    HW272903   5.629   7.521   3.906
20281SOL     OW72904   7.181   8.440   3.936
20281SOL    HW172905   7.252   8.510   3.938
20281SOL    HW272906   7.168   8.410   3.841
20282SOL     OW72907   6.163   8.041   4.858
20282SOL    HW172908   6.238   8.084   4.907
20282SOL    HW272909   6.096   8.006   4.924
20283SOL     OW72910   6.306   8.410   5.175
20283SOL    HW172911   6.375   8.462   5.125
20283SOL    HW272912   6.301   8.443   5.270
20284SOL     OW72913   6.698   8.431   5.335
20284SOL    HW172914   6.620   8.377   5.368
20284SOL    HW272915   6.779   8.409   5.390
20285SOL     OW72916   6.627   7.613   4.331
20285SOL    HW172917   6.686   7.673   4.386
20285SOL    HW272918   6.554   7.577   4.388
20286SOL     OW72919   6.737   9.145   5.371
20286SOL    HW172920   6.642   9.143   5.339
20286SOL    HW272921   6.758   9.236   5.408
20287SOL     OW72922   6.155   7.490   4.602
20287SOL    HW172923   6.083   7.423   4.588
20287SOL    HW272924   6.237   7.444   4.637
20288SOL     OW72925   6.548   8.619   4.514
20288SOL    HW172926   6.587   8.662   4.433
20288SOL    HW272927   6.621   8.602   4.581
20289SOL     OW72928   6.242   8.347   4.716
20289SOL    HW172929   6.240   8.263   4.661
20289SOL    HW272930   6.191   8.333   4.801
20290SOL     OW72931   5.809   7.402   4.122
20290SOL    HW172932   5.847   7.490   4.149
20290SOL    HW272933   5.732   7.378   4.182
20291SOL     OW72934   6.225   8.019   5.450
20291SOL    HW172935   6.177   8.070   5.379
20291SOL    HW272936   6.318   7.998   5.420
20292SOL     OW72937   7.328   7.601   4.543
20292SOL    HW172938   7.283   7.583   4.630
20292SOL    HW272939   7.426   7.618   4.559
20293SOL     OW72940   6.376   8.577   4.795
20293SOL    HW172941   6.327   8.492   4.776
20293SOL    HW272942   6.446   8.592   4.726
20294SOL     OW72943   6.714   8.000   4.004
20294SOL    HW172944   6.766   8.072   4.050
20294SOL    HW272945   6.727   8.007   3.906
20295SOL     OW72946   7.075   8.815   5.331
20295SOL    HW172947   7.060   8.717   5.345
20295SOL    HW272948   6.992   8.857   5.295
20296SOL     OW72949   6.334   8.883   3.729
20296SOL    HW172950   6.309   8.960   3.788
20296SOL    HW272951   6.398   8.823   3.777
20297SOL     OW72952   6.152   9.090   4.763
20297SOL    HW172953   6.172   9.060   4.670
20297SOL    HW272954   6.077   9.035   4.800
20298SOL     OW72955   6.295   8.501   4.480
20298SOL    HW172956   6.384   8.547   4.480
20298SOL    HW272957   6.288   8.441   4.559
20299SOL     OW72958   6.473   8.848   4.149
20299SOL    HW172959   6.523   8.836   4.064
20299SOL    HW272960   6.419   8.765   4.168
20300SOL     OW72961   5.600   8.312   5.476
20300SOL    HW172962   5.515   8.263   5.457
20300SOL    HW272963   5.627   8.299   5.571
20301SOL     OW72964   6.497   9.221   5.182
20301SOL    HW172965   6.469   9.134   5.223
20301SOL    HW272966   6.441   9.295   5.219
20302SOL     OW72967   6.726   8.568   4.712
20302SOL    HW172968   6.710   8.662   4.743
20302SOL    HW272969   6.729   8.507   4.792
20303SOL     OW72970   6.000   7.839   5.476
20303SOL    HW172971   6.036   7.786   5.399
20303SOL    HW272972   6.061   7.916   5.494
20304SOL     OW72973   6.064   8.256   4.048
20304SOL    HW172974   6.014   8.321   3.992
20304SOL    HW272975   6.006   8.177   4.067
20305SOL     OW72976   7.145   8.287   4.746
20305SOL    HW172977   7.164   8.326   4.655
20305SOL    HW272978   7.099   8.356   4.802
20306SOL     OW72979   6.837   7.730   5.042
20306SOL    HW172980   6.908   7.702   5.106
20306SOL    HW272981   6.784   7.650   5.014
20307SOL     OW72982   5.538   7.429   4.243
20307SOL    HW172983   5.451   7.416   4.196
20307SOL    HW272984   5.546   7.524   4.273
20308SOL     OW72985   6.759   7.530   5.484
20308SOL    HW172986   6.818   7.546   5.564
20308SOL    HW272987   6.706   7.613   5.465
20309SOL     OW72988   5.975   8.949   5.309
20309SOL    HW172989   5.917   9.014   5.358
20309SOL    HW272990   6.037   8.999   5.249
20310SOL     OW72991   7.331   8.836   5.250
20310SOL    HW172992   7.359   8.929   5.272
20310SOL    HW272993   7.238   8.820   5.283
20311SOL     OW72994   6.581   7.949   4.800
20311SOL    HW172995   6.667   8.000   4.799
20311SOL    HW272996   6.587   7.875   4.867
20312SOL     OW72997   5.985   8.895   4.372
20312SOL    HW172998   5.983   8.796   4.385
20312SOL    HW272999   5.894   8.928   4.349
20313SOL     OW73000   6.626   9.012   4.960
20313SOL    HW173001   6.552   9.076   4.978
20313SOL    HW273002   6.705   9.061   4.922
20314SOL     OW73003   5.835   9.142   5.459
20314SOL    HW173004   5.878   9.226   5.425
20314SOL    HW273005   5.860   9.129   5.555
20315SOL     OW73006   5.695   8.678   5.330
20315SOL    HW173007   5.674   8.583   5.303
20315SOL    HW273008   5.626   8.739   5.292
20316SOL     OW73009   6.530   7.564   4.589
20316SOL    HW173010   6.626   7.565   4.617
20316SOL    HW273011   6.475   7.521   4.661
20317SOL     OW73012   6.592   8.570   4.105
20317SOL    HW173013   6.672   8.606   4.153
20317SOL    HW273014   6.550   8.497   4.161
20318SOL     OW73015   7.183   7.837   4.469
20318SOL    HW173016   7.202   7.923   4.516
20318SOL    HW273017   7.251   7.768   4.497
20319SOL     OW73018   6.326   8.509   3.955
20319SOL    HW173019   6.398   8.568   3.920
20319SOL    HW273020   6.366   8.425   3.991
20320SOL     OW73021   6.397   7.485   3.807
20320SOL    HW173022   6.472   7.419   3.819
20320SOL    HW273023   6.428   7.576   3.835
20321SOL     OW73024   6.076   7.914   4.419
20321SOL    HW173025   6.114   7.825   4.445
20321SOL    HW273026   6.143   7.964   4.364
20322SOL     OW73027   6.064   8.472   5.073
20322SOL    HW173028   6.160   8.452   5.093
20322SOL    HW273029   6.053   8.570   5.055
20323SOL     OW73030   7.286   8.515   5.042
20323SOL    HW173031   7.300   8.613   5.056
20323SOL    HW273032   7.343   8.484   4.966
20324SOL     OW73033   5.769   8.624   3.734
20324SOL    HW173034   5.761   8.636   3.635
20324SOL    HW273035   5.828   8.695   3.772
20325SOL     OW73036   6.196   9.063   3.894
20325SOL    HW173037   6.171   9.158   3.878
20325SOL    HW273038   6.163   9.035   3.984
20326SOL     OW73039   6.846   8.486   5.118
20326SOL    HW173040   6.790   8.445   5.189
20326SOL    HW273041   6.826   8.584   5.112
20327SOL     OW73042   6.113   9.102   5.118
20327SOL    HW173043   6.162   9.182   5.082
20327SOL    HW273044   6.021   9.100   5.079
20328SOL     OW73045   5.756   7.983   5.480
20328SOL    HW173046   5.773   7.884   5.485
20328SOL    HW273047   5.820   8.031   5.541
20329SOL     OW73048   7.195   8.944   4.719
20329SOL    HW173049   7.167   9.037   4.743
20329SOL    HW273050   7.245   8.903   4.795
20330SOL     OW73051   6.100   8.115   5.218
20330SOL    HW173052   6.006   8.085   5.199
20330SOL    HW273053   6.109   8.212   5.195
20331SOL     OW73054   7.167   8.491   4.530
20331SOL    HW173055   7.129   8.580   4.503
20331SOL    HW273056   7.167   8.429   4.452
20332SOL     OW73057   6.325   7.897   4.699
20332SOL    HW173058   6.417   7.925   4.726
20332SOL    HW273059   6.257   7.948   4.753
20333SOL     OW73060   6.178   8.748   4.926
20333SOL    HW173061   6.091   8.747   4.877
20333SOL    HW273062   6.244   8.688   4.879
20334SOL     OW73063   5.744   8.090   4.840
20334SOL    HW173064   5.782   8.149   4.911
20334SOL    HW273065   5.727   8.143   4.758
20335SOL     OW73066   5.915   8.736   5.138
20335SOL    HW173067   5.934   8.824   5.182
20335SOL    HW273068   5.820   8.710   5.156
20336SOL     OW73069   7.158   9.052   5.486
20336SOL    HW173070   7.127   8.974   5.431
20336SOL    HW273071   7.127   9.137   5.444
20337SOL     OW73072   6.866   8.590   4.207
20337SOL    HW173073   6.965   8.594   4.223
20337SOL    HW273074   6.849   8.576   4.109
20338SOL     OW73075   6.219   7.756   4.155
20338SOL    HW173076   6.121   7.750   4.135
20338SOL    HW273077   6.238   7.713   4.243
20339SOL     OW73078   7.139   7.439   4.414
20339SOL    HW173079   7.134   7.480   4.323
20339SOL    HW273080   7.220   7.473   4.461
20340SOL     OW73081   6.742   8.195   5.107
20340SOL    HW173082   6.841   8.204   5.097
20340SOL    HW273083   6.698   8.197   5.017
20341SOL     OW73084   6.236   8.155   4.509
20341SOL    HW173085   6.258   8.077   4.567
20341SOL    HW273086   6.245   8.129   4.413
20342SOL     OW73087   6.901   8.862   4.721
20342SOL    HW173088   6.815   8.819   4.750
20342SOL    HW273089   6.890   8.902   4.630
20343SOL     OW73090   6.904   7.847   4.396
20343SOL    HW173091   6.903   7.839   4.297
20343SOL    HW273092   6.993   7.819   4.431
20344SOL     OW73093   6.631   8.863   6.228
20344SOL    HW173094   6.722   8.897   6.251
20344SOL    HW273095   6.603   8.901   6.140
20345SOL     OW73096   7.142   8.659   6.086
20345SOL    HW173097   7.153   8.743   6.140
20345SOL    HW273098   7.232   8.622   6.063
20346SOL     OW73099   7.222   7.941   6.950
20346SOL    HW173100   7.124   7.933   6.972
20346SOL    HW273101   7.275   7.930   7.034
20347SOL     OW73102   5.889   7.578   5.555
20347SOL    HW173103   5.802   7.575   5.506
20347SOL    HW273104   5.940   7.660   5.527
20348SOL     OW73105   6.876   8.967   6.330
20348SOL    HW173106   6.865   9.064   6.353
20348SOL    HW273107   6.969   8.950   6.300
20349SOL     OW73108   6.754   7.478   6.888
20349SOL    HW173109   6.678   7.433   6.935
20349SOL    HW273110   6.783   7.423   6.810
20350SOL     OW73111   6.492   8.258   7.265
20350SOL    HW173112   6.457   8.233   7.175
20350SOL    HW273113   6.416   8.279   7.326
20351SOL     OW73114   6.099   8.932   5.959
20351SOL    HW173115   6.055   8.941   6.048
20351SOL    HW273116   6.170   8.862   5.963
20352SOL     OW73117   6.117   7.465   5.681
20352SOL    HW173118   6.205   7.493   5.642
20352SOL    HW273119   6.045   7.528   5.651
20353SOL     OW73120   6.483   8.712   7.045
20353SOL    HW173121   6.426   8.775   6.991
20353SOL    HW273122   6.516   8.638   6.986
20354SOL     OW73123   6.026   8.605   6.254
20354SOL    HW173124   5.959   8.559   6.313
20354SOL    HW273125   6.118   8.573   6.277
20355SOL     OW73126   6.253   8.011   6.085
20355SOL    HW173127   6.292   8.081   6.026
20355SOL    HW273128   6.227   7.931   6.031
20356SOL     OW73129   6.873   7.919   7.294
20356SOL    HW173130   6.969   7.923   7.320
20356SOL    HW273131   6.829   7.843   7.341
20357SOL     OW73132   5.956   8.774   5.738
20357SOL    HW173133   6.020   8.790   5.663
20357SOL    HW273134   5.980   8.832   5.816
20358SOL     OW73135   6.107   7.730   6.548
20358SOL    HW173136   6.183   7.795   6.544
20358SOL    HW273137   6.137   7.641   6.515
20359SOL     OW73138   5.804   8.156   5.966
20359SOL    HW173139   5.819   8.090   6.040
20359SOL    HW273140   5.754   8.235   6.001
20360SOL     OW73141   6.390   9.101   6.143
20360SOL    HW173142   6.455   9.034   6.107
20360SOL    HW273143   6.380   9.177   6.079
20361SOL     OW73144   7.282   8.983   5.885
20361SOL    HW173145   7.378   8.957   5.878
20361SOL    HW273146   7.258   9.043   5.809
20362SOL     OW73147   7.194   7.676   6.656
20362SOL    HW173148   7.245   7.748   6.609
20362SOL    HW273149   7.099   7.703   6.665
20363SOL     OW73150   6.594   7.705   5.925
20363SOL    HW173151   6.619   7.799   5.946
20363SOL    HW273152   6.595   7.651   6.009
20364SOL     OW73153   5.718   8.418   7.110
20364SOL    HW173154   5.814   8.433   7.128
20364SOL    HW273155   5.680   8.356   7.179
20365SOL     OW73156   6.044   8.063   5.653
20365SOL    HW173157   6.004   8.142   5.606
20365SOL    HW273158   6.133   8.042   5.613
20366SOL     OW73159   6.217   8.987   6.351
20366SOL    HW173160   6.290   9.010   6.287
20366SOL    HW273161   6.146   8.934   6.305
20367SOL     OW73162   6.559   8.019   7.105
20367SOL    HW173163   6.592   7.936   7.152
20367SOL    HW273164   6.632   8.087   7.104
20368SOL     OW73165   7.163   8.819   6.327
20368SOL    HW173166   7.159   8.854   6.420
20368SOL    HW273167   7.222   8.878   6.271
20369SOL     OW73168   5.894   8.640   6.003
20369SOL    HW173169   5.940   8.614   6.088
20369SOL    HW273170   5.914   8.572   5.932
20370SOL     OW73171   6.752   7.695   5.714
20370SOL    HW173172   6.846   7.665   5.732
20370SOL    HW273173   6.700   7.695   5.800
20371SOL     OW73174   5.904   7.900   6.809
20371SOL    HW173175   5.894   7.813   6.761
20371SOL    HW273176   5.840   7.967   6.772
20372SOL     OW73177   5.939   7.672   5.968
20372SOL    HW173178   5.893   7.712   6.047
20372SOL    HW273179   5.887   7.691   5.886
20373SOL     OW73180   7.067   9.199   6.880
20373SOL    HW173181   7.010   9.150   6.814
20373SOL    HW273182   7.153   9.226   6.837
20374SOL     OW73183   7.362   7.917   6.735
20374SOL    HW173184   7.419   7.999   6.737
20374SOL    HW273185   7.303   7.916   6.815
20375SOL     OW73186   7.379   9.143   6.648
20375SOL    HW173187   7.425   9.153   6.736
20375SOL    HW273188   7.446   9.146   6.575
20376SOL     OW73189   6.492   7.883   6.210
20376SOL    HW173190   6.568   7.911   6.269
20376SOL    HW273191   6.448   7.963   6.171
20377SOL     OW73192   6.727   8.347   5.727
20377SOL    HW173193   6.764   8.297   5.805
20377SOL    HW273194   6.657   8.292   5.682
20378SOL     OW73195   6.569   7.769   7.348
20378SOL    HW173196   6.632   7.774   7.425
20378SOL    HW273197   6.477   7.747   7.381
20379SOL     OW73198   7.310   8.016   5.806
20379SOL    HW173199   7.331   7.935   5.752
20379SOL    HW273200   7.327   7.997   5.903
20380SOL     OW73201   6.604   9.154   5.714
20380SOL    HW173202   6.638   9.067   5.679
20380SOL    HW273203   6.572   9.142   5.808
20381SOL     OW73204   6.285   7.421   7.246
20381SOL    HW173205   6.292   7.327   7.213
20381SOL    HW273206   6.342   7.431   7.328
20382SOL     OW73207   7.208   8.022   6.514
20382SOL    HW173208   7.193   8.113   6.551
20382SOL    HW273209   7.278   7.975   6.568
20383SOL     OW73210   6.618   8.688   7.280
20383SOL    HW173211   6.640   8.598   7.242
20383SOL    HW273212   6.553   8.735   7.221
20384SOL     OW73213   6.273   8.530   7.284
20384SOL    HW173214   6.244   8.607   7.341
20384SOL    HW273215   6.283   8.449   7.342
20385SOL     OW73216   6.908   7.394   6.390
20385SOL    HW173217   6.857   7.478   6.372
20385SOL    HW273218   6.994   7.396   6.339
20386SOL     OW73219   7.263   7.600   7.319
20386SOL    HW173220   7.240   7.621   7.414
20386SOL    HW273221   7.239   7.505   7.299
20387SOL     OW73222   5.566   8.004   6.063
20387SOL    HW173223   5.568   7.955   6.150
20387SOL    HW273224   5.568   8.103   6.081
20388SOL     OW73225   5.887   7.592   6.384
20388SOL    HW173226   5.939   7.632   6.459
20388SOL    HW273227   5.940   7.519   6.341
20389SOL     OW73228   5.871   7.640   6.718
20389SOL    HW173229   5.836   7.547   6.718
20389SOL    HW273230   5.958   7.643   6.669
20390SOL     OW73231   6.538   8.262   6.458
20390SOL    HW173232   6.564   8.342   6.404
20390SOL    HW273233   6.532   8.182   6.398
20391SOL     OW73234   5.739   8.889   5.917
20391SOL    HW173235   5.766   8.795   5.937
20391SOL    HW273236   5.764   8.911   5.823
20392SOL     OW73237   7.021   8.758   6.791
20392SOL    HW173238   6.992   8.795   6.702
20392SOL    HW273239   6.943   8.758   6.853
20393SOL     OW73240   7.274   8.829   6.829
20393SOL    HW173241   7.305   8.843   6.923
20393SOL    HW273242   7.175   8.816   6.828
20394SOL     OW73243   6.026   8.329   5.556
20394SOL    HW173244   5.995   8.363   5.468
20394SOL    HW273245   6.030   8.404   5.622
20395SOL     OW73246   6.543   8.516   6.855
20395SOL    HW173247   6.593   8.431   6.839
20395SOL    HW273248   6.497   8.543   6.770
20396SOL     OW73249   5.630   8.221   5.729
20396SOL    HW173250   5.690   8.168   5.789
20396SOL    HW273251   5.536   8.189   5.741
20397SOL     OW73252   7.150   8.219   5.929
20397SOL    HW173253   7.218   8.153   5.896
20397SOL    HW273254   7.165   8.307   5.885
20398SOL     OW73255   6.398   9.206   6.577
20398SOL    HW173256   6.444   9.139   6.519
20398SOL    HW273257   6.324   9.162   6.627
20399SOL     OW73258   6.305   8.275   5.613
20399SOL    HW173259   6.334   8.194   5.664
20399SOL    HW273260   6.205   8.274   5.604
20400SOL     OW73261   6.901   7.807   5.959
20400SOL    HW173262   6.838   7.865   5.907
20400SOL    HW273263   6.994   7.841   5.947
20401SOL     OW73264   5.798   8.008   7.059
20401SOL    HW173265   5.818   7.913   7.034
20401SOL    HW273266   5.761   8.011   7.152
20402SOL     OW73267   5.680   7.663   6.949
20402SOL    HW173268   5.752   7.673   6.880
20402SOL    HW273269   5.591   7.662   6.904
20403SOL     OW73270   6.578   8.284   6.714
20403SOL    HW173271   6.572   8.270   6.615
20403SOL    HW273272   6.497   8.245   6.758
20404SOL     OW73273   7.169   7.818   6.029
20404SOL    HW173274   7.265   7.789   6.026
20404SOL    HW273275   7.130   7.796   6.118
20405SOL     OW73276   6.453   8.893   6.466
20405SOL    HW173277   6.511   8.904   6.385
20405SOL    HW273278   6.359   8.917   6.444
20406SOL     OW73279   6.403   7.759   5.751
20406SOL    HW173280   6.312   7.772   5.789
20406SOL    HW273281   6.463   7.719   5.821
20407SOL     OW73282   6.514   8.704   5.686
20407SOL    HW173283   6.567   8.644   5.746
20407SOL    HW273284   6.553   8.705   5.595
20408SOL     OW73285   7.265   8.999   6.171
20408SOL    HW173286   7.232   9.092   6.190
20408SOL    HW273287   7.263   8.983   6.072
20409SOL     OW73288   6.680   8.272   6.160
20409SOL    HW173289   6.745   8.300   6.231
20409SOL    HW273290   6.601   8.333   6.162
20410SOL     OW73291   6.428   8.998   7.184
20410SOL    HW173292   6.416   8.929   7.113
20410SOL    HW273293   6.391   8.963   7.271
20411SOL     OW73294   6.872   8.312   6.363
20411SOL    HW173295   6.893   8.254   6.441
20411SOL    HW273296   6.881   8.408   6.389
20412SOL     OW73297   5.828   8.441   6.409
20412SOL    HW173298   5.751   8.503   6.402
20412SOL    HW273299   5.865   8.442   6.502
20413SOL     OW73300   6.461   8.389   6.108
20413SOL    HW173301   6.448   8.300   6.065
20413SOL    HW273302   6.392   8.403   6.179
20414SOL     OW73303   6.765   8.777   6.947
20414SOL    HW173304   6.798   8.862   6.988
20414SOL    HW273305   6.666   8.773   6.954
20415SOL     OW73306   5.572   7.694   6.011
20415SOL    HW173307   5.632   7.645   5.949
20415SOL    HW273308   5.627   7.746   6.076
20416SOL     OW73309   7.195   9.192   5.702
20416SOL    HW173310   7.285   9.236   5.704
20416SOL    HW273311   7.194   9.123   5.630
20417SOL     OW73312   6.359   8.159   6.860
20417SOL    HW173313   6.361   8.245   6.911
20417SOL    HW273314   6.416   8.091   6.907
20418SOL     OW73315   5.596   9.186   6.931
20418SOL    HW173316   5.604   9.286   6.929
20418SOL    HW273317   5.572   9.157   7.024
20419SOL     OW73318   6.377   8.205   5.925
20419SOL    HW173319   6.288   8.233   5.890
20419SOL    HW273320   6.418   8.139   5.861
20420SOL     OW73321   5.899   7.923   6.464
20420SOL    HW173322   5.955   7.916   6.381
20420SOL    HW273323   5.956   7.901   6.544
20421SOL     OW73324   5.896   9.121   5.735
20421SOL    HW173325   5.988   9.151   5.710
20421SOL    HW273326   5.871   9.160   5.824
20422SOL     OW73327   6.872   9.143   6.672
20422SOL    HW173328   6.891   9.206   6.598
20422SOL    HW273329   6.880   9.049   6.639
20423SOL     OW73330   6.328   7.443   5.934
20423SOL    HW173331   6.289   7.432   5.843
20423SOL    HW273332   6.284   7.519   5.981
20424SOL     OW73333   5.573   8.579   6.028
20424SOL    HW173334   5.651   8.637   6.052
20424SOL    HW273335   5.592   8.530   5.943
20425SOL     OW73336   7.103   7.707   7.112
20425SOL    HW173337   7.042   7.785   7.109
20425SOL    HW273338   7.158   7.711   7.195
20426SOL     OW73339   6.819   7.653   6.403
20426SOL    HW173340   6.818   7.731   6.340
20426SOL    HW273341   6.862   7.680   6.489
20427SOL     OW73342   6.939   7.459   5.699
20427SOL    HW173343   7.019   7.399   5.696
20427SOL    HW273344   6.865   7.412   5.747
20428SOL     OW73345   7.152   7.431   7.133
20428SOL    HW173346   7.178   7.388   7.047
20428SOL    HW273347   7.102   7.515   7.115
20429SOL     OW73348   6.254   7.690   6.265
20429SOL    HW173349   6.243   7.632   6.346
20429SOL    HW273350   6.339   7.742   6.273
20430SOL     OW73351   6.834   8.041   6.657
20430SOL    HW173352   6.888   8.081   6.583
20430SOL    HW273353   6.872   8.070   6.745
20431SOL     OW73354   7.127   7.447   5.973
20431SOL    HW173355   7.134   7.401   5.885
20431SOL    HW273356   7.031   7.457   5.998
20432SOL     OW73357   6.103   8.762   7.336
20432SOL    HW173358   6.064   8.825   7.269
20432SOL    HW273359   6.186   8.802   7.376
20433SOL     OW73360   5.979   8.494   7.168
20433SOL    HW173361   5.998   8.518   7.073
20433SOL    HW273362   5.972   8.577   7.223
20434SOL     OW73363   6.726   7.985   6.375
20434SOL    HW173364   6.808   7.962   6.323
20434SOL    HW273365   6.721   7.926   6.456
20435SOL     OW73366   7.326   8.012   7.211
20435SOL    HW173367   7.315   8.098   7.160
20435SOL    HW273368   7.420   8.003   7.241
20436SOL     OW73369   6.897   7.785   6.630
20436SOL    HW173370   6.871   7.882   6.636
20436SOL    HW273371   6.897   7.745   6.722
20437SOL     OW73372   7.127   7.917   7.381
20437SOL    HW173373   7.207   7.942   7.325
20437SOL    HW273374   7.158   7.882   7.469
20438SOL     OW73375   6.838   8.220   5.961
20438SOL    HW173376   6.784   8.218   6.045
20438SOL    HW273377   6.915   8.283   5.972
20439SOL     OW73378   7.135   8.316   6.181
20439SOL    HW173379   7.149   8.279   6.088
20439SOL    HW273380   7.046   8.286   6.215
20440SOL     OW73381   7.291   8.253   7.076
20440SOL    HW173382   7.193   8.274   7.078
20440SOL    HW273383   7.340   8.329   7.035
20441SOL     OW73384   7.145   7.673   5.755
20441SOL    HW173385   7.150   7.715   5.846
20441SOL    HW273386   7.078   7.598   5.757
20442SOL     OW73387   6.292   8.888   6.975
20442SOL    HW173388   6.229   8.966   6.982
20442SOL    HW273389   6.260   8.826   6.903
20443SOL     OW73390   5.683   7.683   7.240
20443SOL    HW173391   5.701   7.672   7.142
20443SOL    HW273392   5.585   7.679   7.257
20444SOL     OW73393   5.563   9.097   7.184
20444SOL    HW173394   5.635   9.083   7.252
20444SOL    HW273395   5.474   9.100   7.229
20445SOL     OW73396   5.731   7.753   6.208
20445SOL    HW173397   5.674   7.808   6.269
20445SOL    HW273398   5.801   7.705   6.261
20446SOL     OW73399   6.903   8.985   7.071
20446SOL    HW173400   6.856   9.053   7.126
20446SOL    HW273401   6.970   9.031   7.012
20447SOL     OW73402   5.868   7.944   5.806
20447SOL    HW173403   5.940   7.973   5.743
20447SOL    HW273404   5.824   8.024   5.846
20448SOL     OW73405   7.254   7.606   6.909
20448SOL    HW173406   7.210   7.654   6.985
20448SOL    HW273407   7.232   7.652   6.823
20449SOL     OW73408   5.983   9.207   6.272
20449SOL    HW173409   5.907   9.173   6.217
20449SOL    HW273410   6.069   9.170   6.237
20450SOL     OW73411   5.908   8.716   6.717
20450SOL    HW173412   5.920   8.732   6.814
20450SOL    HW273413   5.821   8.756   6.687
20451SOL     OW73414   6.792   8.920   7.363
20451SOL    HW173415   6.751   8.835   7.329
20451SOL    HW273416   6.772   8.994   7.299
20452SOL     OW73417   6.282   8.640   6.053
20452SOL    HW173418   6.325   8.571   5.995
20452SOL    HW273419   6.246   8.597   6.136
20453SOL     OW73420   5.914   8.191   6.255
20453SOL    HW173421   5.906   8.289   6.273
20453SOL    HW273422   5.998   8.157   6.296
20454SOL     OW73423   5.760   7.671   5.770
20454SOL    HW173424   5.804   7.640   5.687
20454SOL    HW273425   5.761   7.771   5.774
20455SOL     OW73426   5.613   7.923   6.381
20455SOL    HW173427   5.577   8.016   6.373
20455SOL    HW273428   5.696   7.924   6.437
20456SOL     OW73429   6.048   8.510   5.767
20456SOL    HW173430   6.148   8.510   5.778
20456SOL    HW273431   6.017   8.603   5.746
20457SOL     OW73432   6.674   8.102   5.583
20457SOL    HW173433   6.605   8.159   5.539
20457SOL    HW273434   6.755   8.096   5.524
20458SOL     OW73435   6.409   8.021   5.726
20458SOL    HW173436   6.499   8.022   5.681
20458SOL    HW273437   6.386   7.927   5.751
20459SOL     OW73438   6.860   7.538   6.020
20459SOL    HW173439   6.770   7.522   6.061
20459SOL    HW273440   6.868   7.634   5.994
20460SOL     OW73441   6.974   7.938   7.036
20460SOL    HW173442   6.926   7.961   7.120
20460SOL    HW273443   6.908   7.908   6.967
20461SOL     OW73444   5.609   7.453   5.680
20461SOL    HW173445   5.672   7.376   5.688
20461SOL    HW273446   5.629   7.521   5.751
20462SOL     OW73447   5.882   8.428   6.681
20462SOL    HW173448   5.893   8.383   6.770
20462SOL    HW273449   5.909   8.524   6.688
20463SOL     OW73450   7.181   8.440   5.781
20463SOL    HW173451   7.252   8.510   5.783
20463SOL    HW273452   7.168   8.410   5.686
20464SOL     OW73453   6.163   8.041   6.703
20464SOL    HW173454   6.238   8.084   6.752
20464SOL    HW273455   6.096   8.006   6.769
20465SOL     OW73456   6.306   8.410   7.020
20465SOL    HW173457   6.375   8.462   6.970
20465SOL    HW273458   6.301   8.443   7.115
20466SOL     OW73459   6.698   8.431   7.180
20466SOL    HW173460   6.620   8.377   7.213
20466SOL    HW273461   6.779   8.409   7.235
20467SOL     OW73462   6.627   7.613   6.176
20467SOL    HW173463   6.686   7.673   6.231
20467SOL    HW273464   6.554   7.577   6.233
20468SOL     OW73465   6.737   9.145   7.216
20468SOL    HW173466   6.642   9.143   7.184
20468SOL    HW273467   6.758   9.236   7.253
20469SOL     OW73468   6.155   7.490   6.447
20469SOL    HW173469   6.083   7.423   6.433
20469SOL    HW273470   6.237   7.444   6.482
20470SOL     OW73471   5.855   9.155   6.814
20470SOL    HW173472   5.835   9.137   6.718
20470SOL    HW273473   5.782   9.117   6.871
20471SOL     OW73474   6.548   8.619   6.359
20471SOL    HW173475   6.587   8.662   6.278
20471SOL    HW273476   6.621   8.602   6.426
20472SOL     OW73477   6.242   8.347   6.561
20472SOL    HW173478   6.240   8.263   6.506
20472SOL    HW273479   6.191   8.333   6.646
20473SOL     OW73480   5.809   7.402   5.967
20473SOL    HW173481   5.847   7.490   5.994
20473SOL    HW273482   5.732   7.378   6.027
20474SOL     OW73483   6.225   8.019   7.295
20474SOL    HW173484   6.177   8.070   7.224
20474SOL    HW273485   6.318   7.998   7.265
20475SOL     OW73486   5.631   8.489   5.787
20475SOL    HW173487   5.621   8.392   5.766
20475SOL    HW273488   5.684   8.534   5.715
20476SOL     OW73489   7.328   7.601   6.388
20476SOL    HW173490   7.283   7.583   6.475
20476SOL    HW273491   7.426   7.618   6.404
20477SOL     OW73492   6.376   8.577   6.640
20477SOL    HW173493   6.327   8.492   6.621
20477SOL    HW273494   6.446   8.592   6.571
20478SOL     OW73495   6.714   8.000   5.849
20478SOL    HW173496   6.766   8.072   5.895
20478SOL    HW273497   6.727   8.007   5.751
20479SOL     OW73498   7.075   8.815   7.176
20479SOL    HW173499   7.060   8.717   7.190
20479SOL    HW273500   6.992   8.857   7.140
20480SOL     OW73501   5.832   8.257   6.916
20480SOL    HW173502   5.796   8.167   6.942
20480SOL    HW273503   5.793   8.327   6.976
20481SOL     OW73504   6.334   8.883   5.574
20481SOL    HW173505   6.309   8.960   5.633
20481SOL    HW273506   6.398   8.823   5.622
20482SOL     OW73507   6.152   9.090   6.608
20482SOL    HW173508   6.172   9.060   6.515
20482SOL    HW273509   6.077   9.035   6.645
20483SOL     OW73510   6.295   8.501   6.325
20483SOL    HW173511   6.384   8.547   6.325
20483SOL    HW273512   6.288   8.441   6.404
20484SOL     OW73513   6.473   8.848   5.994
20484SOL    HW173514   6.523   8.836   5.909
20484SOL    HW273515   6.419   8.765   6.013
20485SOL     OW73516   5.663   8.195   6.394
20485SOL    HW173517   5.758   8.186   6.362
20485SOL    HW273518   5.629   8.287   6.373
20486SOL     OW73519   5.600   8.312   7.321
20486SOL    HW173520   5.515   8.263   7.302
20486SOL    HW273521   5.627   8.299   7.416
20487SOL     OW73522   6.497   9.221   7.027
20487SOL    HW173523   6.469   9.134   7.068
20487SOL    HW273524   6.441   9.295   7.064
20488SOL     OW73525   6.000   7.839   7.321
20488SOL    HW173526   6.036   7.786   7.244
20488SOL    HW273527   6.061   7.916   7.339
20489SOL     OW73528   6.064   8.256   5.893
20489SOL    HW173529   6.014   8.321   5.837
20489SOL    HW273530   6.006   8.177   5.912
20490SOL     OW73531   7.145   8.287   6.591
20490SOL    HW173532   7.164   8.326   6.500
20490SOL    HW273533   7.099   8.356   6.647
20491SOL     OW73534   6.837   7.730   6.887
20491SOL    HW173535   6.908   7.702   6.951
20491SOL    HW273536   6.784   7.650   6.859
20492SOL     OW73537   5.538   7.429   6.088
20492SOL    HW173538   5.451   7.416   6.041
20492SOL    HW273539   5.546   7.524   6.118
20493SOL     OW73540   6.759   7.530   7.329
20493SOL    HW173541   6.818   7.546   7.409
20493SOL    HW273542   6.706   7.613   7.310
20494SOL     OW73543   5.975   8.949   7.154
20494SOL    HW173544   5.917   9.014   7.203
20494SOL    HW273545   6.037   8.999   7.094
20495SOL     OW73546   7.331   8.836   7.095
20495SOL    HW173547   7.359   8.929   7.117
20495SOL    HW273548   7.238   8.820   7.128
20496SOL     OW73549   6.581   7.949   6.645
20496SOL    HW173550   6.667   8.000   6.644
20496SOL    HW273551   6.587   7.875   6.712
20497SOL     OW73552   5.985   8.895   6.217
20497SOL    HW173553   5.983   8.796   6.230
20497SOL    HW273554   5.894   8.928   6.194
20498SOL     OW73555   6.626   9.012   6.805
20498SOL    HW173556   6.552   9.076   6.823
20498SOL    HW273557   6.705   9.061   6.767
20499SOL     OW73558   5.835   9.142   7.304
20499SOL    HW173559   5.878   9.226   7.270
20499SOL    HW273560   5.860   9.129   7.400
20500SOL     OW73561   5.695   8.678   7.175
20500SOL    HW173562   5.674   8.583   7.148
20500SOL    HW273563   5.626   8.739   7.137
20501SOL     OW73564   6.530   7.564   6.434
20501SOL    HW173565   6.626   7.565   6.462
20501SOL    HW273566   6.475   7.521   6.506
20502SOL     OW73567   6.592   8.570   5.950
20502SOL    HW173568   6.672   8.606   5.998
20502SOL    HW273569   6.550   8.497   6.006
20503SOL     OW73570   7.183   7.837   6.314
20503SOL    HW173571   7.202   7.923   6.361
20503SOL    HW273572   7.251   7.768   6.342
20504SOL     OW73573   6.326   8.509   5.800
20504SOL    HW173574   6.398   8.568   5.765
20504SOL    HW273575   6.366   8.425   5.836
20505SOL     OW73576   6.397   7.485   5.652
20505SOL    HW173577   6.472   7.419   5.664
20505SOL    HW273578   6.428   7.576   5.680
20506SOL     OW73579   6.076   7.914   6.264
20506SOL    HW173580   6.114   7.825   6.290
20506SOL    HW273581   6.143   7.964   6.209
20507SOL     OW73582   6.064   8.472   6.918
20507SOL    HW173583   6.160   8.452   6.938
20507SOL    HW273584   6.053   8.570   6.900
20508SOL     OW73585   7.286   8.515   6.887
20508SOL    HW173586   7.300   8.613   6.901
20508SOL    HW273587   7.343   8.484   6.811
20509SOL     OW73588   5.769   8.624   5.579
20509SOL    HW173589   5.761   8.636   5.480
20509SOL    HW273590   5.828   8.695   5.617
20510SOL     OW73591   6.196   9.063   5.739
20510SOL    HW173592   6.171   9.158   5.723
20510SOL    HW273593   6.163   9.035   5.829
20511SOL     OW73594   6.113   9.102   6.963
20511SOL    HW173595   6.162   9.182   6.927
20511SOL    HW273596   6.021   9.100   6.924
20512SOL     OW73597   5.756   7.983   7.325
20512SOL    HW173598   5.773   7.884   7.330
20512SOL    HW273599   5.820   8.031   7.386
20513SOL     OW73600   7.195   8.944   6.564
20513SOL    HW173601   7.167   9.037   6.588
20513SOL    HW273602   7.245   8.903   6.640
20514SOL     OW73603   5.591   8.317   6.125
20514SOL    HW173604   5.598   8.416   6.112
20514SOL    HW273605   5.500   8.294   6.159
20515SOL     OW73606   6.100   8.115   7.063
20515SOL    HW173607   6.006   8.085   7.044
20515SOL    HW273608   6.109   8.212   7.040
20516SOL     OW73609   7.167   8.491   6.375
20516SOL    HW173610   7.129   8.580   6.348
20516SOL    HW273611   7.167   8.429   6.297
20517SOL     OW73612   6.325   7.897   6.544
20517SOL    HW173613   6.417   7.925   6.571
20517SOL    HW273614   6.257   7.948   6.598
20518SOL     OW73615   6.178   8.748   6.771
20518SOL    HW173616   6.091   8.747   6.722
20518SOL    HW273617   6.244   8.688   6.724
20519SOL     OW73618   5.744   8.090   6.685
20519SOL    HW173619   5.782   8.149   6.756
20519SOL    HW273620   5.727   8.143   6.603
20520SOL     OW73621   5.915   8.736   6.983
20520SOL    HW173622   5.934   8.824   7.027
20520SOL    HW273623   5.820   8.710   7.001
20521SOL     OW73624   7.158   9.052   7.331
20521SOL    HW173625   7.127   8.974   7.276
20521SOL    HW273626   7.127   9.137   7.289
20522SOL     OW73627   6.866   8.590   6.052
20522SOL    HW173628   6.965   8.594   6.068
20522SOL    HW273629   6.849   8.576   5.954
20523SOL     OW73630   6.219   7.756   6.000
20523SOL    HW173631   6.121   7.750   5.980
20523SOL    HW273632   6.238   7.713   6.088
20524SOL     OW73633   7.139   7.439   6.259
20524SOL    HW173634   7.134   7.480   6.168
20524SOL    HW273635   7.220   7.473   6.306
20525SOL     OW73636   6.236   8.155   6.354
20525SOL    HW173637   6.258   8.077   6.412
20525SOL    HW273638   6.245   8.129   6.258
20526SOL     OW73639   6.901   8.862   6.566
20526SOL    HW173640   6.815   8.819   6.595
20526SOL    HW273641   6.890   8.902   6.475
20527SOL     OW73642   6.904   7.847   6.241
20527SOL    HW173643   6.903   7.839   6.142
20527SOL    HW273644   6.993   7.819   6.276
20528SOL     OW73645   6.631   8.863   8.074
20528SOL    HW173646   6.722   8.897   8.097
20528SOL    HW273647   6.603   8.901   7.986
20529SOL     OW73648   7.142   8.659   7.932
20529SOL    HW173649   7.153   8.743   7.986
20529SOL    HW273650   7.232   8.622   7.909
20530SOL     OW73651   7.222   7.941   8.796
20530SOL    HW173652   7.124   7.933   8.818
20530SOL    HW273653   7.275   7.930   8.880
20531SOL     OW73654   5.889   7.578   7.401
20531SOL    HW173655   5.802   7.575   7.352
20531SOL    HW273656   5.940   7.660   7.373
20532SOL     OW73657   6.876   8.967   8.176
20532SOL    HW173658   6.865   9.064   8.199
20532SOL    HW273659   6.969   8.950   8.146
20533SOL     OW73660   6.754   7.478   8.734
20533SOL    HW173661   6.678   7.433   8.781
20533SOL    HW273662   6.783   7.423   8.656
20534SOL     OW73663   6.492   8.258   9.111
20534SOL    HW173664   6.457   8.233   9.021
20534SOL    HW273665   6.416   8.279   9.172
20535SOL     OW73666   6.099   8.932   7.805
20535SOL    HW173667   6.055   8.941   7.894
20535SOL    HW273668   6.170   8.862   7.809
20536SOL     OW73669   6.117   7.465   7.527
20536SOL    HW173670   6.205   7.493   7.488
20536SOL    HW273671   6.045   7.528   7.497
20537SOL     OW73672   7.087   8.450   8.910
20537SOL    HW173673   6.995   8.455   8.872
20537SOL    HW273674   7.152   8.488   8.844
20538SOL     OW73675   6.987   8.457   8.591
20538SOL    HW173676   6.912   8.446   8.656
20538SOL    HW273677   7.024   8.550   8.597
20539SOL     OW73678   6.483   8.712   8.891
20539SOL    HW173679   6.426   8.775   8.837
20539SOL    HW273680   6.516   8.638   8.832
20540SOL     OW73681   6.026   8.605   8.100
20540SOL    HW173682   5.959   8.559   8.159
20540SOL    HW273683   6.118   8.573   8.123
20541SOL     OW73684   6.253   8.011   7.931
20541SOL    HW173685   6.292   8.081   7.872
20541SOL    HW273686   6.227   7.931   7.877
20542SOL     OW73687   6.873   7.919   9.140
20542SOL    HW173688   6.969   7.923   9.166
20542SOL    HW273689   6.829   7.843   9.187
20543SOL     OW73690   5.956   8.774   7.584
20543SOL    HW173691   6.020   8.790   7.509
20543SOL    HW273692   5.980   8.832   7.662
20544SOL     OW73693   6.107   7.730   8.394
20544SOL    HW173694   6.183   7.795   8.390
20544SOL    HW273695   6.137   7.641   8.361
20545SOL     OW73696   5.804   8.156   7.812
20545SOL    HW173697   5.819   8.090   7.886
20545SOL    HW273698   5.754   8.235   7.847
20546SOL     OW73699   6.390   9.101   7.989
20546SOL    HW173700   6.455   9.034   7.953
20546SOL    HW273701   6.380   9.177   7.925
20547SOL     OW73702   7.282   8.983   7.731
20547SOL    HW173703   7.378   8.957   7.724
20547SOL    HW273704   7.258   9.043   7.655
20548SOL     OW73705   7.194   7.676   8.502
20548SOL    HW173706   7.245   7.748   8.455
20548SOL    HW273707   7.099   7.703   8.511
20549SOL     OW73708   6.594   7.705   7.771
20549SOL    HW173709   6.619   7.799   7.792
20549SOL    HW273710   6.595   7.651   7.855
20550SOL     OW73711   5.718   8.418   8.956
20550SOL    HW173712   5.814   8.433   8.974
20550SOL    HW273713   5.680   8.356   9.025
20551SOL     OW73714   6.044   8.063   7.499
20551SOL    HW173715   6.004   8.142   7.452
20551SOL    HW273716   6.133   8.042   7.459
20552SOL     OW73717   6.217   8.987   8.197
20552SOL    HW173718   6.290   9.010   8.133
20552SOL    HW273719   6.146   8.934   8.151
20553SOL     OW73720   6.559   8.019   8.951
20553SOL    HW173721   6.592   7.936   8.998
20553SOL    HW273722   6.632   8.087   8.950
20554SOL     OW73723   7.163   8.819   8.173
20554SOL    HW173724   7.159   8.854   8.266
20554SOL    HW273725   7.222   8.878   8.117
20555SOL     OW73726   5.894   8.640   7.849
20555SOL    HW173727   5.940   8.614   7.934
20555SOL    HW273728   5.914   8.572   7.778
20556SOL     OW73729   6.752   7.695   7.560
20556SOL    HW173730   6.846   7.665   7.578
20556SOL    HW273731   6.700   7.695   7.646
20557SOL     OW73732   5.904   7.900   8.655
20557SOL    HW173733   5.894   7.813   8.607
20557SOL    HW273734   5.840   7.967   8.618
20558SOL     OW73735   6.986   8.180   8.693
20558SOL    HW173736   6.990   8.274   8.658
20558SOL    HW273737   7.079   8.149   8.715
20559SOL     OW73738   5.939   7.672   7.814
20559SOL    HW173739   5.893   7.712   7.893
20559SOL    HW273740   5.887   7.691   7.732
20560SOL     OW73741   7.067   9.199   8.726
20560SOL    HW173742   7.010   9.150   8.660
20560SOL    HW273743   7.153   9.226   8.683
20561SOL     OW73744   7.362   7.917   8.581
20561SOL    HW173745   7.419   7.999   8.583
20561SOL    HW273746   7.303   7.916   8.661
20562SOL     OW73747   7.379   9.143   8.494
20562SOL    HW173748   7.425   9.153   8.582
20562SOL    HW273749   7.446   9.146   8.421
20563SOL     OW73750   6.492   7.883   8.056
20563SOL    HW173751   6.568   7.911   8.115
20563SOL    HW273752   6.448   7.963   8.017
20564SOL     OW73753   6.727   8.347   7.573
20564SOL    HW173754   6.764   8.297   7.651
20564SOL    HW273755   6.657   8.292   7.528
20565SOL     OW73756   6.569   7.769   9.194
20565SOL    HW173757   6.632   7.774   9.271
20565SOL    HW273758   6.477   7.747   9.227
20566SOL     OW73759   7.310   8.016   7.652
20566SOL    HW173760   7.331   7.935   7.598
20566SOL    HW273761   7.327   7.997   7.749
20567SOL     OW73762   6.604   9.154   7.560
20567SOL    HW173763   6.638   9.067   7.525
20567SOL    HW273764   6.572   9.142   7.654
20568SOL     OW73765   6.285   7.421   9.092
20568SOL    HW173766   6.292   7.327   9.059
20568SOL    HW273767   6.342   7.431   9.174
20569SOL     OW73768   7.208   8.022   8.360
20569SOL    HW173769   7.193   8.113   8.397
20569SOL    HW273770   7.278   7.975   8.414
20570SOL     OW73771   6.618   8.688   9.126
20570SOL    HW173772   6.640   8.598   9.088
20570SOL    HW273773   6.553   8.735   9.067
20571SOL     OW73774   6.273   8.530   9.130
20571SOL    HW173775   6.244   8.607   9.187
20571SOL    HW273776   6.283   8.449   9.188
20572SOL     OW73777   6.908   7.394   8.236
20572SOL    HW173778   6.857   7.478   8.218
20572SOL    HW273779   6.994   7.396   8.185
20573SOL     OW73780   7.263   7.600   9.165
20573SOL    HW173781   7.240   7.621   9.260
20573SOL    HW273782   7.239   7.505   9.145
20574SOL     OW73783   5.566   8.004   7.909
20574SOL    HW173784   5.568   7.955   7.996
20574SOL    HW273785   5.568   8.103   7.927
20575SOL     OW73786   5.887   7.592   8.230
20575SOL    HW173787   5.939   7.632   8.305
20575SOL    HW273788   5.940   7.519   8.187
20576SOL     OW73789   5.871   7.640   8.564
20576SOL    HW173790   5.836   7.547   8.564
20576SOL    HW273791   5.958   7.643   8.515
20577SOL     OW73792   6.538   8.262   8.304
20577SOL    HW173793   6.564   8.342   8.250
20577SOL    HW273794   6.532   8.182   8.244
20578SOL     OW73795   5.739   8.889   7.763
20578SOL    HW173796   5.766   8.795   7.783
20578SOL    HW273797   5.764   8.911   7.669
20579SOL     OW73798   7.021   8.758   8.637
20579SOL    HW173799   6.992   8.795   8.548
20579SOL    HW273800   6.943   8.758   8.699
20580SOL     OW73801   5.753   9.032   8.000
20580SOL    HW173802   5.669   9.083   8.018
20580SOL    HW273803   5.744   8.981   7.915
20581SOL     OW73804   7.274   8.829   8.675
20581SOL    HW173805   7.305   8.843   8.769
20581SOL    HW273806   7.175   8.816   8.674
20582SOL     OW73807   6.026   8.329   7.402
20582SOL    HW173808   5.995   8.363   7.314
20582SOL    HW273809   6.030   8.404   7.468
20583SOL     OW73810   6.543   8.516   8.701
20583SOL    HW173811   6.593   8.431   8.685
20583SOL    HW273812   6.497   8.543   8.616
20584SOL     OW73813   5.630   8.221   7.575
20584SOL    HW173814   5.690   8.168   7.635
20584SOL    HW273815   5.536   8.189   7.587
20585SOL     OW73816   7.150   8.219   7.775
20585SOL    HW173817   7.218   8.153   7.742
20585SOL    HW273818   7.165   8.307   7.731
20586SOL     OW73819   6.398   9.206   8.423
20586SOL    HW173820   6.444   9.139   8.365
20586SOL    HW273821   6.324   9.162   8.473
20587SOL     OW73822   6.305   8.275   7.459
20587SOL    HW173823   6.334   8.194   7.510
20587SOL    HW273824   6.205   8.274   7.450
20588SOL     OW73825   6.901   7.807   7.805
20588SOL    HW173826   6.838   7.865   7.753
20588SOL    HW273827   6.994   7.841   7.793
20589SOL     OW73828   5.798   8.008   8.905
20589SOL    HW173829   5.818   7.913   8.880
20589SOL    HW273830   5.761   8.011   8.998
20590SOL     OW73831   6.578   8.284   8.560
20590SOL    HW173832   6.572   8.270   8.461
20590SOL    HW273833   6.497   8.245   8.604
20591SOL     OW73834   7.169   7.818   7.875
20591SOL    HW173835   7.265   7.789   7.872
20591SOL    HW273836   7.130   7.796   7.964
20592SOL     OW73837   6.453   8.893   8.312
20592SOL    HW173838   6.511   8.904   8.231
20592SOL    HW273839   6.359   8.917   8.290
20593SOL     OW73840   6.403   7.759   7.597
20593SOL    HW173841   6.312   7.772   7.635
20593SOL    HW273842   6.463   7.719   7.667
20594SOL     OW73843   6.514   8.704   7.532
20594SOL    HW173844   6.567   8.644   7.592
20594SOL    HW273845   6.553   8.705   7.441
20595SOL     OW73846   7.265   8.999   8.017
20595SOL    HW173847   7.232   9.092   8.036
20595SOL    HW273848   7.263   8.983   7.918
20596SOL     OW73849   6.680   8.272   8.006
20596SOL    HW173850   6.745   8.300   8.077
20596SOL    HW273851   6.601   8.333   8.008
20597SOL     OW73852   6.428   8.998   9.030
20597SOL    HW173853   6.416   8.929   8.959
20597SOL    HW273854   6.391   8.963   9.117
20598SOL     OW73855   6.872   8.312   8.209
20598SOL    HW173856   6.893   8.254   8.287
20598SOL    HW273857   6.881   8.408   8.235
20599SOL     OW73858   5.828   8.441   8.255
20599SOL    HW173859   5.751   8.503   8.248
20599SOL    HW273860   5.865   8.442   8.348
20600SOL     OW73861   6.461   8.389   7.954
20600SOL    HW173862   6.448   8.300   7.911
20600SOL    HW273863   6.392   8.403   8.025
20601SOL     OW73864   6.765   8.777   8.793
20601SOL    HW173865   6.798   8.862   8.834
20601SOL    HW273866   6.666   8.773   8.800
20602SOL     OW73867   5.572   7.694   7.857
20602SOL    HW173868   5.632   7.645   7.795
20602SOL    HW273869   5.627   7.746   7.922
20603SOL     OW73870   7.195   9.192   7.548
20603SOL    HW173871   7.285   9.236   7.550
20603SOL    HW273872   7.194   9.123   7.476
20604SOL     OW73873   6.359   8.159   8.706
20604SOL    HW173874   6.361   8.245   8.757
20604SOL    HW273875   6.416   8.091   8.753
20605SOL     OW73876   5.596   9.186   8.777
20605SOL    HW173877   5.604   9.286   8.775
20605SOL    HW273878   5.572   9.157   8.870
20606SOL     OW73879   6.377   8.205   7.771
20606SOL    HW173880   6.288   8.233   7.736
20606SOL    HW273881   6.418   8.139   7.707
20607SOL     OW73882   5.899   7.923   8.310
20607SOL    HW173883   5.955   7.916   8.227
20607SOL    HW273884   5.956   7.901   8.390
20608SOL     OW73885   5.896   9.121   7.581
20608SOL    HW173886   5.988   9.151   7.556
20608SOL    HW273887   5.871   9.160   7.670
20609SOL     OW73888   6.872   9.143   8.518
20609SOL    HW173889   6.891   9.206   8.444
20609SOL    HW273890   6.880   9.049   8.485
20610SOL     OW73891   5.577   8.538   8.330
20610SOL    HW173892   5.487   8.554   8.291
20610SOL    HW273893   5.575   8.454   8.385
20611SOL     OW73894   6.328   7.443   7.780
20611SOL    HW173895   6.289   7.432   7.689
20611SOL    HW273896   6.284   7.519   7.827
20612SOL     OW73897   5.573   8.579   7.874
20612SOL    HW173898   5.651   8.637   7.898
20612SOL    HW273899   5.592   8.530   7.789
20613SOL     OW73900   7.103   7.707   8.958
20613SOL    HW173901   7.042   7.785   8.955
20613SOL    HW273902   7.158   7.711   9.041
20614SOL     OW73903   6.819   7.653   8.249
20614SOL    HW173904   6.818   7.731   8.186
20614SOL    HW273905   6.862   7.680   8.335
20615SOL     OW73906   6.939   7.459   7.545
20615SOL    HW173907   7.019   7.399   7.542
20615SOL    HW273908   6.865   7.412   7.593
20616SOL     OW73909   7.152   7.431   8.979
20616SOL    HW173910   7.178   7.388   8.893
20616SOL    HW273911   7.102   7.515   8.961
20617SOL     OW73912   6.254   7.690   8.111
20617SOL    HW173913   6.243   7.632   8.192
20617SOL    HW273914   6.339   7.742   8.119
20618SOL     OW73915   6.834   8.041   8.503
20618SOL    HW173916   6.888   8.081   8.429
20618SOL    HW273917   6.872   8.070   8.591
20619SOL     OW73918   7.127   7.447   7.819
20619SOL    HW173919   7.134   7.401   7.731
20619SOL    HW273920   7.031   7.457   7.844
20620SOL     OW73921   6.103   8.762   9.182
20620SOL    HW173922   6.064   8.825   9.115
20620SOL    HW273923   6.186   8.802   9.222
20621SOL     OW73924   5.979   8.494   9.014
20621SOL    HW173925   5.998   8.518   8.919
20621SOL    HW273926   5.972   8.577   9.069
20622SOL     OW73927   5.640   8.784   8.488
20622SOL    HW173928   5.609   8.710   8.429
20622SOL    HW273929   5.572   8.802   8.559
20623SOL     OW73930   6.726   7.985   8.221
20623SOL    HW173931   6.808   7.962   8.169
20623SOL    HW273932   6.721   7.926   8.302
20624SOL     OW73933   7.326   8.012   9.057
20624SOL    HW173934   7.315   8.098   9.006
20624SOL    HW273935   7.420   8.003   9.087
20625SOL     OW73936   6.897   7.785   8.476
20625SOL    HW173937   6.871   7.882   8.482
20625SOL    HW273938   6.897   7.745   8.568
20626SOL     OW73939   7.127   7.917   9.227
20626SOL    HW173940   7.207   7.942   9.171
20626SOL    HW273941   7.158   7.882   9.315
20627SOL     OW73942   6.838   8.220   7.807
20627SOL    HW173943   6.784   8.218   7.891
20627SOL    HW273944   6.915   8.283   7.818
20628SOL     OW73945   7.135   8.316   8.027
20628SOL    HW173946   7.149   8.279   7.934
20628SOL    HW273947   7.046   8.286   8.061
20629SOL     OW73948   7.291   8.253   8.922
20629SOL    HW173949   7.193   8.274   8.924
20629SOL    HW273950   7.340   8.329   8.881
20630SOL     OW73951   7.145   7.673   7.601
20630SOL    HW173952   7.150   7.715   7.692
20630SOL    HW273953   7.078   7.598   7.603
20631SOL     OW73954   6.292   8.888   8.821
20631SOL    HW173955   6.229   8.966   8.828
20631SOL    HW273956   6.260   8.826   8.749
20632SOL     OW73957   5.563   9.097   9.030
20632SOL    HW173958   5.635   9.083   9.098
20632SOL    HW273959   5.474   9.100   9.075
20633SOL     OW73960   5.731   7.753   8.054
20633SOL    HW173961   5.674   7.808   8.115
20633SOL    HW273962   5.801   7.705   8.107
20634SOL     OW73963   6.903   8.985   8.917
20634SOL    HW173964   6.856   9.053   8.972
20634SOL    HW273965   6.970   9.031   8.858
20635SOL     OW73966   5.868   7.944   7.652
20635SOL    HW173967   5.940   7.973   7.589
20635SOL    HW273968   5.824   8.024   7.692
20636SOL     OW73969   7.254   7.606   8.755
20636SOL    HW173970   7.210   7.654   8.831
20636SOL    HW273971   7.232   7.652   8.669
20637SOL     OW73972   5.983   9.207   8.118
20637SOL    HW173973   5.907   9.173   8.063
20637SOL    HW273974   6.069   9.170   8.083
20638SOL     OW73975   5.908   8.716   8.563
20638SOL    HW173976   5.920   8.732   8.660
20638SOL    HW273977   5.821   8.756   8.533
20639SOL     OW73978   6.792   8.920   9.209
20639SOL    HW173979   6.751   8.835   9.175
20639SOL    HW273980   6.772   8.994   9.145
20640SOL     OW73981   6.282   8.640   7.899
20640SOL    HW173982   6.325   8.571   7.841
20640SOL    HW273983   6.246   8.597   7.982
20641SOL     OW73984   5.914   8.191   8.101
20641SOL    HW173985   5.906   8.289   8.119
20641SOL    HW273986   5.998   8.157   8.142
20642SOL     OW73987   5.760   7.671   7.616
20642SOL    HW173988   5.804   7.640   7.533
20642SOL    HW273989   5.761   7.771   7.620
20643SOL     OW73990   5.613   7.923   8.227
20643SOL    HW173991   5.577   8.016   8.219
20643SOL    HW273992   5.696   7.924   8.283
20644SOL     OW73993   6.048   8.510   7.613
20644SOL    HW173994   6.148   8.510   7.624
20644SOL    HW273995   6.017   8.603   7.592
20645SOL     OW73996   6.674   8.102   7.429
20645SOL    HW173997   6.605   8.159   7.385
20645SOL    HW273998   6.755   8.096   7.370
20646SOL     OW73999   6.409   8.021   7.572
20646SOL    HW174000   6.499   8.022   7.527
20646SOL    HW274001   6.386   7.927   7.597
20647SOL     OW74002   6.860   7.538   7.866
20647SOL    HW174003   6.770   7.522   7.907
20647SOL    HW274004   6.868   7.634   7.840
20648SOL     OW74005   6.974   7.938   8.882
20648SOL    HW174006   6.926   7.961   8.966
20648SOL    HW274007   6.908   7.908   8.813
20649SOL     OW74008   5.609   7.453   7.526
20649SOL    HW174009   5.672   7.376   7.534
20649SOL    HW274010   5.629   7.521   7.597
20650SOL     OW74011   5.882   8.428   8.527
20650SOL    HW174012   5.893   8.383   8.616
20650SOL    HW274013   5.909   8.524   8.534
20651SOL     OW74014   7.181   8.440   7.627
20651SOL    HW174015   7.252   8.510   7.629
20651SOL    HW274016   7.168   8.410   7.532
20652SOL     OW74017   6.163   8.041   8.549
20652SOL    HW174018   6.238   8.084   8.598
20652SOL    HW274019   6.096   8.006   8.615
20653SOL     OW74020   6.306   8.410   8.866
20653SOL    HW174021   6.375   8.462   8.816
20653SOL    HW274022   6.301   8.443   8.961
20654SOL     OW74023   6.698   8.431   9.026
20654SOL    HW174024   6.620   8.377   9.059
20654SOL    HW274025   6.779   8.409   9.081
20655SOL     OW74026   6.627   7.613   8.022
20655SOL    HW174027   6.686   7.673   8.077
20655SOL    HW274028   6.554   7.577   8.079
20656SOL     OW74029   6.737   9.145   9.062
20656SOL    HW174030   6.642   9.143   9.030
20656SOL    HW274031   6.758   9.236   9.099
20657SOL     OW74032   6.155   7.490   8.293
20657SOL    HW174033   6.083   7.423   8.279
20657SOL    HW274034   6.237   7.444   8.328
20658SOL     OW74035   5.855   9.155   8.660
20658SOL    HW174036   5.835   9.137   8.564
20658SOL    HW274037   5.782   9.117   8.717
20659SOL     OW74038   6.548   8.619   8.205
20659SOL    HW174039   6.587   8.662   8.124
20659SOL    HW274040   6.621   8.602   8.272
20660SOL     OW74041   6.242   8.347   8.407
20660SOL    HW174042   6.240   8.263   8.352
20660SOL    HW274043   6.191   8.333   8.492
20661SOL     OW74044   5.581   8.357   8.533
20661SOL    HW174045   5.670   8.335   8.573
20661SOL    HW274046   5.526   8.273   8.529
20662SOL     OW74047   5.809   7.402   7.813
20662SOL    HW174048   5.847   7.490   7.840
20662SOL    HW274049   5.732   7.378   7.873
20663SOL     OW74050   6.225   8.019   9.141
20663SOL    HW174051   6.177   8.070   9.070
20663SOL    HW274052   6.318   7.998   9.111
20664SOL     OW74053   5.631   8.489   7.633
20664SOL    HW174054   5.621   8.392   7.612
20664SOL    HW274055   5.684   8.534   7.561
20665SOL     OW74056   7.328   7.601   8.234
20665SOL    HW174057   7.283   7.583   8.321
20665SOL    HW274058   7.426   7.618   8.250
20666SOL     OW74059   6.376   8.577   8.486
20666SOL    HW174060   6.327   8.492   8.467
20666SOL    HW274061   6.446   8.592   8.417
20667SOL     OW74062   6.714   8.000   7.695
20667SOL    HW174063   6.766   8.072   7.741
20667SOL    HW274064   6.727   8.007   7.597
20668SOL     OW74065   7.075   8.815   9.022
20668SOL    HW174066   7.060   8.717   9.036
20668SOL    HW274067   6.992   8.857   8.986
20669SOL     OW74068   5.832   8.257   8.762
20669SOL    HW174069   5.796   8.167   8.788
20669SOL    HW274070   5.793   8.327   8.822
20670SOL     OW74071   6.334   8.883   7.420
20670SOL    HW174072   6.309   8.960   7.479
20670SOL    HW274073   6.398   8.823   7.468
20671SOL     OW74074   6.152   9.090   8.454
20671SOL    HW174075   6.172   9.060   8.361
20671SOL    HW274076   6.077   9.035   8.491
20672SOL     OW74077   6.295   8.501   8.171
20672SOL    HW174078   6.384   8.547   8.171
20672SOL    HW274079   6.288   8.441   8.250
20673SOL     OW74080   6.473   8.848   7.840
20673SOL    HW174081   6.523   8.836   7.755
20673SOL    HW274082   6.419   8.765   7.859
20674SOL     OW74083   5.663   8.195   8.240
20674SOL    HW174084   5.758   8.186   8.208
20674SOL    HW274085   5.629   8.287   8.219
20675SOL     OW74086   5.600   8.312   9.167
20675SOL    HW174087   5.515   8.263   9.148
20675SOL    HW274088   5.627   8.299   9.262
20676SOL     OW74089   6.497   9.221   8.873
20676SOL    HW174090   6.469   9.134   8.914
20676SOL    HW274091   6.441   9.295   8.910
20677SOL     OW74092   6.726   8.568   8.403
20677SOL    HW174093   6.710   8.662   8.434
20677SOL    HW274094   6.729   8.507   8.483
20678SOL     OW74095   6.000   7.839   9.167
20678SOL    HW174096   6.036   7.786   9.090
20678SOL    HW274097   6.061   7.916   9.185
20679SOL     OW74098   6.064   8.256   7.739
20679SOL    HW174099   6.014   8.321   7.683
20679SOL    HW274100   6.006   8.177   7.758
20680SOL     OW74101   7.145   8.287   8.437
20680SOL    HW174102   7.164   8.326   8.346
20680SOL    HW274103   7.099   8.356   8.493
20681SOL     OW74104   6.837   7.730   8.733
20681SOL    HW174105   6.908   7.702   8.797
20681SOL    HW274106   6.784   7.650   8.705
20682SOL     OW74107   6.759   7.530   9.175
20682SOL    HW174108   6.818   7.546   9.255
20682SOL    HW274109   6.706   7.613   9.156
20683SOL     OW74110   5.975   8.949   9.000
20683SOL    HW174111   5.917   9.014   9.049
20683SOL    HW274112   6.037   8.999   8.940
20684SOL     OW74113   7.331   8.836   8.941
20684SOL    HW174114   7.359   8.929   8.963
20684SOL    HW274115   7.238   8.820   8.974
20685SOL     OW74116   6.581   7.949   8.491
20685SOL    HW174117   6.667   8.000   8.490
20685SOL    HW274118   6.587   7.875   8.558
20686SOL     OW74119   5.985   8.895   8.063
20686SOL    HW174120   5.983   8.796   8.076
20686SOL    HW274121   5.894   8.928   8.040
20687SOL     OW74122   6.626   9.012   8.651
20687SOL    HW174123   6.552   9.076   8.669
20687SOL    HW274124   6.705   9.061   8.613
20688SOL     OW74125   5.835   9.142   9.150
20688SOL    HW174126   5.878   9.226   9.116
20688SOL    HW274127   5.860   9.129   9.246
20689SOL     OW74128   5.695   8.678   9.021
20689SOL    HW174129   5.674   8.583   8.994
20689SOL    HW274130   5.626   8.739   8.983
20690SOL     OW74131   5.784   9.043   8.425
20690SOL    HW174132   5.726   8.963   8.439
20690SOL    HW274133   5.808   9.050   8.328
20691SOL     OW74134   6.530   7.564   8.280
20691SOL    HW174135   6.626   7.565   8.308
20691SOL    HW274136   6.475   7.521   8.352
20692SOL     OW74137   6.592   8.570   7.796
20692SOL    HW174138   6.672   8.606   7.844
20692SOL    HW274139   6.550   8.497   7.852
20693SOL     OW74140   7.183   7.837   8.160
20693SOL    HW174141   7.202   7.923   8.207
20693SOL    HW274142   7.251   7.768   8.188
20694SOL     OW74143   6.326   8.509   7.646
20694SOL    HW174144   6.398   8.568   7.611
20694SOL    HW274145   6.366   8.425   7.682
20695SOL     OW74146   6.397   7.485   7.498
20695SOL    HW174147   6.472   7.419   7.510
20695SOL    HW274148   6.428   7.576   7.526
20696SOL     OW74149   6.076   7.914   8.110
20696SOL    HW174150   6.114   7.825   8.136
20696SOL    HW274151   6.143   7.964   8.055
20697SOL     OW74152   6.064   8.472   8.764
20697SOL    HW174153   6.160   8.452   8.784
20697SOL    HW274154   6.053   8.570   8.746
20698SOL     OW74155   7.286   8.515   8.733
20698SOL    HW174156   7.300   8.613   8.747
20698SOL    HW274157   7.343   8.484   8.657
20699SOL     OW74158   5.769   8.624   7.425
20699SOL    HW174159   5.761   8.636   7.326
20699SOL    HW274160   5.828   8.695   7.463
20700SOL     OW74161   6.196   9.063   7.585
20700SOL    HW174162   6.171   9.158   7.569
20700SOL    HW274163   6.163   9.035   7.675
20701SOL     OW74164   6.846   8.486   8.809
20701SOL    HW174165   6.790   8.445   8.880
20701SOL    HW274166   6.826   8.584   8.803
20702SOL     OW74167   6.113   9.102   8.809
20702SOL    HW174168   6.162   9.182   8.773
20702SOL    HW274169   6.021   9.100   8.770
20703SOL     OW74170   5.756   7.983   9.171
20703SOL    HW174171   5.773   7.884   9.176
20703SOL    HW274172   5.820   8.031   9.232
20704SOL     OW74173   7.195   8.944   8.410
20704SOL    HW174174   7.167   9.037   8.434
20704SOL    HW274175   7.245   8.903   8.486
20705SOL     OW74176   5.591   8.317   7.971
20705SOL    HW174177   5.598   8.416   7.958
20705SOL    HW274178   5.500   8.294   8.005
20706SOL     OW74179   6.100   8.115   8.909
20706SOL    HW174180   6.006   8.085   8.890
20706SOL    HW274181   6.109   8.212   8.886
20707SOL     OW74182   7.167   8.491   8.221
20707SOL    HW174183   7.129   8.580   8.194
20707SOL    HW274184   7.167   8.429   8.143
20708SOL     OW74185   6.325   7.897   8.390
20708SOL    HW174186   6.417   7.925   8.417
20708SOL    HW274187   6.257   7.948   8.444
20709SOL     OW74188   6.178   8.748   8.617
20709SOL    HW174189   6.091   8.747   8.568
20709SOL    HW274190   6.244   8.688   8.570
20710SOL     OW74191   5.744   8.090   8.531
20710SOL    HW174192   5.782   8.149   8.602
20710SOL    HW274193   5.727   8.143   8.449
20711SOL     OW74194   5.915   8.736   8.829
20711SOL    HW174195   5.934   8.824   8.873
20711SOL    HW274196   5.820   8.710   8.847
20712SOL     OW74197   7.158   9.052   9.177
20712SOL    HW174198   7.127   8.974   9.122
20712SOL    HW274199   7.127   9.137   9.135
20713SOL     OW74200   6.866   8.590   7.898
20713SOL    HW174201   6.965   8.594   7.914
20713SOL    HW274202   6.849   8.576   7.800
20714SOL     OW74203   6.219   7.756   7.846
20714SOL    HW174204   6.121   7.750   7.826
20714SOL    HW274205   6.238   7.713   7.934
20715SOL     OW74206   7.139   7.439   8.105
20715SOL    HW174207   7.134   7.480   8.014
20715SOL    HW274208   7.220   7.473   8.152
20716SOL     OW74209   6.742   8.195   8.798
20716SOL    HW174210   6.841   8.204   8.788
20716SOL    HW274211   6.698   8.197   8.708
20717SOL     OW74212   6.236   8.155   8.200
20717SOL    HW174213   6.258   8.077   8.258
20717SOL    HW274214   6.245   8.129   8.104
20718SOL     OW74215   6.901   8.862   8.412
20718SOL    HW174216   6.815   8.819   8.441
20718SOL    HW274217   6.890   8.902   8.321
20719SOL     OW74218   6.904   7.847   8.087
20719SOL    HW174219   6.903   7.839   7.988
20719SOL    HW274220   6.993   7.819   8.122
20720SOL     OW74221   6.631   8.863   9.919
20720SOL    HW174222   6.722   8.897   9.942
20720SOL    HW274223   6.603   8.901   9.831
20721SOL     OW74224   7.142   8.659   9.777
20721SOL    HW174225   7.153   8.743   9.831
20721SOL    HW274226   7.232   8.622   9.754
20722SOL     OW74227   5.889   7.578   9.246
20722SOL    HW174228   5.802   7.575   9.197
20722SOL    HW274229   5.940   7.660   9.218
20723SOL     OW74230   6.099   8.932   9.650
20723SOL    HW174231   6.055   8.941   9.739
20723SOL    HW274232   6.170   8.862   9.654
20724SOL     OW74233   6.117   7.465   9.372
20724SOL    HW174234   6.205   7.493   9.333
20724SOL    HW274235   6.045   7.528   9.342
20725SOL     OW74236   6.026   8.605   9.945
20725SOL    HW174237   5.959   8.559  10.004
20725SOL    HW274238   6.118   8.573   9.968
20726SOL     OW74239   6.253   8.011   9.776
20726SOL    HW174240   6.292   8.081   9.717
20726SOL    HW274241   6.227   7.931   9.722
20727SOL     OW74242   5.956   8.774   9.429
20727SOL    HW174243   6.020   8.790   9.354
20727SOL    HW274244   5.980   8.832   9.507
20728SOL     OW74245   5.804   8.156   9.657
20728SOL    HW174246   5.819   8.090   9.731
20728SOL    HW274247   5.754   8.235   9.692
20729SOL     OW74248   6.390   9.101   9.834
20729SOL    HW174249   6.455   9.034   9.798
20729SOL    HW274250   6.380   9.177   9.770
20730SOL     OW74251   7.282   8.983   9.576
20730SOL    HW174252   7.378   8.957   9.569
20730SOL    HW274253   7.258   9.043   9.500
20731SOL     OW74254   6.594   7.705   9.616
20731SOL    HW174255   6.619   7.799   9.637
20731SOL    HW274256   6.595   7.651   9.700
20732SOL     OW74257   6.044   8.063   9.344
20732SOL    HW174258   6.004   8.142   9.297
20732SOL    HW274259   6.133   8.042   9.304
20733SOL     OW74260   7.163   8.819  10.018
20733SOL    HW174261   7.159   8.854  10.111
20733SOL    HW274262   7.222   8.878   9.962
20734SOL     OW74263   5.894   8.640   9.694
20734SOL    HW174264   5.940   8.614   9.779
20734SOL    HW274265   5.914   8.572   9.623
20735SOL     OW74266   6.752   7.695   9.405
20735SOL    HW174267   6.846   7.665   9.423
20735SOL    HW274268   6.700   7.695   9.491
20736SOL     OW74269   5.939   7.672   9.659
20736SOL    HW174270   5.893   7.712   9.738
20736SOL    HW274271   5.887   7.691   9.577
20737SOL     OW74272   7.379   9.143  10.339
20737SOL    HW174273   7.425   9.153  10.427
20737SOL    HW274274   7.446   9.146  10.266
20738SOL     OW74275   6.492   7.883   9.901
20738SOL    HW174276   6.568   7.911   9.960
20738SOL    HW274277   6.448   7.963   9.862
20739SOL     OW74278   6.727   8.347   9.418
20739SOL    HW174279   6.764   8.297   9.496
20739SOL    HW274280   6.657   8.292   9.373
20740SOL     OW74281   7.310   8.016   9.497
20740SOL    HW174282   7.331   7.935   9.443
20740SOL    HW274283   7.327   7.997   9.594
20741SOL     OW74284   6.604   9.154   9.405
20741SOL    HW174285   6.638   9.067   9.370
20741SOL    HW274286   6.572   9.142   9.499
20742SOL     OW74287   5.566   8.004   9.754
20742SOL    HW174288   5.568   7.955   9.841
20742SOL    HW274289   5.568   8.103   9.772
20743SOL     OW74290   5.739   8.889   9.608
20743SOL    HW174291   5.766   8.795   9.628
20743SOL    HW274292   5.764   8.911   9.514
20744SOL     OW74293   5.753   9.032   9.845
20744SOL    HW174294   5.669   9.083   9.863
20744SOL    HW274295   5.744   8.981   9.760
20745SOL     OW74296   6.026   8.329   9.247
20745SOL    HW174297   5.995   8.363   9.159
20745SOL    HW274298   6.030   8.404   9.313
20746SOL     OW74299   5.630   8.221   9.420
20746SOL    HW174300   5.690   8.168   9.480
20746SOL    HW274301   5.536   8.189   9.432
20747SOL     OW74302   7.150   8.219   9.620
20747SOL    HW174303   7.218   8.153   9.587
20747SOL    HW274304   7.165   8.307   9.576
20748SOL     OW74305   6.305   8.275   9.304
20748SOL    HW174306   6.334   8.194   9.355
20748SOL    HW274307   6.205   8.274   9.295
20749SOL     OW74308   6.901   7.807   9.650
20749SOL    HW174309   6.838   7.865   9.598
20749SOL    HW274310   6.994   7.841   9.638
20750SOL     OW74311   7.169   7.818   9.720
20750SOL    HW174312   7.265   7.789   9.717
20750SOL    HW274313   7.130   7.796   9.809
20751SOL     OW74314   6.403   7.759   9.442
20751SOL    HW174315   6.312   7.772   9.480
20751SOL    HW274316   6.463   7.719   9.512
20752SOL     OW74317   6.514   8.704   9.377
20752SOL    HW174318   6.567   8.644   9.437
20752SOL    HW274319   6.553   8.705   9.286
20753SOL     OW74320   7.265   8.999   9.862
20753SOL    HW174321   7.232   9.092   9.881
20753SOL    HW274322   7.263   8.983   9.763
20754SOL     OW74323   6.680   8.272   9.851
20754SOL    HW174324   6.745   8.300   9.922
20754SOL    HW274325   6.601   8.333   9.853
20755SOL     OW74326   6.872   8.312  10.054
20755SOL    HW174327   6.893   8.254  10.132
20755SOL    HW274328   6.881   8.408  10.080
20756SOL     OW74329   6.461   8.389   9.799
20756SOL    HW174330   6.448   8.300   9.756
20756SOL    HW274331   6.392   8.403   9.870
20757SOL     OW74332   5.572   7.694   9.702
20757SOL    HW174333   5.632   7.645   9.640
20757SOL    HW274334   5.627   7.746   9.767
20758SOL     OW74335   7.195   9.192   9.393
20758SOL    HW174336   7.285   9.236   9.395
20758SOL    HW274337   7.194   9.123   9.321
20759SOL     OW74338   6.377   8.205   9.616
20759SOL    HW174339   6.288   8.233   9.581
20759SOL    HW274340   6.418   8.139   9.552
20760SOL     OW74341   5.896   9.121   9.426
20760SOL    HW174342   5.988   9.151   9.401
20760SOL    HW274343   5.871   9.160   9.515
20761SOL     OW74344   6.328   7.443   9.625
20761SOL    HW174345   6.289   7.432   9.534
20761SOL    HW274346   6.284   7.519   9.672
20762SOL     OW74347   5.573   8.579   9.719
20762SOL    HW174348   5.651   8.637   9.743
20762SOL    HW274349   5.592   8.530   9.634
20763SOL     OW74350   6.939   7.459   9.390
20763SOL    HW174351   7.019   7.399   9.387
20763SOL    HW274352   6.865   7.412   9.438
20764SOL     OW74353   6.254   7.690   9.956
20764SOL    HW174354   6.243   7.632  10.037
20764SOL    HW274355   6.339   7.742   9.964
20765SOL     OW74356   7.127   7.447   9.664
20765SOL    HW174357   7.134   7.401   9.576
20765SOL    HW274358   7.031   7.457   9.689
20766SOL     OW74359   6.838   8.220   9.652
20766SOL    HW174360   6.784   8.218   9.736
20766SOL    HW274361   6.915   8.283   9.663
20767SOL     OW74362   7.135   8.316   9.872
20767SOL    HW174363   7.149   8.279   9.779
20767SOL    HW274364   7.046   8.286   9.906
20768SOL     OW74365   7.145   7.673   9.446
20768SOL    HW174366   7.150   7.715   9.537
20768SOL    HW274367   7.078   7.598   9.448
20769SOL     OW74368   5.868   7.944   9.497
20769SOL    HW174369   5.940   7.973   9.434
20769SOL    HW274370   5.824   8.024   9.537
20770SOL     OW74371   5.983   9.207   9.963
20770SOL    HW174372   5.907   9.173   9.908
20770SOL    HW274373   6.069   9.170   9.928
20771SOL     OW74374   6.282   8.640   9.744
20771SOL    HW174375   6.325   8.571   9.686
20771SOL    HW274376   6.246   8.597   9.827
20772SOL     OW74377   5.760   7.671   9.461
20772SOL    HW174378   5.804   7.640   9.378
20772SOL    HW274379   5.761   7.771   9.465
20773SOL     OW74380   5.613   7.923  10.072
20773SOL    HW174381   5.577   8.016  10.064
20773SOL    HW274382   5.696   7.924  10.128
20774SOL     OW74383   6.048   8.510   9.458
20774SOL    HW174384   6.148   8.510   9.469
20774SOL    HW274385   6.017   8.603   9.437
20775SOL     OW74386   6.674   8.102   9.274
20775SOL    HW174387   6.605   8.159   9.230
20775SOL    HW274388   6.755   8.096   9.215
20776SOL     OW74389   6.409   8.021   9.417
20776SOL    HW174390   6.499   8.022   9.372
20776SOL    HW274391   6.386   7.927   9.442
20777SOL     OW74392   6.860   7.538   9.711
20777SOL    HW174393   6.770   7.522   9.752
20777SOL    HW274394   6.868   7.634   9.685
20778SOL     OW74395   7.181   8.440   9.472
20778SOL    HW174396   7.252   8.510   9.474
20778SOL    HW274397   7.168   8.410   9.377
20779SOL     OW74398   6.627   7.613   9.867
20779SOL    HW174399   6.686   7.673   9.922
20779SOL    HW274400   6.554   7.577   9.924
20780SOL     OW74401   5.809   7.402   9.658
20780SOL    HW174402   5.847   7.490   9.685
20780SOL    HW274403   5.732   7.378   9.718
20781SOL     OW74404   5.631   8.489   9.478
20781SOL    HW174405   5.621   8.392   9.457
20781SOL    HW274406   5.684   8.534   9.406
20782SOL     OW74407   7.328   7.601  10.079
20782SOL    HW174408   7.283   7.583  10.166
20782SOL    HW274409   7.426   7.618  10.095
20783SOL     OW74410   6.714   8.000   9.540
20783SOL    HW174411   6.766   8.072   9.586
20783SOL    HW274412   6.727   8.007   9.442
20784SOL     OW74413   6.334   8.883   9.265
20784SOL    HW174414   6.309   8.960   9.324
20784SOL    HW274415   6.398   8.823   9.313
20785SOL     OW74416   6.295   8.501  10.016
20785SOL    HW174417   6.384   8.547  10.016
20785SOL    HW274418   6.288   8.441  10.095
20786SOL     OW74419   6.473   8.848   9.685
20786SOL    HW174420   6.523   8.836   9.600
20786SOL    HW274421   6.419   8.765   9.704
20787SOL     OW74422   6.064   8.256   9.584
20787SOL    HW174423   6.014   8.321   9.528
20787SOL    HW274424   6.006   8.177   9.603
20788SOL     OW74425   5.985   8.895   9.908
20788SOL    HW174426   5.983   8.796   9.921
20788SOL    HW274427   5.894   8.928   9.885
20789SOL     OW74428   6.592   8.570   9.641
20789SOL    HW174429   6.672   8.606   9.689
20789SOL    HW274430   6.550   8.497   9.697
20790SOL     OW74431   7.183   7.837  10.005
20790SOL    HW174432   7.202   7.923  10.052
20790SOL    HW274433   7.251   7.768  10.033
20791SOL     OW74434   6.326   8.509   9.491
20791SOL    HW174435   6.398   8.568   9.456
20791SOL    HW274436   6.366   8.425   9.527
20792SOL     OW74437   6.397   7.485   9.343
20792SOL    HW174438   6.472   7.419   9.355
20792SOL    HW274439   6.428   7.576   9.371
20793SOL     OW74440   6.076   7.914   9.955
20793SOL    HW174441   6.114   7.825   9.981
20793SOL    HW274442   6.143   7.964   9.900
20794SOL     OW74443   5.769   8.624   9.270
20794SOL    HW174444   5.761   8.636   9.171
20794SOL    HW274445   5.828   8.695   9.308
20795SOL     OW74446   6.196   9.063   9.430
20795SOL    HW174447   6.171   9.158   9.414
20795SOL    HW274448   6.163   9.035   9.520
20796SOL     OW74449   5.591   8.317   9.816
20796SOL    HW174450   5.598   8.416   9.803
20796SOL    HW274451   5.500   8.294   9.850
20797SOL     OW74452   6.866   8.590   9.743
20797SOL    HW174453   6.965   8.594   9.759
20797SOL    HW274454   6.849   8.576   9.645
20798SOL     OW74455   6.219   7.756   9.691
20798SOL    HW174456   6.121   7.750   9.671
20798SOL    HW274457   6.238   7.713   9.779
20799SOL     OW74458   7.139   7.439   9.950
20799SOL    HW174459   7.134   7.480   9.859
20799SOL    HW274460   7.220   7.473   9.997
20800SOL     OW74461   6.904   7.847   9.932
20800SOL    HW174462   6.903   7.839   9.833
20800SOL    HW274463   6.993   7.819   9.967
20801SOL     OW74464   7.222   9.786   1.414
20801SOL    HW174465   7.124   9.778   1.436
20801SOL    HW274466   7.275   9.775   1.498
20802SOL     OW74467   5.889   9.423   0.019
20802SOL    HW174468   5.802   9.420  -0.030
20802SOL    HW274469   5.940   9.505  -0.009
20803SOL     OW74470   6.754   9.323   1.352
20803SOL    HW174471   6.678   9.278   1.399
20803SOL    HW274472   6.783   9.268   1.274
20804SOL     OW74473   6.117   9.310   0.145
20804SOL    HW174474   6.205   9.338   0.106
20804SOL    HW274475   6.045   9.373   0.115
20805SOL     OW74476   6.253   9.856   0.549
20805SOL    HW174477   6.292   9.926   0.490
20805SOL    HW274478   6.227   9.776   0.495
20806SOL     OW74479   6.873   9.764   1.758
20806SOL    HW174480   6.969   9.768   1.784
20806SOL    HW274481   6.829   9.688   1.805
20807SOL     OW74482   6.107   9.575   1.012
20807SOL    HW174483   6.183   9.640   1.008
20807SOL    HW274484   6.137   9.486   0.979
20808SOL     OW74485   7.194   9.521   1.120
20808SOL    HW174486   7.245   9.593   1.073
20808SOL    HW274487   7.099   9.548   1.129
20809SOL     OW74488   6.044   9.908   0.117
20809SOL    HW174489   6.004   9.987   0.070
20809SOL    HW274490   6.133   9.887   0.077
20810SOL     OW74491   6.559   9.864   1.569
20810SOL    HW174492   6.592   9.781   1.616
20810SOL    HW274493   6.632   9.932   1.568
20811SOL     OW74494   6.752   9.540   0.178
20811SOL    HW174495   6.846   9.510   0.196
20811SOL    HW274496   6.700   9.540   0.264
20812SOL     OW74497   5.904   9.745   1.273
20812SOL    HW174498   5.894   9.658   1.225
20812SOL    HW274499   5.840   9.812   1.236
20813SOL     OW74500   6.986  10.025   1.311
20813SOL    HW174501   6.990  10.119   1.276
20813SOL    HW274502   7.079   9.994   1.333
20814SOL     OW74503   5.939   9.517   0.432
20814SOL    HW174504   5.893   9.557   0.511
20814SOL    HW274505   5.887   9.536   0.350
20815SOL     OW74506   7.362   9.762   1.199
20815SOL    HW174507   7.419   9.844   1.201
20815SOL    HW274508   7.303   9.761   1.279
20816SOL     OW74509   6.569   9.614   1.812
20816SOL    HW174510   6.632   9.619   1.889
20816SOL    HW274511   6.477   9.592   1.845
20817SOL     OW74512   7.310   9.861   0.270
20817SOL    HW174513   7.331   9.780   0.216
20817SOL    HW274514   7.327   9.842   0.367
20818SOL     OW74515   6.285   9.266   1.710
20818SOL    HW174516   6.292   9.172   1.677
20818SOL    HW274517   6.342   9.276   1.792
20819SOL     OW74518   7.208   9.867   0.978
20819SOL    HW174519   7.193   9.958   1.015
20819SOL    HW274520   7.278   9.820   1.032
20820SOL     OW74521   6.908   9.239   0.854
20820SOL    HW174522   6.857   9.323   0.836
20820SOL    HW274523   6.994   9.241   0.803
20821SOL     OW74524   7.263   9.445   1.783
20821SOL    HW174525   7.240   9.466   1.878
20821SOL    HW274526   7.239   9.350   1.763
20822SOL     OW74527   5.887   9.437   0.848
20822SOL    HW174528   5.939   9.477   0.923
20822SOL    HW274529   5.940   9.364   0.805
20823SOL     OW74530   5.871   9.485   1.182
20823SOL    HW174531   5.836   9.392   1.182
20823SOL    HW274532   5.958   9.488   1.133
20824SOL     OW74533   6.543  10.361   1.319
20824SOL    HW174534   6.593  10.276   1.303
20824SOL    HW274535   6.497  10.388   1.234
20825SOL     OW74536   6.901   9.652   0.423
20825SOL    HW174537   6.838   9.710   0.371
20825SOL    HW274538   6.994   9.686   0.411
20826SOL     OW74539   5.798   9.853   1.523
20826SOL    HW174540   5.818   9.758   1.498
20826SOL    HW274541   5.761   9.856   1.616
20827SOL     OW74542   5.680   9.508   1.413
20827SOL    HW174543   5.752   9.518   1.344
20827SOL    HW274544   5.591   9.507   1.368
20828SOL     OW74545   6.578  10.129   1.178
20828SOL    HW174546   6.572  10.115   1.079
20828SOL    HW274547   6.497  10.090   1.222
20829SOL     OW74548   7.169   9.663   0.493
20829SOL    HW174549   7.265   9.634   0.490
20829SOL    HW274550   7.130   9.641   0.582
20830SOL     OW74551   6.403   9.604   0.215
20830SOL    HW174552   6.312   9.617   0.253
20830SOL    HW274553   6.463   9.564   0.285
20831SOL     OW74554   5.572   9.539   0.475
20831SOL    HW174555   5.632   9.490   0.413
20831SOL    HW274556   5.627   9.591   0.540
20832SOL     OW74557   6.359  10.004   1.324
20832SOL    HW174558   6.361  10.090   1.375
20832SOL    HW274559   6.416   9.936   1.371
20833SOL     OW74560   5.899   9.768   0.928
20833SOL    HW174561   5.955   9.761   0.845
20833SOL    HW274562   5.956   9.746   1.008
20834SOL     OW74563   6.328   9.288   0.398
20834SOL    HW174564   6.289   9.277   0.307
20834SOL    HW274565   6.284   9.364   0.445
20835SOL     OW74566   7.103   9.552   1.576
20835SOL    HW174567   7.042   9.630   1.573
20835SOL    HW274568   7.158   9.556   1.659
20836SOL     OW74569   6.819   9.498   0.867
20836SOL    HW174570   6.818   9.576   0.804
20836SOL    HW274571   6.862   9.525   0.953
20837SOL     OW74572   6.939   9.304   0.163
20837SOL    HW174573   7.019   9.244   0.160
20837SOL    HW274574   6.865   9.257   0.211
20838SOL     OW74575   7.152   9.276   1.597
20838SOL    HW174576   7.178   9.233   1.511
20838SOL    HW274577   7.102   9.360   1.579
20839SOL     OW74578   6.254   9.535   0.729
20839SOL    HW174579   6.243   9.477   0.810
20839SOL    HW274580   6.339   9.587   0.737
20840SOL     OW74581   6.834   9.886   1.121
20840SOL    HW174582   6.888   9.926   1.047
20840SOL    HW274583   6.872   9.915   1.209
20841SOL     OW74584   7.127   9.292   0.437
20841SOL    HW174585   7.134   9.246   0.349
20841SOL    HW274586   7.031   9.302   0.462
20842SOL     OW74587   6.726   9.830   0.839
20842SOL    HW174588   6.808   9.807   0.787
20842SOL    HW274589   6.721   9.771   0.920
20843SOL     OW74590   7.326   9.857   1.675
20843SOL    HW174591   7.315   9.943   1.624
20843SOL    HW274592   7.420   9.848   1.705
20844SOL     OW74593   6.897   9.630   1.094
20844SOL    HW174594   6.871   9.727   1.100
20844SOL    HW274595   6.897   9.590   1.186
20845SOL     OW74596   7.127   9.762   1.845
20845SOL    HW174597   7.207   9.787   1.789
20845SOL    HW274598   7.158   9.727   1.933
20846SOL     OW74599   7.145   9.518   0.219
20846SOL    HW174600   7.150   9.560   0.310
20846SOL    HW274601   7.078   9.443   0.221
20847SOL     OW74602   5.683   9.528   1.704
20847SOL    HW174603   5.701   9.517   1.606
20847SOL    HW274604   5.585   9.524   1.721
20848SOL     OW74605   5.731   9.598   0.672
20848SOL    HW174606   5.674   9.653   0.733
20848SOL    HW274607   5.801   9.550   0.725
20849SOL     OW74608   5.868   9.789   0.270
20849SOL    HW174609   5.940   9.818   0.207
20849SOL    HW274610   5.824   9.869   0.310
20850SOL     OW74611   7.254   9.451   1.373
20850SOL    HW174612   7.210   9.499   1.449
20850SOL    HW274613   7.232   9.497   1.287
20851SOL     OW74614   5.760   9.516   0.234
20851SOL    HW174615   5.804   9.485   0.151
20851SOL    HW274616   5.761   9.616   0.238
20852SOL     OW74617   5.613   9.768   0.845
20852SOL    HW174618   5.577   9.861   0.837
20852SOL    HW274619   5.696   9.769   0.901
20853SOL     OW74620   6.674   9.947   0.047
20853SOL    HW174621   6.605  10.004   0.003
20853SOL    HW274622   6.755   9.941  -0.012
20854SOL     OW74623   6.860   9.383   0.484
20854SOL    HW174624   6.770   9.367   0.525
20854SOL    HW274625   6.868   9.479   0.458
20855SOL     OW74626   6.974   9.783   1.500
20855SOL    HW174627   6.926   9.806   1.584
20855SOL    HW274628   6.908   9.753   1.431
20856SOL     OW74629   5.609   9.298   0.144
20856SOL    HW174630   5.672   9.221   0.152
20856SOL    HW274631   5.629   9.366   0.215
20857SOL     OW74632   6.163   9.886   1.167
20857SOL    HW174633   6.238   9.929   1.216
20857SOL    HW274634   6.096   9.851   1.233
20858SOL     OW74635   6.627   9.458   0.640
20858SOL    HW174636   6.686   9.518   0.695
20858SOL    HW274637   6.554   9.422   0.697
20859SOL     OW74638   6.155   9.335   0.911
20859SOL    HW174639   6.083   9.268   0.897
20859SOL    HW274640   6.237   9.289   0.946
20860SOL     OW74641   5.581  10.202   1.151
20860SOL    HW174642   5.670  10.180   1.191
20860SOL    HW274643   5.526  10.118   1.147
20861SOL     OW74644   5.809   9.247   0.431
20861SOL    HW174645   5.847   9.335   0.458
20861SOL    HW274646   5.732   9.223   0.491
20862SOL     OW74647   7.328   9.446   0.852
20862SOL    HW174648   7.283   9.428   0.939
20862SOL    HW274649   7.426   9.463   0.868
20863SOL     OW74650   5.832  10.102   1.380
20863SOL    HW174651   5.796  10.012   1.406
20863SOL    HW274652   5.793  10.172   1.440
20864SOL     OW74653   6.000   9.684   1.785
20864SOL    HW174654   6.036   9.631   1.708
20864SOL    HW274655   6.061   9.761   1.803
20865SOL     OW74656   6.064  10.101   0.357
20865SOL    HW174657   6.014  10.166   0.301
20865SOL    HW274658   6.006  10.022   0.376
20866SOL     OW74659   6.837   9.575   1.351
20866SOL    HW174660   6.908   9.547   1.415
20866SOL    HW274661   6.784   9.495   1.323
20867SOL     OW74662   5.538   9.274   0.552
20867SOL    HW174663   5.451   9.261   0.505
20867SOL    HW274664   5.546   9.369   0.582
20868SOL     OW74665   6.759   9.375   1.793
20868SOL    HW174666   6.818   9.391   1.873
20868SOL    HW274667   6.706   9.458   1.774
20869SOL     OW74668   6.581   9.794   1.109
20869SOL    HW174669   6.667   9.845   1.108
20869SOL    HW274670   6.587   9.720   1.176
20870SOL     OW74671   6.530   9.409   0.898
20870SOL    HW174672   6.626   9.410   0.926
20870SOL    HW274673   6.475   9.366   0.970
20871SOL     OW74674   7.183   9.682   0.778
20871SOL    HW174675   7.202   9.768   0.825
20871SOL    HW274676   7.251   9.613   0.806
20872SOL     OW74677   6.397   9.330   0.116
20872SOL    HW174678   6.472   9.264   0.128
20872SOL    HW274679   6.428   9.421   0.144
20873SOL     OW74680   6.076   9.759   0.728
20873SOL    HW174681   6.114   9.670   0.754
20873SOL    HW274682   6.143   9.809   0.673
20874SOL     OW74683   5.756   9.828   1.789
20874SOL    HW174684   5.773   9.729   1.794
20874SOL    HW274685   5.820   9.876   1.850
20875SOL     OW74686   6.325   9.742   1.008
20875SOL    HW174687   6.417   9.770   1.035
20875SOL    HW274688   6.257   9.793   1.062
20876SOL     OW74689   5.744   9.935   1.149
20876SOL    HW174690   5.782   9.994   1.220
20876SOL    HW274691   5.727   9.988   1.067
20877SOL     OW74692   6.219   9.601   0.464
20877SOL    HW174693   6.121   9.595   0.444
20877SOL    HW274694   6.238   9.558   0.552
20878SOL     OW74695   7.139   9.284   0.723
20878SOL    HW174696   7.134   9.325   0.632
20878SOL    HW274697   7.220   9.318   0.770
20879SOL     OW74698   6.904   9.692   0.705
20879SOL    HW174699   6.903   9.684   0.606
20879SOL    HW274700   6.993   9.664   0.740
20880SOL     OW74701   7.222   9.786   3.259
20880SOL    HW174702   7.124   9.778   3.281
20880SOL    HW274703   7.275   9.775   3.343
20881SOL     OW74704   5.889   9.423   1.864
20881SOL    HW174705   5.802   9.420   1.815
20881SOL    HW274706   5.940   9.505   1.836
20882SOL     OW74707   6.754   9.323   3.197
20882SOL    HW174708   6.678   9.278   3.244
20882SOL    HW274709   6.783   9.268   3.119
20883SOL     OW74710   6.117   9.310   1.990
20883SOL    HW174711   6.205   9.338   1.951
20883SOL    HW274712   6.045   9.373   1.960
20884SOL     OW74713   6.253   9.856   2.394
20884SOL    HW174714   6.292   9.926   2.335
20884SOL    HW274715   6.227   9.776   2.340
20885SOL     OW74716   6.873   9.764   3.603
20885SOL    HW174717   6.969   9.768   3.629
20885SOL    HW274718   6.829   9.688   3.650
20886SOL     OW74719   6.107   9.575   2.857
20886SOL    HW174720   6.183   9.640   2.853
20886SOL    HW274721   6.137   9.486   2.824
20887SOL     OW74722   7.194   9.521   2.965
20887SOL    HW174723   7.245   9.593   2.918
20887SOL    HW274724   7.099   9.548   2.974
20888SOL     OW74725   6.594   9.550   2.234
20888SOL    HW174726   6.619   9.644   2.255
20888SOL    HW274727   6.595   9.496   2.318
20889SOL     OW74728   6.044   9.908   1.962
20889SOL    HW174729   6.004   9.987   1.915
20889SOL    HW274730   6.133   9.887   1.922
20890SOL     OW74731   6.559   9.864   3.414
20890SOL    HW174732   6.592   9.781   3.461
20890SOL    HW274733   6.632   9.932   3.413
20891SOL     OW74734   6.752   9.540   2.023
20891SOL    HW174735   6.846   9.510   2.041
20891SOL    HW274736   6.700   9.540   2.109
20892SOL     OW74737   5.904   9.745   3.118
20892SOL    HW174738   5.894   9.658   3.070
20892SOL    HW274739   5.840   9.812   3.081
20893SOL     OW74740   6.986  10.025   3.156
20893SOL    HW174741   6.990  10.119   3.121
20893SOL    HW274742   7.079   9.994   3.178
20894SOL     OW74743   5.939   9.517   2.277
20894SOL    HW174744   5.893   9.557   2.356
20894SOL    HW274745   5.887   9.536   2.195
20895SOL     OW74746   7.362   9.762   3.044
20895SOL    HW174747   7.419   9.844   3.046
20895SOL    HW274748   7.303   9.761   3.124
20896SOL     OW74749   6.492   9.728   2.519
20896SOL    HW174750   6.568   9.756   2.578
20896SOL    HW274751   6.448   9.808   2.480
20897SOL     OW74752   6.569   9.614   3.657
20897SOL    HW174753   6.632   9.619   3.734
20897SOL    HW274754   6.477   9.592   3.690
20898SOL     OW74755   7.310   9.861   2.115
20898SOL    HW174756   7.331   9.780   2.061
20898SOL    HW274757   7.327   9.842   2.212
20899SOL     OW74758   6.285   9.266   3.555
20899SOL    HW174759   6.292   9.172   3.522
20899SOL    HW274760   6.342   9.276   3.637
20900SOL     OW74761   7.208   9.867   2.823
20900SOL    HW174762   7.193   9.958   2.860
20900SOL    HW274763   7.278   9.820   2.877
20901SOL     OW74764   6.908   9.239   2.699
20901SOL    HW174765   6.857   9.323   2.681
20901SOL    HW274766   6.994   9.241   2.648
20902SOL     OW74767   7.263   9.445   3.628
20902SOL    HW174768   7.240   9.466   3.723
20902SOL    HW274769   7.239   9.350   3.608
20903SOL     OW74770   5.887   9.437   2.693
20903SOL    HW174771   5.939   9.477   2.768
20903SOL    HW274772   5.940   9.364   2.650
20904SOL     OW74773   5.871   9.485   3.027
20904SOL    HW174774   5.836   9.392   3.027
20904SOL    HW274775   5.958   9.488   2.978
20905SOL     OW74776   6.543  10.361   3.164
20905SOL    HW174777   6.593  10.276   3.148
20905SOL    HW274778   6.497  10.388   3.079
20906SOL     OW74779   6.901   9.652   2.268
20906SOL    HW174780   6.838   9.710   2.216
20906SOL    HW274781   6.994   9.686   2.256
20907SOL     OW74782   5.798   9.853   3.368
20907SOL    HW174783   5.818   9.758   3.343
20907SOL    HW274784   5.761   9.856   3.461
20908SOL     OW74785   5.680   9.508   3.258
20908SOL    HW174786   5.752   9.518   3.189
20908SOL    HW274787   5.591   9.507   3.213
20909SOL     OW74788   6.578  10.129   3.023
20909SOL    HW174789   6.572  10.115   2.924
20909SOL    HW274790   6.497  10.090   3.067
20910SOL     OW74791   7.169   9.663   2.338
20910SOL    HW174792   7.265   9.634   2.335
20910SOL    HW274793   7.130   9.641   2.427
20911SOL     OW74794   6.403   9.604   2.060
20911SOL    HW174795   6.312   9.617   2.098
20911SOL    HW274796   6.463   9.564   2.130
20912SOL     OW74797   6.461  10.234   2.417
20912SOL    HW174798   6.448  10.145   2.374
20912SOL    HW274799   6.392  10.248   2.488
20913SOL     OW74800   5.572   9.539   2.320
20913SOL    HW174801   5.632   9.490   2.258
20913SOL    HW274802   5.627   9.591   2.385
20914SOL     OW74803   6.359  10.004   3.169
20914SOL    HW174804   6.361  10.090   3.220
20914SOL    HW274805   6.416   9.936   3.216
20915SOL     OW74806   5.899   9.768   2.773
20915SOL    HW174807   5.955   9.761   2.690
20915SOL    HW274808   5.956   9.746   2.853
20916SOL     OW74809   6.328   9.288   2.243
20916SOL    HW174810   6.289   9.277   2.152
20916SOL    HW274811   6.284   9.364   2.290
20917SOL     OW74812   7.103   9.552   3.421
20917SOL    HW174813   7.042   9.630   3.418
20917SOL    HW274814   7.158   9.556   3.504
20918SOL     OW74815   6.819   9.498   2.712
20918SOL    HW174816   6.818   9.576   2.649
20918SOL    HW274817   6.862   9.525   2.798
20919SOL     OW74818   6.939   9.304   2.008
20919SOL    HW174819   7.019   9.244   2.005
20919SOL    HW274820   6.865   9.257   2.056
20920SOL     OW74821   7.152   9.276   3.442
20920SOL    HW174822   7.178   9.233   3.356
20920SOL    HW274823   7.102   9.360   3.424
20921SOL     OW74824   6.254   9.535   2.574
20921SOL    HW174825   6.243   9.477   2.655
20921SOL    HW274826   6.339   9.587   2.582
20922SOL     OW74827   6.834   9.886   2.966
20922SOL    HW174828   6.888   9.926   2.892
20922SOL    HW274829   6.872   9.915   3.054
20923SOL     OW74830   7.127   9.292   2.282
20923SOL    HW174831   7.134   9.246   2.194
20923SOL    HW274832   7.031   9.302   2.307
20924SOL     OW74833   6.726   9.830   2.684
20924SOL    HW174834   6.808   9.807   2.632
20924SOL    HW274835   6.721   9.771   2.765
20925SOL     OW74836   7.326   9.857   3.520
20925SOL    HW174837   7.315   9.943   3.469
20925SOL    HW274838   7.420   9.848   3.550
20926SOL     OW74839   6.897   9.630   2.939
20926SOL    HW174840   6.871   9.727   2.945
20926SOL    HW274841   6.897   9.590   3.031
20927SOL     OW74842   7.127   9.762   3.690
20927SOL    HW174843   7.207   9.787   3.634
20927SOL    HW274844   7.158   9.727   3.778
20928SOL     OW74845   7.145   9.518   2.064
20928SOL    HW174846   7.150   9.560   2.155
20928SOL    HW274847   7.078   9.443   2.066
20929SOL     OW74848   5.683   9.528   3.549
20929SOL    HW174849   5.701   9.517   3.451
20929SOL    HW274850   5.585   9.524   3.566
20930SOL     OW74851   5.731   9.598   2.517
20930SOL    HW174852   5.674   9.653   2.578
20930SOL    HW274853   5.801   9.550   2.570
20931SOL     OW74854   5.868   9.789   2.115
20931SOL    HW174855   5.940   9.818   2.052
20931SOL    HW274856   5.824   9.869   2.155
20932SOL     OW74857   7.254   9.451   3.218
20932SOL    HW174858   7.210   9.499   3.294
20932SOL    HW274859   7.232   9.497   3.132
20933SOL     OW74860   5.760   9.516   2.079
20933SOL    HW174861   5.804   9.485   1.996
20933SOL    HW274862   5.761   9.616   2.083
20934SOL     OW74863   5.613   9.768   2.690
20934SOL    HW174864   5.577   9.861   2.682
20934SOL    HW274865   5.696   9.769   2.746
20935SOL     OW74866   6.674   9.947   1.892
20935SOL    HW174867   6.605  10.004   1.848
20935SOL    HW274868   6.755   9.941   1.833
20936SOL     OW74869   6.409   9.866   2.035
20936SOL    HW174870   6.499   9.867   1.990
20936SOL    HW274871   6.386   9.772   2.060
20937SOL     OW74872   6.860   9.383   2.329
20937SOL    HW174873   6.770   9.367   2.370
20937SOL    HW274874   6.868   9.479   2.303
20938SOL     OW74875   6.974   9.783   3.345
20938SOL    HW174876   6.926   9.806   3.429
20938SOL    HW274877   6.908   9.753   3.276
20939SOL     OW74878   5.609   9.298   1.989
20939SOL    HW174879   5.672   9.221   1.997
20939SOL    HW274880   5.629   9.366   2.060
20940SOL     OW74881   6.163   9.886   3.012
20940SOL    HW174882   6.238   9.929   3.061
20940SOL    HW274883   6.096   9.851   3.078
20941SOL     OW74884   6.627   9.458   2.485
20941SOL    HW174885   6.686   9.518   2.540
20941SOL    HW274886   6.554   9.422   2.542
20942SOL     OW74887   6.155   9.335   2.756
20942SOL    HW174888   6.083   9.268   2.742
20942SOL    HW274889   6.237   9.289   2.791
20943SOL     OW74890   5.581  10.202   2.996
20943SOL    HW174891   5.670  10.180   3.036
20943SOL    HW274892   5.526  10.118   2.992
20944SOL     OW74893   5.809   9.247   2.276
20944SOL    HW174894   5.847   9.335   2.303
20944SOL    HW274895   5.732   9.223   2.336
20945SOL     OW74896   7.328   9.446   2.697
20945SOL    HW174897   7.283   9.428   2.784
20945SOL    HW274898   7.426   9.463   2.713
20946SOL     OW74899   6.714   9.845   2.158
20946SOL    HW174900   6.766   9.917   2.204
20946SOL    HW274901   6.727   9.852   2.060
20947SOL     OW74902   5.832  10.102   3.225
20947SOL    HW174903   5.796  10.012   3.251
20947SOL    HW274904   5.793  10.172   3.285
20948SOL     OW74905   6.000   9.684   3.630
20948SOL    HW174906   6.036   9.631   3.553
20948SOL    HW274907   6.061   9.761   3.648
20949SOL     OW74908   6.064  10.101   2.202
20949SOL    HW174909   6.014  10.166   2.146
20949SOL    HW274910   6.006  10.022   2.221
20950SOL     OW74911   6.837   9.575   3.196
20950SOL    HW174912   6.908   9.547   3.260
20950SOL    HW274913   6.784   9.495   3.168
20951SOL     OW74914   5.538   9.274   2.397
20951SOL    HW174915   5.451   9.261   2.350
20951SOL    HW274916   5.546   9.369   2.427
20952SOL     OW74917   6.759   9.375   3.638
20952SOL    HW174918   6.818   9.391   3.718
20952SOL    HW274919   6.706   9.458   3.619
20953SOL     OW74920   6.581   9.794   2.954
20953SOL    HW174921   6.667   9.845   2.953
20953SOL    HW274922   6.587   9.720   3.021
20954SOL     OW74923   6.530   9.409   2.743
20954SOL    HW174924   6.626   9.410   2.771
20954SOL    HW274925   6.475   9.366   2.815
20955SOL     OW74926   7.183   9.682   2.623
20955SOL    HW174927   7.202   9.768   2.670
20955SOL    HW274928   7.251   9.613   2.651
20956SOL     OW74929   6.397   9.330   1.961
20956SOL    HW174930   6.472   9.264   1.973
20956SOL    HW274931   6.428   9.421   1.989
20957SOL     OW74932   6.076   9.759   2.573
20957SOL    HW174933   6.114   9.670   2.599
20957SOL    HW274934   6.143   9.809   2.518
20958SOL     OW74935   5.756   9.828   3.634
20958SOL    HW174936   5.773   9.729   3.639
20958SOL    HW274937   5.820   9.876   3.695
20959SOL     OW74938   6.325   9.742   2.853
20959SOL    HW174939   6.417   9.770   2.880
20959SOL    HW274940   6.257   9.793   2.907
20960SOL     OW74941   5.744   9.935   2.994
20960SOL    HW174942   5.782   9.994   3.065
20960SOL    HW274943   5.727   9.988   2.912
20961SOL     OW74944   6.219   9.601   2.309
20961SOL    HW174945   6.121   9.595   2.289
20961SOL    HW274946   6.238   9.558   2.397
20962SOL     OW74947   7.139   9.284   2.568
20962SOL    HW174948   7.134   9.325   2.477
20962SOL    HW274949   7.220   9.318   2.615
20963SOL     OW74950   6.904   9.692   2.550
20963SOL    HW174951   6.903   9.684   2.451
20963SOL    HW274952   6.993   9.664   2.585
20964SOL     OW74953   5.889   9.423   3.710
20964SOL    HW174954   5.802   9.420   3.661
20964SOL    HW274955   5.940   9.505   3.682
20965SOL     OW74956   6.754   9.323   5.043
20965SOL    HW174957   6.678   9.278   5.090
20965SOL    HW274958   6.783   9.268   4.965
20966SOL     OW74959   6.117   9.310   3.836
20966SOL    HW174960   6.205   9.338   3.797
20966SOL    HW274961   6.045   9.373   3.806
20967SOL     OW74962   6.253   9.856   4.240
20967SOL    HW174963   6.292   9.926   4.181
20967SOL    HW274964   6.227   9.776   4.186
20968SOL     OW74965   6.873   9.764   5.449
20968SOL    HW174966   6.969   9.768   5.475
20968SOL    HW274967   6.829   9.688   5.496
20969SOL     OW74968   6.107   9.575   4.703
20969SOL    HW174969   6.183   9.640   4.699
20969SOL    HW274970   6.137   9.486   4.670
20970SOL     OW74971   7.194   9.521   4.811
20970SOL    HW174972   7.245   9.593   4.764
20970SOL    HW274973   7.099   9.548   4.820
20971SOL     OW74974   6.594   9.550   4.080
20971SOL    HW174975   6.619   9.644   4.101
20971SOL    HW274976   6.595   9.496   4.164
20972SOL     OW74977   6.044   9.908   3.808
20972SOL    HW174978   6.004   9.987   3.761
20972SOL    HW274979   6.133   9.887   3.768
20973SOL     OW74980   6.559   9.864   5.260
20973SOL    HW174981   6.592   9.781   5.307
20973SOL    HW274982   6.632   9.932   5.259
20974SOL     OW74983   6.752   9.540   3.869
20974SOL    HW174984   6.846   9.510   3.887
20974SOL    HW274985   6.700   9.540   3.955
20975SOL     OW74986   5.904   9.745   4.964
20975SOL    HW174987   5.894   9.658   4.916
20975SOL    HW274988   5.840   9.812   4.927
20976SOL     OW74989   6.986  10.025   5.002
20976SOL    HW174990   6.990  10.119   4.967
20976SOL    HW274991   7.079   9.994   5.024
20977SOL     OW74992   5.939   9.517   4.123
20977SOL    HW174993   5.893   9.557   4.202
20977SOL    HW274994   5.887   9.536   4.041
20978SOL     OW74995   7.362   9.762   4.890
20978SOL    HW174996   7.419   9.844   4.892
20978SOL    HW274997   7.303   9.761   4.970
20979SOL     OW74998   6.492   9.728   4.365
20979SOL    HW174999   6.568   9.756   4.424
20979SOL    HW275000   6.448   9.808   4.326
20980SOL     OW75001   7.310   9.861   3.961
20980SOL    HW175002   7.331   9.780   3.907
20980SOL    HW275003   7.327   9.842   4.058
20981SOL     OW75004   6.285   9.266   5.401
20981SOL    HW175005   6.292   9.172   5.368
20981SOL    HW275006   6.342   9.276   5.483
20982SOL     OW75007   7.208   9.867   4.669
20982SOL    HW175008   7.193   9.958   4.706
20982SOL    HW275009   7.278   9.820   4.723
20983SOL     OW75010   6.908   9.239   4.545
20983SOL    HW175011   6.857   9.323   4.527
20983SOL    HW275012   6.994   9.241   4.494
20984SOL     OW75013   5.887   9.437   4.539
20984SOL    HW175014   5.939   9.477   4.614
20984SOL    HW275015   5.940   9.364   4.496
20985SOL     OW75016   5.871   9.485   4.873
20985SOL    HW175017   5.836   9.392   4.873
20985SOL    HW275018   5.958   9.488   4.824
20986SOL     OW75019   6.543  10.361   5.010
20986SOL    HW175020   6.593  10.276   4.994
20986SOL    HW275021   6.497  10.388   4.925
20987SOL     OW75022   6.901   9.652   4.114
20987SOL    HW175023   6.838   9.710   4.062
20987SOL    HW275024   6.994   9.686   4.102
20988SOL     OW75025   5.798   9.853   5.214
20988SOL    HW175026   5.818   9.758   5.189
20988SOL    HW275027   5.761   9.856   5.307
20989SOL     OW75028   5.680   9.508   5.104
20989SOL    HW175029   5.752   9.518   5.035
20989SOL    HW275030   5.591   9.507   5.059
20990SOL     OW75031   6.578  10.129   4.869
20990SOL    HW175032   6.572  10.115   4.770
20990SOL    HW275033   6.497  10.090   4.913
20991SOL     OW75034   7.169   9.663   4.184
20991SOL    HW175035   7.265   9.634   4.181
20991SOL    HW275036   7.130   9.641   4.273
20992SOL     OW75037   6.403   9.604   3.906
20992SOL    HW175038   6.312   9.617   3.944
20992SOL    HW275039   6.463   9.564   3.976
20993SOL     OW75040   6.461  10.234   4.263
20993SOL    HW175041   6.448  10.145   4.220
20993SOL    HW275042   6.392  10.248   4.334
20994SOL     OW75043   5.572   9.539   4.166
20994SOL    HW175044   5.632   9.490   4.104
20994SOL    HW275045   5.627   9.591   4.231
20995SOL     OW75046   6.359  10.004   5.015
20995SOL    HW175047   6.361  10.090   5.066
20995SOL    HW275048   6.416   9.936   5.062
20996SOL     OW75049   5.899   9.768   4.619
20996SOL    HW175050   5.955   9.761   4.536
20996SOL    HW275051   5.956   9.746   4.699
20997SOL     OW75052   6.328   9.288   4.089
20997SOL    HW175053   6.289   9.277   3.998
20997SOL    HW275054   6.284   9.364   4.136
20998SOL     OW75055   6.819   9.498   4.558
20998SOL    HW175056   6.818   9.576   4.495
20998SOL    HW275057   6.862   9.525   4.644
20999SOL     OW75058   6.939   9.304   3.854
20999SOL    HW175059   7.019   9.244   3.851
20999SOL    HW275060   6.865   9.257   3.902
21000SOL     OW75061   7.152   9.276   5.288
21000SOL    HW175062   7.178   9.233   5.202
21000SOL    HW275063   7.102   9.360   5.270
21001SOL     OW75064   6.254   9.535   4.420
21001SOL    HW175065   6.243   9.477   4.501
21001SOL    HW275066   6.339   9.587   4.428
21002SOL     OW75067   6.834   9.886   4.812
21002SOL    HW175068   6.888   9.926   4.738
21002SOL    HW275069   6.872   9.915   4.900
21003SOL     OW75070   7.127   9.292   4.128
21003SOL    HW175071   7.134   9.246   4.040
21003SOL    HW275072   7.031   9.302   4.153
21004SOL     OW75073   6.726   9.830   4.530
21004SOL    HW175074   6.808   9.807   4.478
21004SOL    HW275075   6.721   9.771   4.611
21005SOL     OW75076   6.897   9.630   4.785
21005SOL    HW175077   6.871   9.727   4.791
21005SOL    HW275078   6.897   9.590   4.877
21006SOL     OW75079   7.145   9.518   3.910
21006SOL    HW175080   7.150   9.560   4.001
21006SOL    HW275081   7.078   9.443   3.912
21007SOL     OW75082   5.683   9.528   5.395
21007SOL    HW175083   5.701   9.517   5.297
21007SOL    HW275084   5.585   9.524   5.412
21008SOL     OW75085   5.731   9.598   4.363
21008SOL    HW175086   5.674   9.653   4.424
21008SOL    HW275087   5.801   9.550   4.416
21009SOL     OW75088   5.868   9.789   3.961
21009SOL    HW175089   5.940   9.818   3.898
21009SOL    HW275090   5.824   9.869   4.001
21010SOL     OW75091   7.254   9.451   5.064
21010SOL    HW175092   7.210   9.499   5.140
21010SOL    HW275093   7.232   9.497   4.978
21011SOL     OW75094   5.760   9.516   3.925
21011SOL    HW175095   5.804   9.485   3.842
21011SOL    HW275096   5.761   9.616   3.929
21012SOL     OW75097   5.613   9.768   4.536
21012SOL    HW175098   5.577   9.861   4.528
21012SOL    HW275099   5.696   9.769   4.592
21013SOL     OW75100   6.674   9.947   3.738
21013SOL    HW175101   6.605  10.004   3.694
21013SOL    HW275102   6.755   9.941   3.679
21014SOL     OW75103   6.409   9.866   3.881
21014SOL    HW175104   6.499   9.867   3.836
21014SOL    HW275105   6.386   9.772   3.906
21015SOL     OW75106   6.860   9.383   4.175
21015SOL    HW175107   6.770   9.367   4.216
21015SOL    HW275108   6.868   9.479   4.149
21016SOL     OW75109   5.609   9.298   3.835
21016SOL    HW175110   5.672   9.221   3.843
21016SOL    HW275111   5.629   9.366   3.906
21017SOL     OW75112   6.163   9.886   4.858
21017SOL    HW175113   6.238   9.929   4.907
21017SOL    HW275114   6.096   9.851   4.924
21018SOL     OW75115   6.627   9.458   4.331
21018SOL    HW175116   6.686   9.518   4.386
21018SOL    HW275117   6.554   9.422   4.388
21019SOL     OW75118   6.155   9.335   4.602
21019SOL    HW175119   6.083   9.268   4.588
21019SOL    HW275120   6.237   9.289   4.637
21020SOL     OW75121   5.581  10.202   4.842
21020SOL    HW175122   5.670  10.180   4.882
21020SOL    HW275123   5.526  10.118   4.838
21021SOL     OW75124   5.809   9.247   4.122
21021SOL    HW175125   5.847   9.335   4.149
21021SOL    HW275126   5.732   9.223   4.182
21022SOL     OW75127   7.328   9.446   4.543
21022SOL    HW175128   7.283   9.428   4.630
21022SOL    HW275129   7.426   9.463   4.559
21023SOL     OW75130   6.714   9.845   4.004
21023SOL    HW175131   6.766   9.917   4.050
21023SOL    HW275132   6.727   9.852   3.906
21024SOL     OW75133   5.832  10.102   5.071
21024SOL    HW175134   5.796  10.012   5.097
21024SOL    HW275135   5.793  10.172   5.131
21025SOL     OW75136   6.000   9.684   5.476
21025SOL    HW175137   6.036   9.631   5.399
21025SOL    HW275138   6.061   9.761   5.494
21026SOL     OW75139   6.064  10.101   4.048
21026SOL    HW175140   6.014  10.166   3.992
21026SOL    HW275141   6.006  10.022   4.067
21027SOL     OW75142   6.837   9.575   5.042
21027SOL    HW175143   6.908   9.547   5.106
21027SOL    HW275144   6.784   9.495   5.014
21028SOL     OW75145   5.538   9.274   4.243
21028SOL    HW175146   5.451   9.261   4.196
21028SOL    HW275147   5.546   9.369   4.273
21029SOL     OW75148   6.759   9.375   5.484
21029SOL    HW175149   6.818   9.391   5.564
21029SOL    HW275150   6.706   9.458   5.465
21030SOL     OW75151   6.581   9.794   4.800
21030SOL    HW175152   6.667   9.845   4.799
21030SOL    HW275153   6.587   9.720   4.867
21031SOL     OW75154   6.530   9.409   4.589
21031SOL    HW175155   6.626   9.410   4.617
21031SOL    HW275156   6.475   9.366   4.661
21032SOL     OW75157   7.183   9.682   4.469
21032SOL    HW175158   7.202   9.768   4.516
21032SOL    HW275159   7.251   9.613   4.497
21033SOL     OW75160   6.397   9.330   3.807
21033SOL    HW175161   6.472   9.264   3.819
21033SOL    HW275162   6.428   9.421   3.835
21034SOL     OW75163   6.076   9.759   4.419
21034SOL    HW175164   6.114   9.670   4.445
21034SOL    HW275165   6.143   9.809   4.364
21035SOL     OW75166   5.756   9.828   5.480
21035SOL    HW175167   5.773   9.729   5.485
21035SOL    HW275168   5.820   9.876   5.541
21036SOL     OW75169   6.325   9.742   4.699
21036SOL    HW175170   6.417   9.770   4.726
21036SOL    HW275171   6.257   9.793   4.753
21037SOL     OW75172   5.744   9.935   4.840
21037SOL    HW175173   5.782   9.994   4.911
21037SOL    HW275174   5.727   9.988   4.758
21038SOL     OW75175   6.219   9.601   4.155
21038SOL    HW175176   6.121   9.595   4.135
21038SOL    HW275177   6.238   9.558   4.243
21039SOL     OW75178   7.139   9.284   4.414
21039SOL    HW175179   7.134   9.325   4.323
21039SOL    HW275180   7.220   9.318   4.461
21040SOL     OW75181   6.904   9.692   4.396
21040SOL    HW175182   6.903   9.684   4.297
21040SOL    HW275183   6.993   9.664   4.431
21041SOL     OW75184   7.222   9.786   6.950
21041SOL    HW175185   7.124   9.778   6.972
21041SOL    HW275186   7.275   9.775   7.034
21042SOL     OW75187   5.889   9.423   5.555
21042SOL    HW175188   5.802   9.420   5.506
21042SOL    HW275189   5.940   9.505   5.527
21043SOL     OW75190   6.754   9.323   6.888
21043SOL    HW175191   6.678   9.278   6.935
21043SOL    HW275192   6.783   9.268   6.810
21044SOL     OW75193   6.117   9.310   5.681
21044SOL    HW175194   6.205   9.338   5.642
21044SOL    HW275195   6.045   9.373   5.651
21045SOL     OW75196   6.253   9.856   6.085
21045SOL    HW175197   6.292   9.926   6.026
21045SOL    HW275198   6.227   9.776   6.031
21046SOL     OW75199   6.873   9.764   7.294
21046SOL    HW175200   6.969   9.768   7.320
21046SOL    HW275201   6.829   9.688   7.341
21047SOL     OW75202   6.107   9.575   6.548
21047SOL    HW175203   6.183   9.640   6.544
21047SOL    HW275204   6.137   9.486   6.515
21048SOL     OW75205   7.194   9.521   6.656
21048SOL    HW175206   7.245   9.593   6.609
21048SOL    HW275207   7.099   9.548   6.665
21049SOL     OW75208   6.594   9.550   5.925
21049SOL    HW175209   6.619   9.644   5.946
21049SOL    HW275210   6.595   9.496   6.009
21050SOL     OW75211   6.044   9.908   5.653
21050SOL    HW175212   6.004   9.987   5.606
21050SOL    HW275213   6.133   9.887   5.613
21051SOL     OW75214   6.559   9.864   7.105
21051SOL    HW175215   6.592   9.781   7.152
21051SOL    HW275216   6.632   9.932   7.104
21052SOL     OW75217   6.752   9.540   5.714
21052SOL    HW175218   6.846   9.510   5.732
21052SOL    HW275219   6.700   9.540   5.800
21053SOL     OW75220   5.904   9.745   6.809
21053SOL    HW175221   5.894   9.658   6.761
21053SOL    HW275222   5.840   9.812   6.772
21054SOL     OW75223   6.986  10.025   6.847
21054SOL    HW175224   6.990  10.119   6.812
21054SOL    HW275225   7.079   9.994   6.869
21055SOL     OW75226   5.939   9.517   5.968
21055SOL    HW175227   5.893   9.557   6.047
21055SOL    HW275228   5.887   9.536   5.886
21056SOL     OW75229   7.362   9.762   6.735
21056SOL    HW175230   7.419   9.844   6.737
21056SOL    HW275231   7.303   9.761   6.815
21057SOL     OW75232   6.492   9.728   6.210
21057SOL    HW175233   6.568   9.756   6.269
21057SOL    HW275234   6.448   9.808   6.171
21058SOL     OW75235   6.569   9.614   7.348
21058SOL    HW175236   6.632   9.619   7.425
21058SOL    HW275237   6.477   9.592   7.381
21059SOL     OW75238   7.310   9.861   5.806
21059SOL    HW175239   7.331   9.780   5.752
21059SOL    HW275240   7.327   9.842   5.903
21060SOL     OW75241   6.285   9.266   7.246
21060SOL    HW175242   6.292   9.172   7.213
21060SOL    HW275243   6.342   9.276   7.328
21061SOL     OW75244   7.208   9.867   6.514
21061SOL    HW175245   7.193   9.958   6.551
21061SOL    HW275246   7.278   9.820   6.568
21062SOL     OW75247   6.908   9.239   6.390
21062SOL    HW175248   6.857   9.323   6.372
21062SOL    HW275249   6.994   9.241   6.339
21063SOL     OW75250   7.263   9.445   7.319
21063SOL    HW175251   7.240   9.466   7.414
21063SOL    HW275252   7.239   9.350   7.299
21064SOL     OW75253   5.887   9.437   6.384
21064SOL    HW175254   5.939   9.477   6.459
21064SOL    HW275255   5.940   9.364   6.341
21065SOL     OW75256   5.871   9.485   6.718
21065SOL    HW175257   5.836   9.392   6.718
21065SOL    HW275258   5.958   9.488   6.669
21066SOL     OW75259   6.543  10.361   6.855
21066SOL    HW175260   6.593  10.276   6.839
21066SOL    HW275261   6.497  10.388   6.770
21067SOL     OW75262   6.901   9.652   5.959
21067SOL    HW175263   6.838   9.710   5.907
21067SOL    HW275264   6.994   9.686   5.947
21068SOL     OW75265   5.798   9.853   7.059
21068SOL    HW175266   5.818   9.758   7.034
21068SOL    HW275267   5.761   9.856   7.152
21069SOL     OW75268   5.680   9.508   6.949
21069SOL    HW175269   5.752   9.518   6.880
21069SOL    HW275270   5.591   9.507   6.904
21070SOL     OW75271   6.578  10.129   6.714
21070SOL    HW175272   6.572  10.115   6.615
21070SOL    HW275273   6.497  10.090   6.758
21071SOL     OW75274   7.169   9.663   6.029
21071SOL    HW175275   7.265   9.634   6.026
21071SOL    HW275276   7.130   9.641   6.118
21072SOL     OW75277   6.403   9.604   5.751
21072SOL    HW175278   6.312   9.617   5.789
21072SOL    HW275279   6.463   9.564   5.821
21073SOL     OW75280   6.461  10.234   6.108
21073SOL    HW175281   6.448  10.145   6.065
21073SOL    HW275282   6.392  10.248   6.179
21074SOL     OW75283   5.572   9.539   6.011
21074SOL    HW175284   5.632   9.490   5.949
21074SOL    HW275285   5.627   9.591   6.076
21075SOL     OW75286   6.359  10.004   6.860
21075SOL    HW175287   6.361  10.090   6.911
21075SOL    HW275288   6.416   9.936   6.907
21076SOL     OW75289   5.899   9.768   6.464
21076SOL    HW175290   5.955   9.761   6.381
21076SOL    HW275291   5.956   9.746   6.544
21077SOL     OW75292   6.328   9.288   5.934
21077SOL    HW175293   6.289   9.277   5.843
21077SOL    HW275294   6.284   9.364   5.981
21078SOL     OW75295   7.103   9.552   7.112
21078SOL    HW175296   7.042   9.630   7.109
21078SOL    HW275297   7.158   9.556   7.195
21079SOL     OW75298   6.819   9.498   6.403
21079SOL    HW175299   6.818   9.576   6.340
21079SOL    HW275300   6.862   9.525   6.489
21080SOL     OW75301   6.939   9.304   5.699
21080SOL    HW175302   7.019   9.244   5.696
21080SOL    HW275303   6.865   9.257   5.747
21081SOL     OW75304   7.152   9.276   7.133
21081SOL    HW175305   7.178   9.233   7.047
21081SOL    HW275306   7.102   9.360   7.115
21082SOL     OW75307   6.254   9.535   6.265
21082SOL    HW175308   6.243   9.477   6.346
21082SOL    HW275309   6.339   9.587   6.273
21083SOL     OW75310   6.834   9.886   6.657
21083SOL    HW175311   6.888   9.926   6.583
21083SOL    HW275312   6.872   9.915   6.745
21084SOL     OW75313   7.127   9.292   5.973
21084SOL    HW175314   7.134   9.246   5.885
21084SOL    HW275315   7.031   9.302   5.998
21085SOL     OW75316   6.726   9.830   6.375
21085SOL    HW175317   6.808   9.807   6.323
21085SOL    HW275318   6.721   9.771   6.456
21086SOL     OW75319   7.326   9.857   7.211
21086SOL    HW175320   7.315   9.943   7.160
21086SOL    HW275321   7.420   9.848   7.241
21087SOL     OW75322   6.897   9.630   6.630
21087SOL    HW175323   6.871   9.727   6.636
21087SOL    HW275324   6.897   9.590   6.722
21088SOL     OW75325   7.127   9.762   7.381
21088SOL    HW175326   7.207   9.787   7.325
21088SOL    HW275327   7.158   9.727   7.469
21089SOL     OW75328   7.145   9.518   5.755
21089SOL    HW175329   7.150   9.560   5.846
21089SOL    HW275330   7.078   9.443   5.757
21090SOL     OW75331   5.683   9.528   7.240
21090SOL    HW175332   5.701   9.517   7.142
21090SOL    HW275333   5.585   9.524   7.257
21091SOL     OW75334   5.731   9.598   6.208
21091SOL    HW175335   5.674   9.653   6.269
21091SOL    HW275336   5.801   9.550   6.261
21092SOL     OW75337   5.868   9.789   5.806
21092SOL    HW175338   5.940   9.818   5.743
21092SOL    HW275339   5.824   9.869   5.846
21093SOL     OW75340   7.254   9.451   6.909
21093SOL    HW175341   7.210   9.499   6.985
21093SOL    HW275342   7.232   9.497   6.823
21094SOL     OW75343   5.760   9.516   5.770
21094SOL    HW175344   5.804   9.485   5.687
21094SOL    HW275345   5.761   9.616   5.774
21095SOL     OW75346   5.613   9.768   6.381
21095SOL    HW175347   5.577   9.861   6.373
21095SOL    HW275348   5.696   9.769   6.437
21096SOL     OW75349   6.674   9.947   5.583
21096SOL    HW175350   6.605  10.004   5.539
21096SOL    HW275351   6.755   9.941   5.524
21097SOL     OW75352   6.409   9.866   5.726
21097SOL    HW175353   6.499   9.867   5.681
21097SOL    HW275354   6.386   9.772   5.751
21098SOL     OW75355   6.860   9.383   6.020
21098SOL    HW175356   6.770   9.367   6.061
21098SOL    HW275357   6.868   9.479   5.994
21099SOL     OW75358   6.974   9.783   7.036
21099SOL    HW175359   6.926   9.806   7.120
21099SOL    HW275360   6.908   9.753   6.967
21100SOL     OW75361   6.163   9.886   6.703
21100SOL    HW175362   6.238   9.929   6.752
21100SOL    HW275363   6.096   9.851   6.769
21101SOL     OW75364   6.627   9.458   6.176
21101SOL    HW175365   6.686   9.518   6.231
21101SOL    HW275366   6.554   9.422   6.233
21102SOL     OW75367   6.155   9.335   6.447
21102SOL    HW175368   6.083   9.268   6.433
21102SOL    HW275369   6.237   9.289   6.482
21103SOL     OW75370   5.581  10.202   6.687
21103SOL    HW175371   5.670  10.180   6.727
21103SOL    HW275372   5.526  10.118   6.683
21104SOL     OW75373   5.809   9.247   5.967
21104SOL    HW175374   5.847   9.335   5.994
21104SOL    HW275375   5.732   9.223   6.027
21105SOL     OW75376   7.328   9.446   6.388
21105SOL    HW175377   7.283   9.428   6.475
21105SOL    HW275378   7.426   9.463   6.404
21106SOL     OW75379   6.714   9.845   5.849
21106SOL    HW175380   6.766   9.917   5.895
21106SOL    HW275381   6.727   9.852   5.751
21107SOL     OW75382   5.832  10.102   6.916
21107SOL    HW175383   5.796  10.012   6.942
21107SOL    HW275384   5.793  10.172   6.976
21108SOL     OW75385   6.000   9.684   7.321
21108SOL    HW175386   6.036   9.631   7.244
21108SOL    HW275387   6.061   9.761   7.339
21109SOL     OW75388   6.064  10.101   5.893
21109SOL    HW175389   6.014  10.166   5.837
21109SOL    HW275390   6.006  10.022   5.912
21110SOL     OW75391   6.837   9.575   6.887
21110SOL    HW175392   6.908   9.547   6.951
21110SOL    HW275393   6.784   9.495   6.859
21111SOL     OW75394   5.538   9.274   6.088
21111SOL    HW175395   5.451   9.261   6.041
21111SOL    HW275396   5.546   9.369   6.118
21112SOL     OW75397   6.759   9.375   7.329
21112SOL    HW175398   6.818   9.391   7.409
21112SOL    HW275399   6.706   9.458   7.310
21113SOL     OW75400   6.581   9.794   6.645
21113SOL    HW175401   6.667   9.845   6.644
21113SOL    HW275402   6.587   9.720   6.712
21114SOL     OW75403   6.530   9.409   6.434
21114SOL    HW175404   6.626   9.410   6.462
21114SOL    HW275405   6.475   9.366   6.506
21115SOL     OW75406   7.183   9.682   6.314
21115SOL    HW175407   7.202   9.768   6.361
21115SOL    HW275408   7.251   9.613   6.342
21116SOL     OW75409   6.397   9.330   5.652
21116SOL    HW175410   6.472   9.264   5.664
21116SOL    HW275411   6.428   9.421   5.680
21117SOL     OW75412   6.076   9.759   6.264
21117SOL    HW175413   6.114   9.670   6.290
21117SOL    HW275414   6.143   9.809   6.209
21118SOL     OW75415   5.756   9.828   7.325
21118SOL    HW175416   5.773   9.729   7.330
21118SOL    HW275417   5.820   9.876   7.386
21119SOL     OW75418   6.325   9.742   6.544
21119SOL    HW175419   6.417   9.770   6.571
21119SOL    HW275420   6.257   9.793   6.598
21120SOL     OW75421   5.744   9.935   6.685
21120SOL    HW175422   5.782   9.994   6.756
21120SOL    HW275423   5.727   9.988   6.603
21121SOL     OW75424   6.219   9.601   6.000
21121SOL    HW175425   6.121   9.595   5.980
21121SOL    HW275426   6.238   9.558   6.088
21122SOL     OW75427   7.139   9.284   6.259
21122SOL    HW175428   7.134   9.325   6.168
21122SOL    HW275429   7.220   9.318   6.306
21123SOL     OW75430   6.904   9.692   6.241
21123SOL    HW175431   6.903   9.684   6.142
21123SOL    HW275432   6.993   9.664   6.276
21124SOL     OW75433   7.222   9.786   8.796
21124SOL    HW175434   7.124   9.778   8.818
21124SOL    HW275435   7.275   9.775   8.880
21125SOL     OW75436   5.889   9.423   7.401
21125SOL    HW175437   5.802   9.420   7.352
21125SOL    HW275438   5.940   9.505   7.373
21126SOL     OW75439   6.754   9.323   8.734
21126SOL    HW175440   6.678   9.278   8.781
21126SOL    HW275441   6.783   9.268   8.656
21127SOL     OW75442   6.117   9.310   7.527
21127SOL    HW175443   6.205   9.338   7.488
21127SOL    HW275444   6.045   9.373   7.497
21128SOL     OW75445   6.253   9.856   7.931
21128SOL    HW175446   6.292   9.926   7.872
21128SOL    HW275447   6.227   9.776   7.877
21129SOL     OW75448   6.107   9.575   8.394
21129SOL    HW175449   6.183   9.640   8.390
21129SOL    HW275450   6.137   9.486   8.361
21130SOL     OW75451   7.194   9.521   8.502
21130SOL    HW175452   7.245   9.593   8.455
21130SOL    HW275453   7.099   9.548   8.511
21131SOL     OW75454   6.594   9.550   7.771
21131SOL    HW175455   6.619   9.644   7.792
21131SOL    HW275456   6.595   9.496   7.855
21132SOL     OW75457   6.044   9.908   7.499
21132SOL    HW175458   6.004   9.987   7.452
21132SOL    HW275459   6.133   9.887   7.459
21133SOL     OW75460   6.559   9.864   8.951
21133SOL    HW175461   6.592   9.781   8.998
21133SOL    HW275462   6.632   9.932   8.950
21134SOL     OW75463   6.752   9.540   7.560
21134SOL    HW175464   6.846   9.510   7.578
21134SOL    HW275465   6.700   9.540   7.646
21135SOL     OW75466   5.904   9.745   8.655
21135SOL    HW175467   5.894   9.658   8.607
21135SOL    HW275468   5.840   9.812   8.618
21136SOL     OW75469   6.986  10.025   8.693
21136SOL    HW175470   6.990  10.119   8.658
21136SOL    HW275471   7.079   9.994   8.715
21137SOL     OW75472   5.939   9.517   7.814
21137SOL    HW175473   5.893   9.557   7.893
21137SOL    HW275474   5.887   9.536   7.732
21138SOL     OW75475   7.362   9.762   8.581
21138SOL    HW175476   7.419   9.844   8.583
21138SOL    HW275477   7.303   9.761   8.661
21139SOL     OW75478   6.492   9.728   8.056
21139SOL    HW175479   6.568   9.756   8.115
21139SOL    HW275480   6.448   9.808   8.017
21140SOL     OW75481   6.569   9.614   9.194
21140SOL    HW175482   6.632   9.619   9.271
21140SOL    HW275483   6.477   9.592   9.227
21141SOL     OW75484   7.310   9.861   7.652
21141SOL    HW175485   7.331   9.780   7.598
21141SOL    HW275486   7.327   9.842   7.749
21142SOL     OW75487   6.285   9.266   9.092
21142SOL    HW175488   6.292   9.172   9.059
21142SOL    HW275489   6.342   9.276   9.174
21143SOL     OW75490   7.208   9.867   8.360
21143SOL    HW175491   7.193   9.958   8.397
21143SOL    HW275492   7.278   9.820   8.414
21144SOL     OW75493   6.908   9.239   8.236
21144SOL    HW175494   6.857   9.323   8.218
21144SOL    HW275495   6.994   9.241   8.185
21145SOL     OW75496   5.887   9.437   8.230
21145SOL    HW175497   5.939   9.477   8.305
21145SOL    HW275498   5.940   9.364   8.187
21146SOL     OW75499   5.871   9.485   8.564
21146SOL    HW175500   5.836   9.392   8.564
21146SOL    HW275501   5.958   9.488   8.515
21147SOL     OW75502   6.543  10.361   8.701
21147SOL    HW175503   6.593  10.276   8.685
21147SOL    HW275504   6.497  10.388   8.616
21148SOL     OW75505   6.901   9.652   7.805
21148SOL    HW175506   6.838   9.710   7.753
21148SOL    HW275507   6.994   9.686   7.793
21149SOL     OW75508   5.798   9.853   8.905
21149SOL    HW175509   5.818   9.758   8.880
21149SOL    HW275510   5.761   9.856   8.998
21150SOL     OW75511   5.680   9.508   8.795
21150SOL    HW175512   5.752   9.518   8.726
21150SOL    HW275513   5.591   9.507   8.750
21151SOL     OW75514   6.578  10.129   8.560
21151SOL    HW175515   6.572  10.115   8.461
21151SOL    HW275516   6.497  10.090   8.604
21152SOL     OW75517   7.169   9.663   7.875
21152SOL    HW175518   7.265   9.634   7.872
21152SOL    HW275519   7.130   9.641   7.964
21153SOL     OW75520   6.403   9.604   7.597
21153SOL    HW175521   6.312   9.617   7.635
21153SOL    HW275522   6.463   9.564   7.667
21154SOL     OW75523   6.461  10.234   7.954
21154SOL    HW175524   6.448  10.145   7.911
21154SOL    HW275525   6.392  10.248   8.025
21155SOL     OW75526   5.572   9.539   7.857
21155SOL    HW175527   5.632   9.490   7.795
21155SOL    HW275528   5.627   9.591   7.922
21156SOL     OW75529   6.359  10.004   8.706
21156SOL    HW175530   6.361  10.090   8.757
21156SOL    HW275531   6.416   9.936   8.753
21157SOL     OW75532   5.899   9.768   8.310
21157SOL    HW175533   5.955   9.761   8.227
21157SOL    HW275534   5.956   9.746   8.390
21158SOL     OW75535   6.328   9.288   7.780
21158SOL    HW175536   6.289   9.277   7.689
21158SOL    HW275537   6.284   9.364   7.827
21159SOL     OW75538   6.819   9.498   8.249
21159SOL    HW175539   6.818   9.576   8.186
21159SOL    HW275540   6.862   9.525   8.335
21160SOL     OW75541   6.939   9.304   7.545
21160SOL    HW175542   7.019   9.244   7.542
21160SOL    HW275543   6.865   9.257   7.593
21161SOL     OW75544   7.152   9.276   8.979
21161SOL    HW175545   7.178   9.233   8.893
21161SOL    HW275546   7.102   9.360   8.961
21162SOL     OW75547   6.254   9.535   8.111
21162SOL    HW175548   6.243   9.477   8.192
21162SOL    HW275549   6.339   9.587   8.119
21163SOL     OW75550   6.834   9.886   8.503
21163SOL    HW175551   6.888   9.926   8.429
21163SOL    HW275552   6.872   9.915   8.591
21164SOL     OW75553   7.127   9.292   7.819
21164SOL    HW175554   7.134   9.246   7.731
21164SOL    HW275555   7.031   9.302   7.844
21165SOL     OW75556   6.726   9.830   8.221
21165SOL    HW175557   6.808   9.807   8.169
21165SOL    HW275558   6.721   9.771   8.302
21166SOL     OW75559   7.326   9.857   9.057
21166SOL    HW175560   7.315   9.943   9.006
21166SOL    HW275561   7.420   9.848   9.087
21167SOL     OW75562   6.897   9.630   8.476
21167SOL    HW175563   6.871   9.727   8.482
21167SOL    HW275564   6.897   9.590   8.568
21168SOL     OW75565   7.145   9.518   7.601
21168SOL    HW175566   7.150   9.560   7.692
21168SOL    HW275567   7.078   9.443   7.603
21169SOL     OW75568   5.683   9.528   9.086
21169SOL    HW175569   5.701   9.517   8.988
21169SOL    HW275570   5.585   9.524   9.103
21170SOL     OW75571   5.731   9.598   8.054
21170SOL    HW175572   5.674   9.653   8.115
21170SOL    HW275573   5.801   9.550   8.107
21171SOL     OW75574   5.868   9.789   7.652
21171SOL    HW175575   5.940   9.818   7.589
21171SOL    HW275576   5.824   9.869   7.692
21172SOL     OW75577   7.254   9.451   8.755
21172SOL    HW175578   7.210   9.499   8.831
21172SOL    HW275579   7.232   9.497   8.669
21173SOL     OW75580   5.760   9.516   7.616
21173SOL    HW175581   5.804   9.485   7.533
21173SOL    HW275582   5.761   9.616   7.620
21174SOL     OW75583   5.613   9.768   8.227
21174SOL    HW175584   5.577   9.861   8.219
21174SOL    HW275585   5.696   9.769   8.283
21175SOL     OW75586   6.674   9.947   7.429
21175SOL    HW175587   6.605  10.004   7.385
21175SOL    HW275588   6.755   9.941   7.370
21176SOL     OW75589   6.409   9.866   7.572
21176SOL    HW175590   6.499   9.867   7.527
21176SOL    HW275591   6.386   9.772   7.597
21177SOL     OW75592   6.860   9.383   7.866
21177SOL    HW175593   6.770   9.367   7.907
21177SOL    HW275594   6.868   9.479   7.840
21178SOL     OW75595   6.974   9.783   8.882
21178SOL    HW175596   6.926   9.806   8.966
21178SOL    HW275597   6.908   9.753   8.813
21179SOL     OW75598   5.609   9.298   7.526
21179SOL    HW175599   5.672   9.221   7.534
21179SOL    HW275600   5.629   9.366   7.597
21180SOL     OW75601   6.163   9.886   8.549
21180SOL    HW175602   6.238   9.929   8.598
21180SOL    HW275603   6.096   9.851   8.615
21181SOL     OW75604   6.627   9.458   8.022
21181SOL    HW175605   6.686   9.518   8.077
21181SOL    HW275606   6.554   9.422   8.079
21182SOL     OW75607   6.155   9.335   8.293
21182SOL    HW175608   6.083   9.268   8.279
21182SOL    HW275609   6.237   9.289   8.328
21183SOL     OW75610   5.581  10.202   8.533
21183SOL    HW175611   5.670  10.180   8.573
21183SOL    HW275612   5.526  10.118   8.529
21184SOL     OW75613   5.809   9.247   7.813
21184SOL    HW175614   5.847   9.335   7.840
21184SOL    HW275615   5.732   9.223   7.873
21185SOL     OW75616   7.328   9.446   8.234
21185SOL    HW175617   7.283   9.428   8.321
21185SOL    HW275618   7.426   9.463   8.250
21186SOL     OW75619   6.714   9.845   7.695
21186SOL    HW175620   6.766   9.917   7.741
21186SOL    HW275621   6.727   9.852   7.597
21187SOL     OW75622   5.832  10.102   8.762
21187SOL    HW175623   5.796  10.012   8.788
21187SOL    HW275624   5.793  10.172   8.822
21188SOL     OW75625   6.000   9.684   9.167
21188SOL    HW175626   6.036   9.631   9.090
21188SOL    HW275627   6.061   9.761   9.185
21189SOL     OW75628   6.064  10.101   7.739
21189SOL    HW175629   6.014  10.166   7.683
21189SOL    HW275630   6.006  10.022   7.758
21190SOL     OW75631   6.837   9.575   8.733
21190SOL    HW175632   6.908   9.547   8.797
21190SOL    HW275633   6.784   9.495   8.705
21191SOL     OW75634   5.538   9.274   7.934
21191SOL    HW175635   5.451   9.261   7.887
21191SOL    HW275636   5.546   9.369   7.964
21192SOL     OW75637   6.759   9.375   9.175
21192SOL    HW175638   6.818   9.391   9.255
21192SOL    HW275639   6.706   9.458   9.156
21193SOL     OW75640   6.581   9.794   8.491
21193SOL    HW175641   6.667   9.845   8.490
21193SOL    HW275642   6.587   9.720   8.558
21194SOL     OW75643   6.530   9.409   8.280
21194SOL    HW175644   6.626   9.410   8.308
21194SOL    HW275645   6.475   9.366   8.352
21195SOL     OW75646   7.183   9.682   8.160
21195SOL    HW175647   7.202   9.768   8.207
21195SOL    HW275648   7.251   9.613   8.188
21196SOL     OW75649   6.397   9.330   7.498
21196SOL    HW175650   6.472   9.264   7.510
21196SOL    HW275651   6.428   9.421   7.526
21197SOL     OW75652   6.076   9.759   8.110
21197SOL    HW175653   6.114   9.670   8.136
21197SOL    HW275654   6.143   9.809   8.055
21198SOL     OW75655   5.756   9.828   9.171
21198SOL    HW175656   5.773   9.729   9.176
21198SOL    HW275657   5.820   9.876   9.232
21199SOL     OW75658   6.325   9.742   8.390
21199SOL    HW175659   6.417   9.770   8.417
21199SOL    HW275660   6.257   9.793   8.444
21200SOL     OW75661   5.744   9.935   8.531
21200SOL    HW175662   5.782   9.994   8.602
21200SOL    HW275663   5.727   9.988   8.449
21201SOL     OW75664   6.219   9.601   7.846
21201SOL    HW175665   6.121   9.595   7.826
21201SOL    HW275666   6.238   9.558   7.934
21202SOL     OW75667   7.139   9.284   8.105
21202SOL    HW175668   7.134   9.325   8.014
21202SOL    HW275669   7.220   9.318   8.152
21203SOL     OW75670   6.904   9.692   8.087
21203SOL    HW175671   6.903   9.684   7.988
21203SOL    HW275672   6.993   9.664   8.122
21204SOL     OW75673   5.889   9.423   9.246
21204SOL    HW175674   5.802   9.420   9.197
21204SOL    HW275675   5.940   9.505   9.218
21205SOL     OW75676   6.117   9.310   9.372
21205SOL    HW175677   6.205   9.338   9.333
21205SOL    HW275678   6.045   9.373   9.342
21206SOL     OW75679   6.253   9.856   9.776
21206SOL    HW175680   6.292   9.926   9.717
21206SOL    HW275681   6.227   9.776   9.722
21207SOL     OW75682   6.594   9.550   9.616
21207SOL    HW175683   6.619   9.644   9.637
21207SOL    HW275684   6.595   9.496   9.700
21208SOL     OW75685   6.044   9.908   9.344
21208SOL    HW175686   6.004   9.987   9.297
21208SOL    HW275687   6.133   9.887   9.304
21209SOL     OW75688   6.752   9.540   9.405
21209SOL    HW175689   6.846   9.510   9.423
21209SOL    HW275690   6.700   9.540   9.491
21210SOL     OW75691   5.939   9.517   9.659
21210SOL    HW175692   5.893   9.557   9.738
21210SOL    HW275693   5.887   9.536   9.577
21211SOL     OW75694   6.492   9.728   9.901
21211SOL    HW175695   6.568   9.756   9.960
21211SOL    HW275696   6.448   9.808   9.862
21212SOL     OW75697   6.901   9.652   9.650
21212SOL    HW175698   6.838   9.710   9.598
21212SOL    HW275699   6.994   9.686   9.638
21213SOL     OW75700   7.169   9.663   9.720
21213SOL    HW175701   7.265   9.634   9.717
21213SOL    HW275702   7.130   9.641   9.809
21214SOL     OW75703   6.403   9.604   9.442
21214SOL    HW175704   6.312   9.617   9.480
21214SOL    HW275705   6.463   9.564   9.512
21215SOL     OW75706   6.461  10.234   9.799
21215SOL    HW175707   6.448  10.145   9.756
21215SOL    HW275708   6.392  10.248   9.870
21216SOL     OW75709   5.572   9.539   9.702
21216SOL    HW175710   5.632   9.490   9.640
21216SOL    HW275711   5.627   9.591   9.767
21217SOL     OW75712   6.328   9.288   9.625
21217SOL    HW175713   6.289   9.277   9.534
21217SOL    HW275714   6.284   9.364   9.672
21218SOL     OW75715   6.939   9.304   9.390
21218SOL    HW175716   7.019   9.244   9.387
21218SOL    HW275717   6.865   9.257   9.438
21219SOL     OW75718   6.254   9.535   9.956
21219SOL    HW175719   6.243   9.477  10.037
21219SOL    HW275720   6.339   9.587   9.964
21220SOL     OW75721   7.127   9.292   9.664
21220SOL    HW175722   7.134   9.246   9.576
21220SOL    HW275723   7.031   9.302   9.689
21221SOL     OW75724   5.868   9.789   9.497
21221SOL    HW175725   5.940   9.818   9.434
21221SOL    HW275726   5.824   9.869   9.537
21222SOL     OW75727   5.760   9.516   9.461
21222SOL    HW175728   5.804   9.485   9.378
21222SOL    HW275729   5.761   9.616   9.465
21223SOL     OW75730   5.613   9.768  10.072
21223SOL    HW175731   5.577   9.861  10.064
21223SOL    HW275732   5.696   9.769  10.128
21224SOL     OW75733   6.674   9.947   9.274
21224SOL    HW175734   6.605  10.004   9.230
21224SOL    HW275735   6.755   9.941   9.215
21225SOL     OW75736   6.409   9.866   9.417
21225SOL    HW175737   6.499   9.867   9.372
21225SOL    HW275738   6.386   9.772   9.442
21226SOL     OW75739   6.860   9.383   9.711
21226SOL    HW175740   6.770   9.367   9.752
21226SOL    HW275741   6.868   9.479   9.685
21227SOL     OW75742   5.609   9.298   9.371
21227SOL    HW175743   5.672   9.221   9.379
21227SOL    HW275744   5.629   9.366   9.442
21228SOL     OW75745   6.627   9.458   9.867
21228SOL    HW175746   6.686   9.518   9.922
21228SOL    HW275747   6.554   9.422   9.924
21229SOL     OW75748   5.809   9.247   9.658
21229SOL    HW175749   5.847   9.335   9.685
21229SOL    HW275750   5.732   9.223   9.718
21230SOL     OW75751   7.328   9.446  10.079
21230SOL    HW175752   7.283   9.428  10.166
21230SOL    HW275753   7.426   9.463  10.095
21231SOL     OW75754   6.714   9.845   9.540
21231SOL    HW175755   6.766   9.917   9.586
21231SOL    HW275756   6.727   9.852   9.442
21232SOL     OW75757   6.064  10.101   9.584
21232SOL    HW175758   6.014  10.166   9.528
21232SOL    HW275759   6.006  10.022   9.603
21233SOL     OW75760   5.538   9.274   9.779
21233SOL    HW175761   5.451   9.261   9.732
21233SOL    HW275762   5.546   9.369   9.809
21234SOL     OW75763   7.183   9.682  10.005
21234SOL    HW175764   7.202   9.768  10.052
21234SOL    HW275765   7.251   9.613  10.033
21235SOL     OW75766   6.397   9.330   9.343
21235SOL    HW175767   6.472   9.264   9.355
21235SOL    HW275768   6.428   9.421   9.371
21236SOL     OW75769   6.076   9.759   9.955
21236SOL    HW175770   6.114   9.670   9.981
21236SOL    HW275771   6.143   9.809   9.900
21237SOL     OW75772   6.219   9.601   9.691
21237SOL    HW175773   6.121   9.595   9.671
21237SOL    HW275774   6.238   9.558   9.779
21238SOL     OW75775   7.139   9.284   9.950
21238SOL    HW175776   7.134   9.325   9.859
21238SOL    HW275777   7.220   9.318   9.997
21239SOL     OW75778   6.904   9.692   9.932
21239SOL    HW175779   6.903   9.684   9.833
21239SOL    HW275780   6.993   9.664   9.967
21240SOL     OW75781   8.477   1.481   0.692
21240SOL    HW175782   8.568   1.515   0.715
21240SOL    HW275783   8.449   1.519   0.604
21241SOL     OW75784   9.068   0.559   1.414
21241SOL    HW175785   8.970   0.551   1.436
21241SOL    HW275786   9.121   0.548   1.498
21242SOL     OW75787   7.735   0.196   0.019
21242SOL    HW175788   7.648   0.193  -0.030
21242SOL    HW275789   7.786   0.278  -0.009
21243SOL     OW75790   8.722   1.585   0.794
21243SOL    HW175791   8.711   1.682   0.817
21243SOL    HW275792   8.815   1.568   0.764
21244SOL     OW75793   7.945   1.550   0.423
21244SOL    HW175794   7.901   1.559   0.512
21244SOL    HW275795   8.016   1.480   0.427
21245SOL     OW75796   7.963   0.083   0.145
21245SOL    HW175797   8.051   0.111   0.106
21245SOL    HW275798   7.891   0.146   0.115
21246SOL     OW75799   8.933   1.068   1.528
21246SOL    HW175800   8.841   1.073   1.490
21246SOL    HW275801   8.998   1.106   1.462
21247SOL     OW75802   8.833   1.075   1.209
21247SOL    HW175803   8.758   1.064   1.274
21247SOL    HW275804   8.870   1.168   1.215
21248SOL     OW75805   7.872   1.223   0.718
21248SOL    HW175806   7.805   1.177   0.777
21248SOL    HW275807   7.964   1.191   0.741
21249SOL     OW75808   8.099   0.629   0.549
21249SOL    HW175809   8.138   0.699   0.490
21249SOL    HW275810   8.073   0.549   0.495
21250SOL     OW75811   8.719   0.537   1.758
21250SOL    HW175812   8.815   0.541   1.784
21250SOL    HW275813   8.675   0.461   1.805
21251SOL     OW75814   7.802   1.392   0.202
21251SOL    HW175815   7.866   1.408   0.127
21251SOL    HW275816   7.826   1.450   0.280
21252SOL     OW75817   7.650   0.774   0.430
21252SOL    HW175818   7.665   0.708   0.504
21252SOL    HW275819   7.600   0.853   0.465
21253SOL     OW75820   8.236   1.719   0.607
21253SOL    HW175821   8.301   1.652   0.571
21253SOL    HW275822   8.226   1.795   0.543
21254SOL     OW75823   9.128   1.601   0.349
21254SOL    HW175824   9.224   1.575   0.342
21254SOL    HW275825   9.104   1.661   0.273
21255SOL     OW75826   9.040   0.294   1.120
21255SOL    HW175827   9.091   0.366   1.073
21255SOL    HW275828   8.945   0.321   1.129
21256SOL     OW75829   8.440   0.323   0.389
21256SOL    HW175830   8.465   0.417   0.410
21256SOL    HW275831   8.441   0.269   0.473
21257SOL     OW75832   7.890   0.681   0.117
21257SOL    HW175833   7.850   0.760   0.070
21257SOL    HW275834   7.979   0.660   0.077
21258SOL     OW75835   8.063   1.605   0.815
21258SOL    HW175836   8.136   1.628   0.751
21258SOL    HW275837   7.992   1.552   0.769
21259SOL     OW75838   8.405   0.637   1.569
21259SOL    HW175839   8.438   0.554   1.616
21259SOL    HW275840   8.478   0.705   1.568
21260SOL     OW75841   9.009   1.437   0.791
21260SOL    HW175842   9.005   1.472   0.884
21260SOL    HW275843   9.068   1.496   0.735
21261SOL     OW75844   7.740   1.258   0.467
21261SOL    HW175845   7.786   1.232   0.552
21261SOL    HW275846   7.760   1.190   0.396
21262SOL     OW75847   8.598   0.313   0.178
21262SOL    HW175848   8.692   0.283   0.196
21262SOL    HW275849   8.546   0.313   0.264
21263SOL     OW75850   7.750   0.518   1.273
21263SOL    HW175851   7.740   0.431   1.225
21263SOL    HW275852   7.686   0.585   1.236
21264SOL     OW75853   8.832   0.798   1.311
21264SOL    HW175854   8.836   0.892   1.276
21264SOL    HW275855   8.925   0.767   1.333
21265SOL     OW75856   7.785   0.290   0.432
21265SOL    HW175857   7.739   0.330   0.511
21265SOL    HW275858   7.733   0.309   0.350
21266SOL     OW75859   8.913   1.817   1.344
21266SOL    HW175860   8.856   1.768   1.278
21266SOL    HW275861   8.999   1.844   1.301
21267SOL     OW75862   9.208   0.535   1.199
21267SOL    HW175863   9.265   0.617   1.201
21267SOL    HW275864   9.149   0.534   1.279
21268SOL     OW75865   9.225   1.761   1.112
21268SOL    HW175866   9.271   1.771   1.200
21268SOL    HW275867   9.292   1.764   1.039
21269SOL     OW75868   8.573   0.965   0.191
21269SOL    HW175869   8.610   0.915   0.269
21269SOL    HW275870   8.503   0.910   0.146
21270SOL     OW75871   8.415   0.387   1.812
21270SOL    HW175872   8.478   0.392   1.889
21270SOL    HW275873   8.323   0.365   1.845
21271SOL     OW75874   8.450   1.772   0.178
21271SOL    HW175875   8.484   1.685   0.143
21271SOL    HW275876   8.418   1.760   0.272
21272SOL     OW75877   8.131   0.039   1.710
21272SOL    HW175878   8.138  -0.055   1.677
21272SOL    HW275879   8.188   0.049   1.792
21273SOL     OW75880   9.054   0.640   0.978
21273SOL    HW175881   9.039   0.731   1.015
21273SOL    HW275882   9.124   0.593   1.032
21274SOL     OW75883   8.464   1.306   1.744
21274SOL    HW175884   8.486   1.216   1.706
21274SOL    HW275885   8.399   1.353   1.685
21275SOL     OW75886   9.109   0.218   1.783
21275SOL    HW175887   9.086   0.239   1.878
21275SOL    HW275888   9.085   0.123   1.763
21276SOL     OW75889   7.412   0.622   0.527
21276SOL    HW175890   7.414   0.573   0.614
21276SOL    HW275891   7.414   0.721   0.545
21277SOL     OW75892   7.733   0.210   0.848
21277SOL    HW175893   7.785   0.250   0.923
21277SOL    HW275894   7.786   0.137   0.805
21278SOL     OW75895   7.717   0.258   1.182
21278SOL    HW175896   7.682   0.165   1.182
21278SOL    HW275897   7.804   0.261   1.133
21279SOL     OW75898   7.585   1.507   0.381
21279SOL    HW175899   7.612   1.413   0.401
21279SOL    HW275900   7.610   1.529   0.287
21280SOL     OW75901   8.867   1.376   1.255
21280SOL    HW175902   8.838   1.413   1.166
21280SOL    HW275903   8.789   1.376   1.317
21281SOL     OW75904   7.599   1.650   0.618
21281SOL    HW175905   7.515   1.701   0.636
21281SOL    HW275906   7.590   1.599   0.533
21282SOL     OW75907   9.120   1.447   1.293
21282SOL    HW175908   9.151   1.461   1.387
21282SOL    HW275909   9.021   1.434   1.292
21283SOL     OW75910   7.872   0.947   0.020
21283SOL    HW175911   7.841   0.981  -0.068
21283SOL    HW275912   7.876   1.022   0.086
21284SOL     OW75913   8.389   1.134   1.319
21284SOL    HW175914   8.439   1.049   1.303
21284SOL    HW275915   8.343   1.161   1.234
21285SOL     OW75916   7.476   0.839   0.193
21285SOL    HW175917   7.536   0.786   0.253
21285SOL    HW275918   7.382   0.807   0.205
21286SOL     OW75919   8.244   1.824   1.041
21286SOL    HW175920   8.290   1.757   0.983
21286SOL    HW275921   8.170   1.780   1.091
21287SOL     OW75922   8.151   0.893   0.077
21287SOL    HW175923   8.180   0.812   0.128
21287SOL    HW275924   8.051   0.892   0.068
21288SOL     OW75925   7.526   0.281   1.413
21288SOL    HW175926   7.598   0.291   1.344
21288SOL    HW275927   7.437   0.280   1.368
21289SOL     OW75928   8.424   0.902   1.178
21289SOL    HW175929   8.418   0.888   1.079
21289SOL    HW275930   8.343   0.863   1.222
21290SOL     OW75931   8.299   1.511   0.930
21290SOL    HW175932   8.357   1.522   0.849
21290SOL    HW275933   8.205   1.535   0.908
21291SOL     OW75934   8.249   0.377   0.215
21291SOL    HW175935   8.158   0.390   0.253
21291SOL    HW275936   8.309   0.337   0.285
21292SOL     OW75937   8.360   1.322   0.150
21292SOL    HW175938   8.413   1.262   0.210
21292SOL    HW275939   8.399   1.323   0.059
21293SOL     OW75940   9.111   1.617   0.635
21293SOL    HW175941   9.078   1.710   0.654
21293SOL    HW275942   9.109   1.601   0.536
21294SOL     OW75943   8.718   0.930   0.827
21294SOL    HW175944   8.739   0.872   0.905
21294SOL    HW275945   8.727   1.026   0.853
21295SOL     OW75946   7.674   1.059   0.873
21295SOL    HW175947   7.597   1.121   0.866
21295SOL    HW275948   7.711   1.060   0.966
21296SOL     OW75949   8.307   1.007   0.572
21296SOL    HW175950   8.294   0.918   0.529
21296SOL    HW275951   8.238   1.021   0.643
21297SOL     OW75952   8.611   1.395   1.411
21297SOL    HW175953   8.644   1.480   1.452
21297SOL    HW275954   8.512   1.391   1.418
21298SOL     OW75955   7.418   0.312   0.475
21298SOL    HW175956   7.478   0.263   0.413
21298SOL    HW275957   7.473   0.364   0.540
21299SOL     OW75958   9.041   1.810   0.166
21299SOL    HW175959   9.131   1.854   0.168
21299SOL    HW275960   9.040   1.741   0.094
21300SOL     OW75961   8.205   0.777   1.324
21300SOL    HW175962   8.207   0.863   1.375
21300SOL    HW275963   8.262   0.709   1.371
21301SOL     OW75964   7.442   1.804   1.395
21301SOL    HW175965   7.450   1.904   1.393
21301SOL    HW275966   7.418   1.775   1.488
21302SOL     OW75967   8.223   0.823   0.389
21302SOL    HW175968   8.134   0.851   0.354
21302SOL    HW275969   8.264   0.757   0.325
21303SOL     OW75970   7.745   0.541   0.928
21303SOL    HW175971   7.801   0.534   0.845
21303SOL    HW275972   7.802   0.519   1.008
21304SOL     OW75973   7.742   1.739   0.199
21304SOL    HW175974   7.834   1.769   0.174
21304SOL    HW275975   7.717   1.778   0.288
21305SOL     OW75976   8.718   1.761   1.136
21305SOL    HW175977   8.737   1.824   1.062
21305SOL    HW275978   8.726   1.667   1.103
21306SOL     OW75979   7.423   1.156   0.948
21306SOL    HW175980   7.333   1.172   0.909
21306SOL    HW275981   7.421   1.072   1.003
21307SOL     OW75982   8.174   0.061   0.398
21307SOL    HW175983   8.135   0.050   0.307
21307SOL    HW275984   8.130   0.137   0.445
21308SOL     OW75985   7.419   1.197   0.492
21308SOL    HW175986   7.497   1.255   0.516
21308SOL    HW275987   7.438   1.148   0.407
21309SOL     OW75988   8.949   0.325   1.576
21309SOL    HW175989   8.888   0.403   1.573
21309SOL    HW275990   9.004   0.329   1.659
21310SOL     OW75991   8.785   0.077   0.163
21310SOL    HW175992   8.865   0.017   0.160
21310SOL    HW275993   8.711   0.030   0.211
21311SOL     OW75994   8.100   0.308   0.729
21311SOL    HW175995   8.089   0.250   0.810
21311SOL    HW275996   8.185   0.360   0.737
21312SOL     OW75997   8.680   0.659   1.121
21312SOL    HW175998   8.734   0.699   1.047
21312SOL    HW275999   8.718   0.688   1.209
21313SOL     OW76000   8.973   0.065   0.437
21313SOL    HW176001   8.980   0.019   0.349
21313SOL    HW276002   8.877   0.075   0.462
21314SOL     OW76003   7.486   1.402   1.106
21314SOL    HW176004   7.455   1.328   1.047
21314SOL    HW276005   7.418   1.420   1.177
21315SOL     OW76006   9.172   0.630   1.675
21315SOL    HW176007   9.161   0.716   1.624
21315SOL    HW276008   9.266   0.621   1.705
21316SOL     OW76009   8.743   0.403   1.094
21316SOL    HW176010   8.717   0.500   1.100
21316SOL    HW276011   8.743   0.363   1.186
21317SOL     OW76012   8.973   0.535   1.845
21317SOL    HW176013   9.053   0.560   1.789
21317SOL    HW276014   9.004   0.500   1.933
21318SOL     OW76015   8.684   0.838   0.425
21318SOL    HW176016   8.630   0.836   0.509
21318SOL    HW276017   8.761   0.901   0.436
21319SOL     OW76018   9.137   0.871   1.540
21319SOL    HW176019   9.039   0.892   1.542
21319SOL    HW276020   9.186   0.947   1.499
21320SOL     OW76021   7.529   0.301   1.704
21320SOL    HW176022   7.547   0.290   1.606
21320SOL    HW276023   7.431   0.297   1.721
21321SOL     OW76024   7.409   1.715   1.648
21321SOL    HW176025   7.481   1.701   1.716
21321SOL    HW276026   7.320   1.718   1.693
21322SOL     OW76027   7.577   0.371   0.672
21322SOL    HW176028   7.520   0.426   0.733
21322SOL    HW276029   7.647   0.323   0.725
21323SOL     OW76030   8.749   1.603   1.535
21323SOL    HW176031   8.702   1.671   1.590
21323SOL    HW276032   8.816   1.649   1.476
21324SOL     OW76033   7.714   0.562   0.270
21324SOL    HW176034   7.786   0.591   0.207
21324SOL    HW276035   7.670   0.642   0.310
21325SOL     OW76036   9.100   0.224   1.373
21325SOL    HW176037   9.056   0.272   1.449
21325SOL    HW276038   9.078   0.270   1.287
21326SOL     OW76039   7.829   1.825   0.736
21326SOL    HW176040   7.753   1.791   0.681
21326SOL    HW276041   7.915   1.788   0.701
21327SOL     OW76042   7.754   1.334   1.181
21327SOL    HW176043   7.766   1.350   1.278
21327SOL    HW276044   7.667   1.374   1.151
21328SOL     OW76045   8.638   1.538   1.827
21328SOL    HW176046   8.597   1.453   1.793
21328SOL    HW276047   8.618   1.612   1.763
21329SOL     OW76048   8.128   1.258   0.517
21329SOL    HW176049   8.171   1.189   0.459
21329SOL    HW276050   8.092   1.215   0.600
21330SOL     OW76051   7.760   0.809   0.719
21330SOL    HW176052   7.752   0.907   0.737
21330SOL    HW276053   7.844   0.775   0.760
21331SOL     OW76054   7.606   0.289   0.234
21331SOL    HW176055   7.650   0.258   0.151
21331SOL    HW276056   7.607   0.389   0.238
21332SOL     OW76057   7.459   0.541   0.845
21332SOL    HW176058   7.423   0.634   0.837
21332SOL    HW276059   7.542   0.542   0.901
21333SOL     OW76060   7.894   1.128   0.231
21333SOL    HW176061   7.994   1.128   0.242
21333SOL    HW276062   7.863   1.221   0.210
21334SOL     OW76063   8.520   0.720   0.047
21334SOL    HW176064   8.451   0.777   0.003
21334SOL    HW276065   8.601   0.714  -0.012
21335SOL     OW76066   8.255   0.639   0.190
21335SOL    HW176067   8.345   0.640   0.145
21335SOL    HW276068   8.232   0.545   0.215
21336SOL     OW76069   8.820   0.556   1.500
21336SOL    HW176070   8.772   0.579   1.584
21336SOL    HW276071   8.754   0.526   1.431
21337SOL     OW76072   7.455   0.071   0.144
21337SOL    HW176073   7.518  -0.006   0.152
21337SOL    HW276074   7.475   0.139   0.215
21338SOL     OW76075   7.728   1.046   1.145
21338SOL    HW176076   7.739   1.001   1.234
21338SOL    HW276077   7.755   1.142   1.152
21339SOL     OW76078   9.027   1.058   0.245
21339SOL    HW176079   9.098   1.128   0.247
21339SOL    HW276080   9.014   1.028   0.150
21340SOL     OW76081   8.009   0.659   1.167
21340SOL    HW176082   8.084   0.702   1.216
21340SOL    HW276083   7.942   0.624   1.233
21341SOL     OW76084   8.544   1.049   1.644
21341SOL    HW176085   8.466   0.995   1.677
21341SOL    HW276086   8.625   1.027   1.699
21342SOL     OW76087   8.583   1.763   1.680
21342SOL    HW176088   8.488   1.761   1.648
21342SOL    HW276089   8.604   1.854   1.717
21343SOL     OW76090   8.001   0.108   0.911
21343SOL    HW176091   7.929   0.041   0.897
21343SOL    HW276092   8.083   0.062   0.946
21344SOL     OW76093   7.701   1.773   1.278
21344SOL    HW176094   7.681   1.755   1.182
21344SOL    HW276095   7.628   1.735   1.335
21345SOL     OW76096   8.394   1.237   0.823
21345SOL    HW176097   8.433   1.280   0.742
21345SOL    HW276098   8.467   1.220   0.890
21346SOL     OW76099   8.088   0.965   1.025
21346SOL    HW176100   8.086   0.881   0.970
21346SOL    HW276101   8.037   0.951   1.110
21347SOL     OW76102   7.427   0.975   1.151
21347SOL    HW176103   7.516   0.953   1.191
21347SOL    HW276104   7.372   0.891   1.147
21348SOL     OW76105   7.655   0.020   0.431
21348SOL    HW176106   7.693   0.108   0.458
21348SOL    HW276107   7.578  -0.004   0.491
21349SOL     OW76108   8.071   0.637   1.759
21349SOL    HW176109   8.023   0.688   1.688
21349SOL    HW276110   8.164   0.616   1.729
21350SOL     OW76111   7.477   1.107   0.251
21350SOL    HW176112   7.467   1.010   0.230
21350SOL    HW276113   7.530   1.152   0.179
21351SOL     OW76114   9.174   0.219   0.852
21351SOL    HW176115   9.129   0.201   0.939
21351SOL    HW276116   9.272   0.236   0.868
21352SOL     OW76117   8.222   1.195   1.104
21352SOL    HW176118   8.173   1.110   1.085
21352SOL    HW276119   8.292   1.210   1.035
21353SOL     OW76120   8.560   0.618   0.313
21353SOL    HW176121   8.612   0.690   0.359
21353SOL    HW276122   8.573   0.625   0.215
21354SOL     OW76123   8.921   1.433   1.640
21354SOL    HW176124   8.906   1.335   1.654
21354SOL    HW276125   8.838   1.475   1.604
21355SOL     OW76126   8.180   1.501   0.038
21355SOL    HW176127   8.155   1.578   0.097
21355SOL    HW276128   8.244   1.441   0.086
21356SOL     OW76129   7.998   1.708   1.072
21356SOL    HW176130   8.018   1.678   0.979
21356SOL    HW276131   7.923   1.653   1.109
21357SOL     OW76132   8.141   1.119   0.789
21357SOL    HW176133   8.230   1.165   0.789
21357SOL    HW276134   8.134   1.059   0.868
21358SOL     OW76135   8.319   1.466   0.458
21358SOL    HW176136   8.369   1.454   0.373
21358SOL    HW276137   8.265   1.383   0.477
21359SOL     OW76138   7.509   0.813   0.858
21359SOL    HW176139   7.604   0.804   0.826
21359SOL    HW276140   7.475   0.905   0.837
21360SOL     OW76141   7.446   0.930   1.785
21360SOL    HW176142   7.361   0.881   1.766
21360SOL    HW276143   7.473   0.917   1.880
21361SOL     OW76144   8.343   1.839   1.491
21361SOL    HW176145   8.315   1.752   1.532
21361SOL    HW276146   8.287   1.913   1.528
21362SOL     OW76147   8.572   1.186   1.021
21362SOL    HW176148   8.556   1.280   1.052
21362SOL    HW276149   8.575   1.125   1.101
21363SOL     OW76150   7.910   0.874   0.357
21363SOL    HW176151   7.860   0.939   0.301
21363SOL    HW276152   7.852   0.795   0.376
21364SOL     OW76153   8.991   0.905   1.055
21364SOL    HW176154   9.010   0.944   0.964
21364SOL    HW276155   8.945   0.974   1.111
21365SOL     OW76156   8.683   0.348   1.351
21365SOL    HW176157   8.754   0.320   1.415
21365SOL    HW276158   8.630   0.268   1.323
21366SOL     OW76159   7.384   0.047   0.552
21366SOL    HW176160   7.297   0.034   0.505
21366SOL    HW276161   7.392   0.142   0.582
21367SOL     OW76162   8.605   0.148   1.793
21367SOL    HW176163   8.664   0.164   1.873
21367SOL    HW276164   8.552   0.231   1.774
21368SOL     OW76165   9.177   1.454   1.559
21368SOL    HW176166   9.205   1.547   1.581
21368SOL    HW276167   9.084   1.438   1.592
21369SOL     OW76168   7.831   1.513   0.681
21369SOL    HW176169   7.829   1.414   0.694
21369SOL    HW276170   7.740   1.546   0.658
21370SOL     OW76171   8.472   1.630   1.269
21370SOL    HW176172   8.398   1.694   1.287
21370SOL    HW276173   8.551   1.679   1.231
21371SOL     OW76174   7.681   1.760   1.768
21371SOL    HW176175   7.724   1.844   1.734
21371SOL    HW276176   7.706   1.747   1.864
21372SOL     OW76177   7.630   1.661   1.043
21372SOL    HW176178   7.572   1.581   1.057
21372SOL    HW276179   7.654   1.668   0.946
21373SOL     OW76180   8.438   1.188   0.414
21373SOL    HW176181   8.518   1.224   0.462
21373SOL    HW276182   8.396   1.115   0.470
21374SOL     OW76183   9.029   0.455   0.778
21374SOL    HW176184   9.048   0.541   0.825
21374SOL    HW276185   9.097   0.386   0.806
21375SOL     OW76186   8.172   1.127   0.264
21375SOL    HW176187   8.244   1.186   0.229
21375SOL    HW276188   8.212   1.043   0.300
21376SOL     OW76189   8.243   0.103   0.116
21376SOL    HW176190   8.318   0.037   0.128
21376SOL    HW276191   8.274   0.194   0.144
21377SOL     OW76192   7.922   0.532   0.728
21377SOL    HW176193   7.960   0.443   0.754
21377SOL    HW276194   7.989   0.582   0.673
21378SOL     OW76195   9.132   1.133   1.351
21378SOL    HW176196   9.146   1.231   1.365
21378SOL    HW276197   9.189   1.102   1.275
21379SOL     OW76198   7.615   1.242   0.043
21379SOL    HW176199   7.607   1.254  -0.056
21379SOL    HW276200   7.674   1.313   0.081
21380SOL     OW76201   8.042   1.681   0.203
21380SOL    HW176202   8.017   1.776   0.187
21380SOL    HW276203   8.009   1.653   0.293
21381SOL     OW76204   8.692   1.104   1.427
21381SOL    HW176205   8.636   1.063   1.498
21381SOL    HW276206   8.672   1.202   1.421
21382SOL     OW76207   7.959   1.720   1.427
21382SOL    HW176208   8.008   1.800   1.391
21382SOL    HW276209   7.867   1.718   1.388
21383SOL     OW76210   7.602   0.601   1.789
21383SOL    HW176211   7.619   0.502   1.794
21383SOL    HW276212   7.666   0.649   1.850
21384SOL     OW76213   9.041   1.562   1.028
21384SOL    HW176214   9.013   1.655   1.052
21384SOL    HW276215   9.091   1.521   1.104
21385SOL     OW76216   7.437   0.935   0.589
21385SOL    HW176217   7.444   1.034   0.576
21385SOL    HW276218   7.346   0.912   0.623
21386SOL     OW76219   8.024   1.366   1.235
21386SOL    HW176220   7.937   1.365   1.186
21386SOL    HW276221   8.090   1.306   1.188
21387SOL     OW76222   7.590   0.708   1.149
21387SOL    HW176223   7.628   0.767   1.220
21387SOL    HW276224   7.573   0.761   1.067
21388SOL     OW76225   9.004   1.670   1.795
21388SOL    HW176226   8.973   1.592   1.740
21388SOL    HW276227   8.973   1.755   1.753
21389SOL     OW76228   8.712   1.208   0.516
21389SOL    HW176229   8.811   1.212   0.532
21389SOL    HW276230   8.695   1.194   0.418
21390SOL     OW76231   8.065   0.374   0.464
21390SOL    HW176232   7.967   0.368   0.444
21390SOL    HW276233   8.084   0.331   0.552
21391SOL     OW76234   8.588   0.813   1.416
21391SOL    HW176235   8.687   0.822   1.406
21391SOL    HW276236   8.544   0.815   1.326
21392SOL     OW76237   8.082   0.773   0.818
21392SOL    HW176238   8.104   0.695   0.876
21392SOL    HW276239   8.091   0.747   0.722
21393SOL     OW76240   8.747   1.480   1.030
21393SOL    HW176241   8.661   1.437   1.059
21393SOL    HW276242   8.736   1.520   0.939
21394SOL     OW76243   8.988   1.277   2.395
21394SOL    HW176244   8.999   1.361   2.449
21394SOL    HW276245   9.078   1.240   2.372
21395SOL     OW76246   7.735   0.196   1.864
21395SOL    HW176247   7.648   0.193   1.815
21395SOL    HW276248   7.786   0.278   1.836
21396SOL     OW76249   8.722   1.585   2.639
21396SOL    HW176250   8.711   1.682   2.662
21396SOL    HW276251   8.815   1.568   2.609
21397SOL     OW76252   8.600   0.096   3.197
21397SOL    HW176253   8.524   0.051   3.244
21397SOL    HW276254   8.629   0.041   3.119
21398SOL     OW76255   7.945   1.550   2.268
21398SOL    HW176256   7.901   1.559   2.357
21398SOL    HW276257   8.016   1.480   2.272
21399SOL     OW76258   7.963   0.083   1.990
21399SOL    HW176259   8.051   0.111   1.951
21399SOL    HW276260   7.891   0.146   1.960
21400SOL     OW76261   8.329   1.330   3.354
21400SOL    HW176262   8.272   1.393   3.300
21400SOL    HW276263   8.362   1.256   3.295
21401SOL     OW76264   7.872   1.223   2.563
21401SOL    HW176265   7.805   1.177   2.622
21401SOL    HW276266   7.964   1.191   2.586
21402SOL     OW76267   7.802   1.392   2.047
21402SOL    HW176268   7.866   1.408   1.972
21402SOL    HW276269   7.826   1.450   2.125
21403SOL     OW76270   7.953   0.348   2.857
21403SOL    HW176271   8.029   0.413   2.853
21403SOL    HW276272   7.983   0.259   2.824
21404SOL     OW76273   7.650   0.774   2.275
21404SOL    HW176274   7.665   0.708   2.349
21404SOL    HW276275   7.600   0.853   2.310
21405SOL     OW76276   9.128   1.601   2.194
21405SOL    HW176277   9.224   1.575   2.187
21405SOL    HW276278   9.104   1.661   2.118
21406SOL     OW76279   9.040   0.294   2.965
21406SOL    HW176280   9.091   0.366   2.918
21406SOL    HW276281   8.945   0.321   2.974
21407SOL     OW76282   8.440   0.323   2.234
21407SOL    HW176283   8.465   0.417   2.255
21407SOL    HW276284   8.441   0.269   2.318
21408SOL     OW76285   7.564   1.036   3.419
21408SOL    HW176286   7.660   1.051   3.437
21408SOL    HW276287   7.526   0.974   3.488
21409SOL     OW76288   7.890   0.681   1.962
21409SOL    HW176289   7.850   0.760   1.915
21409SOL    HW276290   7.979   0.660   1.922
21410SOL     OW76291   8.063   1.605   2.660
21410SOL    HW176292   8.136   1.628   2.596
21410SOL    HW276293   7.992   1.552   2.614
21411SOL     OW76294   8.405   0.637   3.414
21411SOL    HW176295   8.438   0.554   3.461
21411SOL    HW276296   8.478   0.705   3.413
21412SOL     OW76297   9.009   1.437   2.636
21412SOL    HW176298   9.005   1.472   2.729
21412SOL    HW276299   9.068   1.496   2.580
21413SOL     OW76300   7.740   1.258   2.312
21413SOL    HW176301   7.786   1.232   2.397
21413SOL    HW276302   7.760   1.190   2.241
21414SOL     OW76303   8.598   0.313   2.023
21414SOL    HW176304   8.692   0.283   2.041
21414SOL    HW276305   8.546   0.313   2.109
21415SOL     OW76306   7.750   0.518   3.118
21415SOL    HW176307   7.740   0.431   3.070
21415SOL    HW276308   7.686   0.585   3.081
21416SOL     OW76309   7.785   0.290   2.277
21416SOL    HW176310   7.739   0.330   2.356
21416SOL    HW276311   7.733   0.309   2.195
21417SOL     OW76312   8.913   1.817   3.189
21417SOL    HW176313   8.856   1.768   3.123
21417SOL    HW276314   8.999   1.844   3.146
21418SOL     OW76315   9.208   0.535   3.044
21418SOL    HW176316   9.265   0.617   3.046
21418SOL    HW276317   9.149   0.534   3.124
21419SOL     OW76318   9.225   1.761   2.957
21419SOL    HW176319   9.271   1.771   3.045
21419SOL    HW276320   9.292   1.764   2.884
21420SOL     OW76321   8.573   0.965   2.036
21420SOL    HW176322   8.610   0.915   2.114
21420SOL    HW276323   8.503   0.910   1.991
21421SOL     OW76324   8.415   0.387   3.657
21421SOL    HW176325   8.478   0.392   3.734
21421SOL    HW276326   8.323   0.365   3.690
21422SOL     OW76327   9.156   0.634   2.115
21422SOL    HW176328   9.177   0.553   2.061
21422SOL    HW276329   9.173   0.615   2.212
21423SOL     OW76330   8.131   0.039   3.555
21423SOL    HW176331   8.138  -0.055   3.522
21423SOL    HW276332   8.188   0.049   3.637
21424SOL     OW76333   9.054   0.640   2.823
21424SOL    HW176334   9.039   0.731   2.860
21424SOL    HW276335   9.124   0.593   2.877
21425SOL     OW76336   8.464   1.306   3.589
21425SOL    HW176337   8.486   1.216   3.551
21425SOL    HW276338   8.399   1.353   3.530
21426SOL     OW76339   8.119   1.148   3.593
21426SOL    HW176340   8.090   1.225   3.650
21426SOL    HW276341   8.129   1.067   3.651
21427SOL     OW76342   8.754   0.012   2.699
21427SOL    HW176343   8.703   0.096   2.681
21427SOL    HW276344   8.840   0.014   2.648
21428SOL     OW76345   9.109   0.218   3.628
21428SOL    HW176346   9.086   0.239   3.723
21428SOL    HW276347   9.085   0.123   3.608
21429SOL     OW76348   7.412   0.622   2.372
21429SOL    HW176349   7.414   0.573   2.459
21429SOL    HW276350   7.414   0.721   2.390
21430SOL     OW76351   7.733   0.210   2.693
21430SOL    HW176352   7.785   0.250   2.768
21430SOL    HW276353   7.786   0.137   2.650
21431SOL     OW76354   7.717   0.258   3.027
21431SOL    HW176355   7.682   0.165   3.027
21431SOL    HW276356   7.804   0.261   2.978
21432SOL     OW76357   7.585   1.507   2.226
21432SOL    HW176358   7.612   1.413   2.246
21432SOL    HW276359   7.610   1.529   2.132
21433SOL     OW76360   8.867   1.376   3.100
21433SOL    HW176361   8.838   1.413   3.011
21433SOL    HW276362   8.789   1.376   3.162
21434SOL     OW76363   7.599   1.650   2.463
21434SOL    HW176364   7.515   1.701   2.481
21434SOL    HW276365   7.590   1.599   2.378
21435SOL     OW76366   9.120   1.447   3.138
21435SOL    HW176367   9.151   1.461   3.232
21435SOL    HW276368   9.021   1.434   3.137
21436SOL     OW76369   7.872   0.947   1.865
21436SOL    HW176370   7.841   0.981   1.777
21436SOL    HW276371   7.876   1.022   1.931
21437SOL     OW76372   8.389   1.134   3.164
21437SOL    HW176373   8.439   1.049   3.148
21437SOL    HW276374   8.343   1.161   3.079
21438SOL     OW76375   7.476   0.839   2.038
21438SOL    HW176376   7.536   0.786   2.098
21438SOL    HW276377   7.382   0.807   2.050
21439SOL     OW76378   8.996   0.837   2.238
21439SOL    HW176379   9.064   0.771   2.205
21439SOL    HW276380   9.011   0.925   2.194
21440SOL     OW76381   8.244   1.824   2.886
21440SOL    HW176382   8.290   1.757   2.828
21440SOL    HW276383   8.170   1.780   2.936
21441SOL     OW76384   8.151   0.893   1.922
21441SOL    HW176385   8.180   0.812   1.973
21441SOL    HW276386   8.051   0.892   1.913
21442SOL     OW76387   8.747   0.425   2.268
21442SOL    HW176388   8.684   0.483   2.216
21442SOL    HW276389   8.840   0.459   2.256
21443SOL     OW76390   7.644   0.626   3.368
21443SOL    HW176391   7.664   0.531   3.343
21443SOL    HW276392   7.607   0.629   3.461
21444SOL     OW76393   7.526   0.281   3.258
21444SOL    HW176394   7.598   0.291   3.189
21444SOL    HW276395   7.437   0.280   3.213
21445SOL     OW76396   8.424   0.902   3.023
21445SOL    HW176397   8.418   0.888   2.924
21445SOL    HW276398   8.343   0.863   3.067
21446SOL     OW76399   9.015   0.436   2.338
21446SOL    HW176400   9.111   0.407   2.335
21446SOL    HW276401   8.976   0.414   2.427
21447SOL     OW76402   8.299   1.511   2.775
21447SOL    HW176403   8.357   1.522   2.694
21447SOL    HW276404   8.205   1.535   2.753
21448SOL     OW76405   8.249   0.377   2.060
21448SOL    HW176406   8.158   0.390   2.098
21448SOL    HW276407   8.309   0.337   2.130
21449SOL     OW76408   9.111   1.617   2.480
21449SOL    HW176409   9.078   1.710   2.499
21449SOL    HW276410   9.109   1.601   2.381
21450SOL     OW76411   8.274   1.616   3.493
21450SOL    HW176412   8.262   1.547   3.422
21450SOL    HW276413   8.237   1.581   3.580
21451SOL     OW76414   7.674   1.059   2.718
21451SOL    HW176415   7.597   1.121   2.711
21451SOL    HW276416   7.711   1.060   2.811
21452SOL     OW76417   8.611   1.395   3.256
21452SOL    HW176418   8.644   1.480   3.297
21452SOL    HW276419   8.512   1.391   3.263
21453SOL     OW76420   7.418   0.312   2.320
21453SOL    HW176421   7.478   0.263   2.258
21453SOL    HW276422   7.473   0.364   2.385
21454SOL     OW76423   9.041   1.810   2.011
21454SOL    HW176424   9.131   1.854   2.013
21454SOL    HW276425   9.040   1.741   1.939
21455SOL     OW76426   8.205   0.777   3.169
21455SOL    HW176427   8.207   0.863   3.220
21455SOL    HW276428   8.262   0.709   3.216
21456SOL     OW76429   7.442   1.804   3.240
21456SOL    HW176430   7.450   1.904   3.238
21456SOL    HW276431   7.418   1.775   3.333
21457SOL     OW76432   7.745   0.541   2.773
21457SOL    HW176433   7.801   0.534   2.690
21457SOL    HW276434   7.802   0.519   2.853
21458SOL     OW76435   7.742   1.739   2.044
21458SOL    HW176436   7.834   1.769   2.019
21458SOL    HW276437   7.717   1.778   2.133
21459SOL     OW76438   8.718   1.761   2.981
21459SOL    HW176439   8.737   1.824   2.907
21459SOL    HW276440   8.726   1.667   2.948
21460SOL     OW76441   7.423   1.156   2.793
21460SOL    HW176442   7.333   1.172   2.754
21460SOL    HW276443   7.421   1.072   2.848
21461SOL     OW76444   8.174   0.061   2.243
21461SOL    HW176445   8.135   0.050   2.152
21461SOL    HW276446   8.130   0.137   2.290
21462SOL     OW76447   7.419   1.197   2.337
21462SOL    HW176448   7.497   1.255   2.361
21462SOL    HW276449   7.438   1.148   2.252
21463SOL     OW76450   8.665   0.271   2.712
21463SOL    HW176451   8.664   0.349   2.649
21463SOL    HW276452   8.708   0.298   2.798
21464SOL     OW76453   8.785   0.077   2.008
21464SOL    HW176454   8.865   0.017   2.005
21464SOL    HW276455   8.711   0.030   2.056
21465SOL     OW76456   8.998   0.049   3.442
21465SOL    HW176457   9.024   0.006   3.356
21465SOL    HW276458   8.948   0.133   3.424
21466SOL     OW76459   8.100   0.308   2.574
21466SOL    HW176460   8.089   0.250   2.655
21466SOL    HW276461   8.185   0.360   2.582
21467SOL     OW76462   8.973   0.065   2.282
21467SOL    HW176463   8.980   0.019   2.194
21467SOL    HW276464   8.877   0.075   2.307
21468SOL     OW76465   7.949   1.380   3.645
21468SOL    HW176466   7.910   1.443   3.578
21468SOL    HW276467   8.032   1.420   3.685
21469SOL     OW76468   7.825   1.112   3.477
21469SOL    HW176469   7.844   1.136   3.382
21469SOL    HW276470   7.818   1.195   3.532
21470SOL     OW76471   7.486   1.402   2.951
21470SOL    HW176472   7.455   1.328   2.892
21470SOL    HW276473   7.418   1.420   3.022
21471SOL     OW76474   8.572   0.603   2.684
21471SOL    HW176475   8.654   0.580   2.632
21471SOL    HW276476   8.567   0.544   2.765
21472SOL     OW76477   8.743   0.403   2.939
21472SOL    HW176478   8.717   0.500   2.945
21472SOL    HW276479   8.743   0.363   3.031
21473SOL     OW76480   8.981   0.934   2.490
21473SOL    HW176481   8.995   0.897   2.397
21473SOL    HW276482   8.892   0.904   2.524
21474SOL     OW76483   8.991   0.291   2.064
21474SOL    HW176484   8.996   0.333   2.155
21474SOL    HW276485   8.924   0.216   2.066
21475SOL     OW76486   8.138   1.506   3.284
21475SOL    HW176487   8.075   1.584   3.291
21475SOL    HW276488   8.106   1.444   3.212
21476SOL     OW76489   7.529   0.301   3.549
21476SOL    HW176490   7.547   0.290   3.451
21476SOL    HW276491   7.431   0.297   3.566
21477SOL     OW76492   7.409   1.715   3.493
21477SOL    HW176493   7.481   1.701   3.561
21477SOL    HW276494   7.320   1.718   3.538
21478SOL     OW76495   7.577   0.371   2.517
21478SOL    HW176496   7.520   0.426   2.578
21478SOL    HW276497   7.647   0.323   2.570
21479SOL     OW76498   8.749   1.603   3.380
21479SOL    HW176499   8.702   1.671   3.435
21479SOL    HW276500   8.816   1.649   3.321
21480SOL     OW76501   7.714   0.562   2.115
21480SOL    HW176502   7.786   0.591   2.052
21480SOL    HW276503   7.670   0.642   2.155
21481SOL     OW76504   9.100   0.224   3.218
21481SOL    HW176505   9.056   0.272   3.294
21481SOL    HW276506   9.078   0.270   3.132
21482SOL     OW76507   7.829   1.825   2.581
21482SOL    HW176508   7.753   1.791   2.526
21482SOL    HW276509   7.915   1.788   2.546
21483SOL     OW76510   7.754   1.334   3.026
21483SOL    HW176511   7.766   1.350   3.123
21483SOL    HW276512   7.667   1.374   2.996
21484SOL     OW76513   8.638   1.538   3.672
21484SOL    HW176514   8.597   1.453   3.638
21484SOL    HW276515   8.618   1.612   3.608
21485SOL     OW76516   8.128   1.258   2.362
21485SOL    HW176517   8.171   1.189   2.304
21485SOL    HW276518   8.092   1.215   2.445
21486SOL     OW76519   7.760   0.809   2.564
21486SOL    HW176520   7.752   0.907   2.582
21486SOL    HW276521   7.844   0.775   2.605
21487SOL     OW76522   7.606   0.289   2.079
21487SOL    HW176523   7.650   0.258   1.996
21487SOL    HW276524   7.607   0.389   2.083
21488SOL     OW76525   7.459   0.541   2.690
21488SOL    HW176526   7.423   0.634   2.682
21488SOL    HW276527   7.542   0.542   2.746
21489SOL     OW76528   8.520   0.720   1.892
21489SOL    HW176529   8.451   0.777   1.848
21489SOL    HW276530   8.601   0.714   1.833
21490SOL     OW76531   8.255   0.639   2.035
21490SOL    HW176532   8.345   0.640   1.990
21490SOL    HW276533   8.232   0.545   2.060
21491SOL     OW76534   8.706   0.156   2.329
21491SOL    HW176535   8.616   0.140   2.370
21491SOL    HW276536   8.714   0.252   2.303
21492SOL     OW76537   8.820   0.556   3.345
21492SOL    HW176538   8.772   0.579   3.429
21492SOL    HW276539   8.754   0.526   3.276
21493SOL     OW76540   7.455   0.071   1.989
21493SOL    HW176541   7.518  -0.006   1.997
21493SOL    HW276542   7.475   0.139   2.060
21494SOL     OW76543   7.728   1.046   2.990
21494SOL    HW176544   7.739   1.001   3.079
21494SOL    HW276545   7.755   1.142   2.997
21495SOL     OW76546   9.027   1.058   2.090
21495SOL    HW176547   9.098   1.128   2.092
21495SOL    HW276548   9.014   1.028   1.995
21496SOL     OW76549   8.009   0.659   3.012
21496SOL    HW176550   8.084   0.702   3.061
21496SOL    HW276551   7.942   0.624   3.078
21497SOL     OW76552   8.152   1.028   3.329
21497SOL    HW176553   8.221   1.080   3.279
21497SOL    HW276554   8.147   1.061   3.424
21498SOL     OW76555   8.473   0.231   2.485
21498SOL    HW176556   8.532   0.291   2.540
21498SOL    HW276557   8.400   0.195   2.542
21499SOL     OW76558   8.583   1.763   3.525
21499SOL    HW176559   8.488   1.761   3.493
21499SOL    HW276560   8.604   1.854   3.562
21500SOL     OW76561   8.001   0.108   2.756
21500SOL    HW176562   7.929   0.041   2.742
21500SOL    HW276563   8.083   0.062   2.791
21501SOL     OW76564   7.701   1.773   3.123
21501SOL    HW176565   7.681   1.755   3.027
21501SOL    HW276566   7.628   1.735   3.180
21502SOL     OW76567   8.088   0.965   2.870
21502SOL    HW176568   8.086   0.881   2.815
21502SOL    HW276569   8.037   0.951   2.955
21503SOL     OW76570   7.427   0.975   2.996
21503SOL    HW176571   7.516   0.953   3.036
21503SOL    HW276572   7.372   0.891   2.992
21504SOL     OW76573   7.655   0.020   2.276
21504SOL    HW176574   7.693   0.108   2.303
21504SOL    HW276575   7.578  -0.004   2.336
21505SOL     OW76576   7.477   1.107   2.096
21505SOL    HW176577   7.467   1.010   2.075
21505SOL    HW276578   7.530   1.152   2.024
21506SOL     OW76579   9.174   0.219   2.697
21506SOL    HW176580   9.129   0.201   2.784
21506SOL    HW276581   9.272   0.236   2.713
21507SOL     OW76582   8.222   1.195   2.949
21507SOL    HW176583   8.173   1.110   2.930
21507SOL    HW276584   8.292   1.210   2.880
21508SOL     OW76585   8.560   0.618   2.158
21508SOL    HW176586   8.612   0.690   2.204
21508SOL    HW276587   8.573   0.625   2.060
21509SOL     OW76588   8.921   1.433   3.485
21509SOL    HW176589   8.906   1.335   3.499
21509SOL    HW276590   8.838   1.475   3.449
21510SOL     OW76591   7.678   0.875   3.225
21510SOL    HW176592   7.642   0.785   3.251
21510SOL    HW276593   7.639   0.945   3.285
21511SOL     OW76594   7.998   1.708   2.917
21511SOL    HW176595   8.018   1.678   2.824
21511SOL    HW276596   7.923   1.653   2.954
21512SOL     OW76597   8.141   1.119   2.634
21512SOL    HW176598   8.230   1.165   2.634
21512SOL    HW276599   8.134   1.059   2.713
21513SOL     OW76600   7.509   0.813   2.703
21513SOL    HW176601   7.604   0.804   2.671
21513SOL    HW276602   7.475   0.905   2.682
21514SOL     OW76603   7.446   0.930   3.630
21514SOL    HW176604   7.361   0.881   3.611
21514SOL    HW276605   7.473   0.917   3.725
21515SOL     OW76606   8.343   1.839   3.336
21515SOL    HW176607   8.315   1.752   3.377
21515SOL    HW276608   8.287   1.913   3.373
21516SOL     OW76609   7.846   0.457   3.630
21516SOL    HW176610   7.882   0.404   3.553
21516SOL    HW276611   7.907   0.534   3.648
21517SOL     OW76612   7.910   0.874   2.202
21517SOL    HW176613   7.860   0.939   2.146
21517SOL    HW276614   7.852   0.795   2.221
21518SOL     OW76615   8.683   0.348   3.196
21518SOL    HW176616   8.754   0.320   3.260
21518SOL    HW276617   8.630   0.268   3.168
21519SOL     OW76618   7.384   0.047   2.397
21519SOL    HW176619   7.297   0.034   2.350
21519SOL    HW276620   7.392   0.142   2.427
21520SOL     OW76621   8.605   0.148   3.638
21520SOL    HW176622   8.664   0.164   3.718
21520SOL    HW276623   8.552   0.231   3.619
21521SOL     OW76624   7.821   1.567   3.463
21521SOL    HW176625   7.763   1.632   3.512
21521SOL    HW276626   7.883   1.617   3.403
21522SOL     OW76627   9.177   1.454   3.404
21522SOL    HW176628   9.205   1.547   3.426
21522SOL    HW276629   9.084   1.438   3.437
21523SOL     OW76630   8.427   0.567   2.954
21523SOL    HW176631   8.513   0.618   2.953
21523SOL    HW276632   8.433   0.493   3.021
21524SOL     OW76633   7.831   1.513   2.526
21524SOL    HW176634   7.829   1.414   2.539
21524SOL    HW276635   7.740   1.546   2.503
21525SOL     OW76636   8.472   1.630   3.114
21525SOL    HW176637   8.398   1.694   3.132
21525SOL    HW276638   8.551   1.679   3.076
21526SOL     OW76639   7.681   1.760   3.613
21526SOL    HW176640   7.724   1.844   3.579
21526SOL    HW276641   7.706   1.747   3.709
21527SOL     OW76642   7.541   1.296   3.484
21527SOL    HW176643   7.520   1.201   3.457
21527SOL    HW276644   7.472   1.357   3.446
21528SOL     OW76645   7.630   1.661   2.888
21528SOL    HW176646   7.572   1.581   2.902
21528SOL    HW276647   7.654   1.668   2.791
21529SOL     OW76648   8.376   0.182   2.743
21529SOL    HW176649   8.472   0.183   2.771
21529SOL    HW276650   8.321   0.139   2.815
21530SOL     OW76651   9.029   0.455   2.623
21530SOL    HW176652   9.048   0.541   2.670
21530SOL    HW276653   9.097   0.386   2.651
21531SOL     OW76654   8.243   0.103   1.961
21531SOL    HW176655   8.318   0.037   1.973
21531SOL    HW276656   8.274   0.194   1.989
21532SOL     OW76657   7.910   1.090   3.227
21532SOL    HW176658   8.006   1.070   3.247
21532SOL    HW276659   7.899   1.188   3.209
21533SOL     OW76660   8.042   1.681   2.048
21533SOL    HW176661   8.017   1.776   2.032
21533SOL    HW276662   8.009   1.653   2.138
21534SOL     OW76663   7.959   1.720   3.272
21534SOL    HW176664   8.008   1.800   3.236
21534SOL    HW276665   7.867   1.718   3.233
21535SOL     OW76666   7.602   0.601   3.634
21535SOL    HW176667   7.619   0.502   3.639
21535SOL    HW276668   7.666   0.649   3.695
21536SOL     OW76669   9.041   1.562   2.873
21536SOL    HW176670   9.013   1.655   2.897
21536SOL    HW276671   9.091   1.521   2.949
21537SOL     OW76672   7.437   0.935   2.434
21537SOL    HW176673   7.444   1.034   2.421
21537SOL    HW276674   7.346   0.912   2.468
21538SOL     OW76675   7.946   0.733   3.372
21538SOL    HW176676   7.852   0.703   3.353
21538SOL    HW276677   7.955   0.830   3.349
21539SOL     OW76678   9.013   1.109   2.684
21539SOL    HW176679   8.975   1.198   2.657
21539SOL    HW276680   9.013   1.047   2.606
21540SOL     OW76681   8.171   0.515   2.853
21540SOL    HW176682   8.263   0.543   2.880
21540SOL    HW276683   8.103   0.566   2.907
21541SOL     OW76684   8.024   1.366   3.080
21541SOL    HW176685   7.937   1.365   3.031
21541SOL    HW276686   8.090   1.306   3.033
21542SOL     OW76687   7.590   0.708   2.994
21542SOL    HW176688   7.628   0.767   3.065
21542SOL    HW276689   7.573   0.761   2.912
21543SOL     OW76690   7.761   1.354   3.292
21543SOL    HW176691   7.780   1.442   3.336
21543SOL    HW276692   7.666   1.328   3.310
21544SOL     OW76693   9.004   1.670   3.640
21544SOL    HW176694   8.973   1.592   3.585
21544SOL    HW276695   8.973   1.755   3.598
21545SOL     OW76696   8.065   0.374   2.309
21545SOL    HW176697   7.967   0.368   2.289
21545SOL    HW276698   8.084   0.331   2.397
21546SOL     OW76699   8.985   0.057   2.568
21546SOL    HW176700   8.980   0.098   2.477
21546SOL    HW276701   9.066   0.091   2.615
21547SOL     OW76702   8.750   0.465   2.550
21547SOL    HW176703   8.749   0.457   2.451
21547SOL    HW276704   8.839   0.437   2.585
21548SOL     OW76705   8.477   1.481   4.383
21548SOL    HW176706   8.568   1.515   4.406
21548SOL    HW276707   8.449   1.519   4.295
21549SOL     OW76708   8.988   1.277   4.241
21549SOL    HW176709   8.999   1.361   4.295
21549SOL    HW276710   9.078   1.240   4.218
21550SOL     OW76711   9.068   0.559   5.105
21550SOL    HW176712   8.970   0.551   5.127
21550SOL    HW276713   9.121   0.548   5.189
21551SOL     OW76714   7.735   0.196   3.710
21551SOL    HW176715   7.648   0.193   3.661
21551SOL    HW276716   7.786   0.278   3.682
21552SOL     OW76717   8.722   1.585   4.485
21552SOL    HW176718   8.711   1.682   4.508
21552SOL    HW276719   8.815   1.568   4.455
21553SOL     OW76720   8.600   0.096   5.043
21553SOL    HW176721   8.524   0.051   5.090
21553SOL    HW276722   8.629   0.041   4.965
21554SOL     OW76723   8.338   0.876   5.420
21554SOL    HW176724   8.303   0.851   5.330
21554SOL    HW276725   8.262   0.897   5.481
21555SOL     OW76726   7.945   1.550   4.114
21555SOL    HW176727   7.901   1.559   4.203
21555SOL    HW276728   8.016   1.480   4.118
21556SOL     OW76729   7.963   0.083   3.836
21556SOL    HW176730   8.051   0.111   3.797
21556SOL    HW276731   7.891   0.146   3.806
21557SOL     OW76732   8.933   1.068   5.219
21557SOL    HW176733   8.841   1.073   5.181
21557SOL    HW276734   8.998   1.106   5.153
21558SOL     OW76735   8.833   1.075   4.900
21558SOL    HW176736   8.758   1.064   4.965
21558SOL    HW276737   8.870   1.168   4.906
21559SOL     OW76738   8.329   1.330   5.200
21559SOL    HW176739   8.272   1.393   5.146
21559SOL    HW276740   8.362   1.256   5.141
21560SOL     OW76741   7.872   1.223   4.409
21560SOL    HW176742   7.805   1.177   4.468
21560SOL    HW276743   7.964   1.191   4.432
21561SOL     OW76744   8.099   0.629   4.240
21561SOL    HW176745   8.138   0.699   4.181
21561SOL    HW276746   8.073   0.549   4.186
21562SOL     OW76747   8.719   0.537   5.449
21562SOL    HW176748   8.815   0.541   5.475
21562SOL    HW276749   8.675   0.461   5.496
21563SOL     OW76750   7.802   1.392   3.893
21563SOL    HW176751   7.866   1.408   3.818
21563SOL    HW276752   7.826   1.450   3.971
21564SOL     OW76753   7.953   0.348   4.703
21564SOL    HW176754   8.029   0.413   4.699
21564SOL    HW276755   7.983   0.259   4.670
21565SOL     OW76756   7.650   0.774   4.121
21565SOL    HW176757   7.665   0.708   4.195
21565SOL    HW276758   7.600   0.853   4.156
21566SOL     OW76759   8.236   1.719   4.298
21566SOL    HW176760   8.301   1.652   4.262
21566SOL    HW276761   8.226   1.795   4.234
21567SOL     OW76762   9.128   1.601   4.040
21567SOL    HW176763   9.224   1.575   4.033
21567SOL    HW276764   9.104   1.661   3.964
21568SOL     OW76765   9.040   0.294   4.811
21568SOL    HW176766   9.091   0.366   4.764
21568SOL    HW276767   8.945   0.321   4.820
21569SOL     OW76768   8.440   0.323   4.080
21569SOL    HW176769   8.465   0.417   4.101
21569SOL    HW276770   8.441   0.269   4.164
21570SOL     OW76771   7.564   1.036   5.265
21570SOL    HW176772   7.660   1.051   5.283
21570SOL    HW276773   7.526   0.974   5.334
21571SOL     OW76774   8.063   1.605   4.506
21571SOL    HW176775   8.136   1.628   4.442
21571SOL    HW276776   7.992   1.552   4.460
21572SOL     OW76777   8.405   0.637   5.260
21572SOL    HW176778   8.438   0.554   5.307
21572SOL    HW276779   8.478   0.705   5.259
21573SOL     OW76780   9.009   1.437   4.482
21573SOL    HW176781   9.005   1.472   4.575
21573SOL    HW276782   9.068   1.496   4.426
21574SOL     OW76783   7.740   1.258   4.158
21574SOL    HW176784   7.786   1.232   4.243
21574SOL    HW276785   7.760   1.190   4.087
21575SOL     OW76786   8.598   0.313   3.869
21575SOL    HW176787   8.692   0.283   3.887
21575SOL    HW276788   8.546   0.313   3.955
21576SOL     OW76789   7.750   0.518   4.964
21576SOL    HW176790   7.740   0.431   4.916
21576SOL    HW276791   7.686   0.585   4.927
21577SOL     OW76792   8.832   0.798   5.002
21577SOL    HW176793   8.836   0.892   4.967
21577SOL    HW276794   8.925   0.767   5.024
21578SOL     OW76795   7.785   0.290   4.123
21578SOL    HW176796   7.739   0.330   4.202
21578SOL    HW276797   7.733   0.309   4.041
21579SOL     OW76798   8.913   1.817   5.035
21579SOL    HW176799   8.856   1.768   4.969
21579SOL    HW276800   8.999   1.844   4.992
21580SOL     OW76801   9.208   0.535   4.890
21580SOL    HW176802   9.265   0.617   4.892
21580SOL    HW276803   9.149   0.534   4.970
21581SOL     OW76804   9.225   1.761   4.803
21581SOL    HW176805   9.271   1.771   4.891
21581SOL    HW276806   9.292   1.764   4.730
21582SOL     OW76807   8.338   0.501   4.365
21582SOL    HW176808   8.414   0.529   4.424
21582SOL    HW276809   8.294   0.581   4.326
21583SOL     OW76810   8.573   0.965   3.882
21583SOL    HW176811   8.610   0.915   3.960
21583SOL    HW276812   8.503   0.910   3.837
21584SOL     OW76813   8.415   0.387   5.503
21584SOL    HW176814   8.478   0.392   5.580
21584SOL    HW276815   8.323   0.365   5.536
21585SOL     OW76816   8.450   1.772   3.869
21585SOL    HW176817   8.484   1.685   3.834
21585SOL    HW276818   8.418   1.760   3.963
21586SOL     OW76819   8.131   0.039   5.401
21586SOL    HW176820   8.138  -0.055   5.368
21586SOL    HW276821   8.188   0.049   5.483
21587SOL     OW76822   9.054   0.640   4.669
21587SOL    HW176823   9.039   0.731   4.706
21587SOL    HW276824   9.124   0.593   4.723
21588SOL     OW76825   8.464   1.306   5.435
21588SOL    HW176826   8.486   1.216   5.397
21588SOL    HW276827   8.399   1.353   5.376
21589SOL     OW76828   8.119   1.148   5.439
21589SOL    HW176829   8.090   1.225   5.496
21589SOL    HW276830   8.129   1.067   5.497
21590SOL     OW76831   8.754   0.012   4.545
21590SOL    HW176832   8.703   0.096   4.527
21590SOL    HW276833   8.840   0.014   4.494
21591SOL     OW76834   9.109   0.218   5.474
21591SOL    HW176835   9.086   0.239   5.569
21591SOL    HW276836   9.085   0.123   5.454
21592SOL     OW76837   7.412   0.622   4.218
21592SOL    HW176838   7.414   0.573   4.305
21592SOL    HW276839   7.414   0.721   4.236
21593SOL     OW76840   7.733   0.210   4.539
21593SOL    HW176841   7.785   0.250   4.614
21593SOL    HW276842   7.786   0.137   4.496
21594SOL     OW76843   7.717   0.258   4.873
21594SOL    HW176844   7.682   0.165   4.873
21594SOL    HW276845   7.804   0.261   4.824
21595SOL     OW76846   8.384   0.880   4.613
21595SOL    HW176847   8.410   0.960   4.559
21595SOL    HW276848   8.378   0.800   4.553
21596SOL     OW76849   7.585   1.507   4.072
21596SOL    HW176850   7.612   1.413   4.092
21596SOL    HW276851   7.610   1.529   3.978
21597SOL     OW76852   8.867   1.376   4.946
21597SOL    HW176853   8.838   1.413   4.857
21597SOL    HW276854   8.789   1.376   5.008
21598SOL     OW76855   7.599   1.650   4.309
21598SOL    HW176856   7.515   1.701   4.327
21598SOL    HW276857   7.590   1.599   4.224
21599SOL     OW76858   9.120   1.447   4.984
21599SOL    HW176859   9.151   1.461   5.078
21599SOL    HW276860   9.021   1.434   4.983
21600SOL     OW76861   8.389   1.134   5.010
21600SOL    HW176862   8.439   1.049   4.994
21600SOL    HW276863   8.343   1.161   4.925
21601SOL     OW76864   7.476   0.839   3.884
21601SOL    HW176865   7.536   0.786   3.944
21601SOL    HW276866   7.382   0.807   3.896
21602SOL     OW76867   8.244   1.824   4.732
21602SOL    HW176868   8.290   1.757   4.674
21602SOL    HW276869   8.170   1.780   4.782
21603SOL     OW76870   8.747   0.425   4.114
21603SOL    HW176871   8.684   0.483   4.062
21603SOL    HW276872   8.840   0.459   4.102
21604SOL     OW76873   7.644   0.626   5.214
21604SOL    HW176874   7.664   0.531   5.189
21604SOL    HW276875   7.607   0.629   5.307
21605SOL     OW76876   7.526   0.281   5.104
21605SOL    HW176877   7.598   0.291   5.035
21605SOL    HW276878   7.437   0.280   5.059
21606SOL     OW76879   8.424   0.902   4.869
21606SOL    HW176880   8.418   0.888   4.770
21606SOL    HW276881   8.343   0.863   4.913
21607SOL     OW76882   9.015   0.436   4.184
21607SOL    HW176883   9.111   0.407   4.181
21607SOL    HW276884   8.976   0.414   4.273
21608SOL     OW76885   8.299   1.511   4.621
21608SOL    HW176886   8.357   1.522   4.540
21608SOL    HW276887   8.205   1.535   4.599
21609SOL     OW76888   8.249   0.377   3.906
21609SOL    HW176889   8.158   0.390   3.944
21609SOL    HW276890   8.309   0.337   3.976
21610SOL     OW76891   8.360   1.322   3.841
21610SOL    HW176892   8.413   1.262   3.901
21610SOL    HW276893   8.399   1.323   3.750
21611SOL     OW76894   9.111   1.617   4.326
21611SOL    HW176895   9.078   1.710   4.345
21611SOL    HW276896   9.109   1.601   4.227
21612SOL     OW76897   8.526   0.890   4.315
21612SOL    HW176898   8.591   0.918   4.386
21612SOL    HW276899   8.447   0.951   4.317
21613SOL     OW76900   8.274   1.616   5.339
21613SOL    HW176901   8.262   1.547   5.268
21613SOL    HW276902   8.237   1.581   5.426
21614SOL     OW76903   8.718   0.930   4.518
21614SOL    HW176904   8.739   0.872   4.596
21614SOL    HW276905   8.727   1.026   4.544
21615SOL     OW76906   7.674   1.059   4.564
21615SOL    HW176907   7.597   1.121   4.557
21615SOL    HW276908   7.711   1.060   4.657
21616SOL     OW76909   8.307   1.007   4.263
21616SOL    HW176910   8.294   0.918   4.220
21616SOL    HW276911   8.238   1.021   4.334
21617SOL     OW76912   8.611   1.395   5.102
21617SOL    HW176913   8.644   1.480   5.143
21617SOL    HW276914   8.512   1.391   5.109
21618SOL     OW76915   7.418   0.312   4.166
21618SOL    HW176916   7.478   0.263   4.104
21618SOL    HW276917   7.473   0.364   4.231
21619SOL     OW76918   9.041   1.810   3.857
21619SOL    HW176919   9.131   1.854   3.859
21619SOL    HW276920   9.040   1.741   3.785
21620SOL     OW76921   8.205   0.777   5.015
21620SOL    HW176922   8.207   0.863   5.066
21620SOL    HW276923   8.262   0.709   5.062
21621SOL     OW76924   7.442   1.804   5.086
21621SOL    HW176925   7.450   1.904   5.084
21621SOL    HW276926   7.418   1.775   5.179
21622SOL     OW76927   8.223   0.823   4.080
21622SOL    HW176928   8.134   0.851   4.045
21622SOL    HW276929   8.264   0.757   4.016
21623SOL     OW76930   7.745   0.541   4.619
21623SOL    HW176931   7.801   0.534   4.536
21623SOL    HW276932   7.802   0.519   4.699
21624SOL     OW76933   7.742   1.739   3.890
21624SOL    HW176934   7.834   1.769   3.865
21624SOL    HW276935   7.717   1.778   3.979
21625SOL     OW76936   8.718   1.761   4.827
21625SOL    HW176937   8.737   1.824   4.753
21625SOL    HW276938   8.726   1.667   4.794
21626SOL     OW76939   7.423   1.156   4.639
21626SOL    HW176940   7.333   1.172   4.600
21626SOL    HW276941   7.421   1.072   4.694
21627SOL     OW76942   8.174   0.061   4.089
21627SOL    HW176943   8.135   0.050   3.998
21627SOL    HW276944   8.130   0.137   4.136
21628SOL     OW76945   7.419   1.197   4.183
21628SOL    HW176946   7.497   1.255   4.207
21628SOL    HW276947   7.438   1.148   4.098
21629SOL     OW76948   8.949   0.325   5.267
21629SOL    HW176949   8.888   0.403   5.264
21629SOL    HW276950   9.004   0.329   5.350
21630SOL     OW76951   8.665   0.271   4.558
21630SOL    HW176952   8.664   0.349   4.495
21630SOL    HW276953   8.708   0.298   4.644
21631SOL     OW76954   8.785   0.077   3.854
21631SOL    HW176955   8.865   0.017   3.851
21631SOL    HW276956   8.711   0.030   3.902
21632SOL     OW76957   8.998   0.049   5.288
21632SOL    HW176958   9.024   0.006   5.202
21632SOL    HW276959   8.948   0.133   5.270
21633SOL     OW76960   8.100   0.308   4.420
21633SOL    HW176961   8.089   0.250   4.501
21633SOL    HW276962   8.185   0.360   4.428
21634SOL     OW76963   8.680   0.659   4.812
21634SOL    HW176964   8.734   0.699   4.738
21634SOL    HW276965   8.718   0.688   4.900
21635SOL     OW76966   8.973   0.065   4.128
21635SOL    HW176967   8.980   0.019   4.040
21635SOL    HW276968   8.877   0.075   4.153
21636SOL     OW76969   7.949   1.380   5.491
21636SOL    HW176970   7.910   1.443   5.424
21636SOL    HW276971   8.032   1.420   5.531
21637SOL     OW76972   7.825   1.112   5.323
21637SOL    HW176973   7.844   1.136   5.228
21637SOL    HW276974   7.818   1.195   5.378
21638SOL     OW76975   7.486   1.402   4.797
21638SOL    HW176976   7.455   1.328   4.738
21638SOL    HW276977   7.418   1.420   4.868
21639SOL     OW76978   8.572   0.603   4.530
21639SOL    HW176979   8.654   0.580   4.478
21639SOL    HW276980   8.567   0.544   4.611
21640SOL     OW76981   9.172   0.630   5.366
21640SOL    HW176982   9.161   0.716   5.315
21640SOL    HW276983   9.266   0.621   5.396
21641SOL     OW76984   8.743   0.403   4.785
21641SOL    HW176985   8.717   0.500   4.791
21641SOL    HW276986   8.743   0.363   4.877
21642SOL     OW76987   8.973   0.535   5.536
21642SOL    HW176988   9.053   0.560   5.480
21642SOL    HW276989   9.004   0.500   5.624
21643SOL     OW76990   8.684   0.838   4.116
21643SOL    HW176991   8.630   0.836   4.200
21643SOL    HW276992   8.761   0.901   4.127
21644SOL     OW76993   9.137   0.871   5.231
21644SOL    HW176994   9.039   0.892   5.233
21644SOL    HW276995   9.186   0.947   5.190
21645SOL     OW76996   8.991   0.291   3.910
21645SOL    HW176997   8.996   0.333   4.001
21645SOL    HW276998   8.924   0.216   3.912
21646SOL     OW76999   8.138   1.506   5.130
21646SOL    HW177000   8.075   1.584   5.137
21646SOL    HW277001   8.106   1.444   5.058
21647SOL     OW77002   7.529   0.301   5.395
21647SOL    HW177003   7.547   0.290   5.297
21647SOL    HW277004   7.431   0.297   5.412
21648SOL     OW77005   7.409   1.715   5.339
21648SOL    HW177006   7.481   1.701   5.407
21648SOL    HW277007   7.320   1.718   5.384
21649SOL     OW77008   7.577   0.371   4.363
21649SOL    HW177009   7.520   0.426   4.424
21649SOL    HW277010   7.647   0.323   4.416
21650SOL     OW77011   8.749   1.603   5.226
21650SOL    HW177012   8.702   1.671   5.281
21650SOL    HW277013   8.816   1.649   5.167
21651SOL     OW77014   7.714   0.562   3.961
21651SOL    HW177015   7.786   0.591   3.898
21651SOL    HW277016   7.670   0.642   4.001
21652SOL     OW77017   9.100   0.224   5.064
21652SOL    HW177018   9.056   0.272   5.140
21652SOL    HW277019   9.078   0.270   4.978
21653SOL     OW77020   7.829   1.825   4.427
21653SOL    HW177021   7.753   1.791   4.372
21653SOL    HW277022   7.915   1.788   4.392
21654SOL     OW77023   7.754   1.334   4.872
21654SOL    HW177024   7.766   1.350   4.969
21654SOL    HW277025   7.667   1.374   4.842
21655SOL     OW77026   8.638   1.538   5.518
21655SOL    HW177027   8.597   1.453   5.484
21655SOL    HW277028   8.618   1.612   5.454
21656SOL     OW77029   8.128   1.258   4.208
21656SOL    HW177030   8.171   1.189   4.150
21656SOL    HW277031   8.092   1.215   4.291
21657SOL     OW77032   7.760   0.809   4.410
21657SOL    HW177033   7.752   0.907   4.428
21657SOL    HW277034   7.844   0.775   4.451
21658SOL     OW77035   7.606   0.289   3.925
21658SOL    HW177036   7.650   0.258   3.842
21658SOL    HW277037   7.607   0.389   3.929
21659SOL     OW77038   7.459   0.541   4.536
21659SOL    HW177039   7.423   0.634   4.528
21659SOL    HW277040   7.542   0.542   4.592
21660SOL     OW77041   7.894   1.128   3.922
21660SOL    HW177042   7.994   1.128   3.933
21660SOL    HW277043   7.863   1.221   3.901
21661SOL     OW77044   8.520   0.720   3.738
21661SOL    HW177045   8.451   0.777   3.694
21661SOL    HW277046   8.601   0.714   3.679
21662SOL     OW77047   8.255   0.639   3.881
21662SOL    HW177048   8.345   0.640   3.836
21662SOL    HW277049   8.232   0.545   3.906
21663SOL     OW77050   8.706   0.156   4.175
21663SOL    HW177051   8.616   0.140   4.216
21663SOL    HW277052   8.714   0.252   4.149
21664SOL     OW77053   8.820   0.556   5.191
21664SOL    HW177054   8.772   0.579   5.275
21664SOL    HW277055   8.754   0.526   5.122
21665SOL     OW77056   7.455   0.071   3.835
21665SOL    HW177057   7.518  -0.006   3.843
21665SOL    HW277058   7.475   0.139   3.906
21666SOL     OW77059   7.728   1.046   4.836
21666SOL    HW177060   7.739   1.001   4.925
21666SOL    HW277061   7.755   1.142   4.843
21667SOL     OW77062   9.027   1.058   3.936
21667SOL    HW177063   9.098   1.128   3.938
21667SOL    HW277064   9.014   1.028   3.841
21668SOL     OW77065   8.009   0.659   4.858
21668SOL    HW177066   8.084   0.702   4.907
21668SOL    HW277067   7.942   0.624   4.924
21669SOL     OW77068   8.152   1.028   5.175
21669SOL    HW177069   8.221   1.080   5.125
21669SOL    HW277070   8.147   1.061   5.270
21670SOL     OW77071   8.544   1.049   5.335
21670SOL    HW177072   8.466   0.995   5.368
21670SOL    HW277073   8.625   1.027   5.390
21671SOL     OW77074   8.473   0.231   4.331
21671SOL    HW177075   8.532   0.291   4.386
21671SOL    HW277076   8.400   0.195   4.388
21672SOL     OW77077   8.583   1.763   5.371
21672SOL    HW177078   8.488   1.761   5.339
21672SOL    HW277079   8.604   1.854   5.408
21673SOL     OW77080   8.001   0.108   4.602
21673SOL    HW177081   7.929   0.041   4.588
21673SOL    HW277082   8.083   0.062   4.637
21674SOL     OW77083   7.701   1.773   4.969
21674SOL    HW177084   7.681   1.755   4.873
21674SOL    HW277085   7.628   1.735   5.026
21675SOL     OW77086   8.394   1.237   4.514
21675SOL    HW177087   8.433   1.280   4.433
21675SOL    HW277088   8.467   1.220   4.581
21676SOL     OW77089   8.088   0.965   4.716
21676SOL    HW177090   8.086   0.881   4.661
21676SOL    HW277091   8.037   0.951   4.801
21677SOL     OW77092   7.427   0.975   4.842
21677SOL    HW177093   7.516   0.953   4.882
21677SOL    HW277094   7.372   0.891   4.838
21678SOL     OW77095   7.655   0.020   4.122
21678SOL    HW177096   7.693   0.108   4.149
21678SOL    HW277097   7.578  -0.004   4.182
21679SOL     OW77098   8.071   0.637   5.450
21679SOL    HW177099   8.023   0.688   5.379
21679SOL    HW277100   8.164   0.616   5.420
21680SOL     OW77101   7.477   1.107   3.942
21680SOL    HW177102   7.467   1.010   3.921
21680SOL    HW277103   7.530   1.152   3.870
21681SOL     OW77104   9.174   0.219   4.543
21681SOL    HW177105   9.129   0.201   4.630
21681SOL    HW277106   9.272   0.236   4.559
21682SOL     OW77107   8.222   1.195   4.795
21682SOL    HW177108   8.173   1.110   4.776
21682SOL    HW277109   8.292   1.210   4.726
21683SOL     OW77110   8.560   0.618   4.004
21683SOL    HW177111   8.612   0.690   4.050
21683SOL    HW277112   8.573   0.625   3.906
21684SOL     OW77113   8.921   1.433   5.331
21684SOL    HW177114   8.906   1.335   5.345
21684SOL    HW277115   8.838   1.475   5.295
21685SOL     OW77116   7.678   0.875   5.071
21685SOL    HW177117   7.642   0.785   5.097
21685SOL    HW277118   7.639   0.945   5.131
21686SOL     OW77119   8.180   1.501   3.729
21686SOL    HW177120   8.155   1.578   3.788
21686SOL    HW277121   8.244   1.441   3.777
21687SOL     OW77122   7.998   1.708   4.763
21687SOL    HW177123   8.018   1.678   4.670
21687SOL    HW277124   7.923   1.653   4.800
21688SOL     OW77125   8.141   1.119   4.480
21688SOL    HW177126   8.230   1.165   4.480
21688SOL    HW277127   8.134   1.059   4.559
21689SOL     OW77128   8.319   1.466   4.149
21689SOL    HW177129   8.369   1.454   4.064
21689SOL    HW277130   8.265   1.383   4.168
21690SOL     OW77131   7.509   0.813   4.549
21690SOL    HW177132   7.604   0.804   4.517
21690SOL    HW277133   7.475   0.905   4.528
21691SOL     OW77134   8.343   1.839   5.182
21691SOL    HW177135   8.315   1.752   5.223
21691SOL    HW277136   8.287   1.913   5.219
21692SOL     OW77137   8.572   1.186   4.712
21692SOL    HW177138   8.556   1.280   4.743
21692SOL    HW277139   8.575   1.125   4.792
21693SOL     OW77140   7.846   0.457   5.476
21693SOL    HW177141   7.882   0.404   5.399
21693SOL    HW277142   7.907   0.534   5.494
21694SOL     OW77143   7.910   0.874   4.048
21694SOL    HW177144   7.860   0.939   3.992
21694SOL    HW277145   7.852   0.795   4.067
21695SOL     OW77146   8.991   0.905   4.746
21695SOL    HW177147   9.010   0.944   4.655
21695SOL    HW277148   8.945   0.974   4.802
21696SOL     OW77149   8.683   0.348   5.042
21696SOL    HW177150   8.754   0.320   5.106
21696SOL    HW277151   8.630   0.268   5.014
21697SOL     OW77152   7.384   0.047   4.243
21697SOL    HW177153   7.297   0.034   4.196
21697SOL    HW277154   7.392   0.142   4.273
21698SOL     OW77155   8.605   0.148   5.484
21698SOL    HW177156   8.664   0.164   5.564
21698SOL    HW277157   8.552   0.231   5.465
21699SOL     OW77158   7.821   1.567   5.309
21699SOL    HW177159   7.763   1.632   5.358
21699SOL    HW277160   7.883   1.617   5.249
21700SOL     OW77161   9.177   1.454   5.250
21700SOL    HW177162   9.205   1.547   5.272
21700SOL    HW277163   9.084   1.438   5.283
21701SOL     OW77164   8.427   0.567   4.800
21701SOL    HW177165   8.513   0.618   4.799
21701SOL    HW277166   8.433   0.493   4.867
21702SOL     OW77167   7.831   1.513   4.372
21702SOL    HW177168   7.829   1.414   4.385
21702SOL    HW277169   7.740   1.546   4.349
21703SOL     OW77170   8.472   1.630   4.960
21703SOL    HW177171   8.398   1.694   4.978
21703SOL    HW277172   8.551   1.679   4.922
21704SOL     OW77173   7.681   1.760   5.459
21704SOL    HW177174   7.724   1.844   5.425
21704SOL    HW277175   7.706   1.747   5.555
21705SOL     OW77176   7.541   1.296   5.330
21705SOL    HW177177   7.520   1.201   5.303
21705SOL    HW277178   7.472   1.357   5.292
21706SOL     OW77179   7.630   1.661   4.734
21706SOL    HW177180   7.572   1.581   4.748
21706SOL    HW277181   7.654   1.668   4.637
21707SOL     OW77182   8.376   0.182   4.589
21707SOL    HW177183   8.472   0.183   4.617
21707SOL    HW277184   8.321   0.139   4.661
21708SOL     OW77185   8.438   1.188   4.105
21708SOL    HW177186   8.518   1.224   4.153
21708SOL    HW277187   8.396   1.115   4.161
21709SOL     OW77188   8.172   1.127   3.955
21709SOL    HW177189   8.244   1.186   3.920
21709SOL    HW277190   8.212   1.043   3.991
21710SOL     OW77191   8.243   0.103   3.807
21710SOL    HW177192   8.318   0.037   3.819
21710SOL    HW277193   8.274   0.194   3.835
21711SOL     OW77194   7.922   0.532   4.419
21711SOL    HW177195   7.960   0.443   4.445
21711SOL    HW277196   7.989   0.582   4.364
21712SOL     OW77197   7.910   1.090   5.073
21712SOL    HW177198   8.006   1.070   5.093
21712SOL    HW277199   7.899   1.188   5.055
21713SOL     OW77200   9.132   1.133   5.042
21713SOL    HW177201   9.146   1.231   5.056
21713SOL    HW277202   9.189   1.102   4.966
21714SOL     OW77203   7.615   1.242   3.734
21714SOL    HW177204   7.607   1.254   3.635
21714SOL    HW277205   7.674   1.313   3.772
21715SOL     OW77206   8.042   1.681   3.894
21715SOL    HW177207   8.017   1.776   3.878
21715SOL    HW277208   8.009   1.653   3.984
21716SOL     OW77209   8.692   1.104   5.118
21716SOL    HW177210   8.636   1.063   5.189
21716SOL    HW277211   8.672   1.202   5.112
21717SOL     OW77212   7.959   1.720   5.118
21717SOL    HW177213   8.008   1.800   5.082
21717SOL    HW277214   7.867   1.718   5.079
21718SOL     OW77215   7.602   0.601   5.480
21718SOL    HW177216   7.619   0.502   5.485
21718SOL    HW277217   7.666   0.649   5.541
21719SOL     OW77218   9.041   1.562   4.719
21719SOL    HW177219   9.013   1.655   4.743
21719SOL    HW277220   9.091   1.521   4.795
21720SOL     OW77221   7.437   0.935   4.280
21720SOL    HW177222   7.444   1.034   4.267
21720SOL    HW277223   7.346   0.912   4.314
21721SOL     OW77224   7.946   0.733   5.218
21721SOL    HW177225   7.852   0.703   5.199
21721SOL    HW277226   7.955   0.830   5.195
21722SOL     OW77227   9.013   1.109   4.530
21722SOL    HW177228   8.975   1.198   4.503
21722SOL    HW277229   9.013   1.047   4.452
21723SOL     OW77230   8.171   0.515   4.699
21723SOL    HW177231   8.263   0.543   4.726
21723SOL    HW277232   8.103   0.566   4.753
21724SOL     OW77233   8.024   1.366   4.926
21724SOL    HW177234   7.937   1.365   4.877
21724SOL    HW277235   8.090   1.306   4.879
21725SOL     OW77236   7.590   0.708   4.840
21725SOL    HW177237   7.628   0.767   4.911
21725SOL    HW277238   7.573   0.761   4.758
21726SOL     OW77239   7.761   1.354   5.138
21726SOL    HW177240   7.780   1.442   5.182
21726SOL    HW277241   7.666   1.328   5.156
21727SOL     OW77242   9.004   1.670   5.486
21727SOL    HW177243   8.973   1.592   5.431
21727SOL    HW277244   8.973   1.755   5.444
21728SOL     OW77245   8.712   1.208   4.207
21728SOL    HW177246   8.811   1.212   4.223
21728SOL    HW277247   8.695   1.194   4.109
21729SOL     OW77248   8.065   0.374   4.155
21729SOL    HW177249   7.967   0.368   4.135
21729SOL    HW277250   8.084   0.331   4.243
21730SOL     OW77251   8.985   0.057   4.414
21730SOL    HW177252   8.980   0.098   4.323
21730SOL    HW277253   9.066   0.091   4.461
21731SOL     OW77254   8.588   0.813   5.107
21731SOL    HW177255   8.687   0.822   5.097
21731SOL    HW277256   8.544   0.815   5.017
21732SOL     OW77257   8.082   0.773   4.509
21732SOL    HW177258   8.104   0.695   4.567
21732SOL    HW277259   8.091   0.747   4.413
21733SOL     OW77260   8.747   1.480   4.721
21733SOL    HW177261   8.661   1.437   4.750
21733SOL    HW277262   8.736   1.520   4.630
21734SOL     OW77263   8.750   0.465   4.396
21734SOL    HW177264   8.749   0.457   4.297
21734SOL    HW277265   8.839   0.437   4.431
21735SOL     OW77266   8.477   1.481   6.228
21735SOL    HW177267   8.568   1.515   6.251
21735SOL    HW277268   8.449   1.519   6.140
21736SOL     OW77269   7.735   0.196   5.555
21736SOL    HW177270   7.648   0.193   5.506
21736SOL    HW277271   7.786   0.278   5.527
21737SOL     OW77272   8.722   1.585   6.330
21737SOL    HW177273   8.711   1.682   6.353
21737SOL    HW277274   8.815   1.568   6.300
21738SOL     OW77275   8.600   0.096   6.888
21738SOL    HW177276   8.524   0.051   6.935
21738SOL    HW277277   8.629   0.041   6.810
21739SOL     OW77278   8.338   0.876   7.265
21739SOL    HW177279   8.303   0.851   7.175
21739SOL    HW277280   8.262   0.897   7.326
21740SOL     OW77281   7.945   1.550   5.959
21740SOL    HW177282   7.901   1.559   6.048
21740SOL    HW277283   8.016   1.480   5.963
21741SOL     OW77284   7.963   0.083   5.681
21741SOL    HW177285   8.051   0.111   5.642
21741SOL    HW277286   7.891   0.146   5.651
21742SOL     OW77287   8.933   1.068   7.064
21742SOL    HW177288   8.841   1.073   7.026
21742SOL    HW277289   8.998   1.106   6.998
21743SOL     OW77290   8.329   1.330   7.045
21743SOL    HW177291   8.272   1.393   6.991
21743SOL    HW277292   8.362   1.256   6.986
21744SOL     OW77293   7.872   1.223   6.254
21744SOL    HW177294   7.805   1.177   6.313
21744SOL    HW277295   7.964   1.191   6.277
21745SOL     OW77296   8.719   0.537   7.294
21745SOL    HW177297   8.815   0.541   7.320
21745SOL    HW277298   8.675   0.461   7.341
21746SOL     OW77299   7.802   1.392   5.738
21746SOL    HW177300   7.866   1.408   5.663
21746SOL    HW277301   7.826   1.450   5.816
21747SOL     OW77302   7.953   0.348   6.548
21747SOL    HW177303   8.029   0.413   6.544
21747SOL    HW277304   7.983   0.259   6.515
21748SOL     OW77305   8.236   1.719   6.143
21748SOL    HW177306   8.301   1.652   6.107
21748SOL    HW277307   8.226   1.795   6.079
21749SOL     OW77308   9.128   1.601   5.885
21749SOL    HW177309   9.224   1.575   5.878
21749SOL    HW277310   9.104   1.661   5.809
21750SOL     OW77311   7.564   1.036   7.110
21750SOL    HW177312   7.660   1.051   7.128
21750SOL    HW277313   7.526   0.974   7.179
21751SOL     OW77314   7.890   0.681   5.653
21751SOL    HW177315   7.850   0.760   5.606
21751SOL    HW277316   7.979   0.660   5.613
21752SOL     OW77317   8.063   1.605   6.351
21752SOL    HW177318   8.136   1.628   6.287
21752SOL    HW277319   7.992   1.552   6.305
21753SOL     OW77320   8.405   0.637   7.105
21753SOL    HW177321   8.438   0.554   7.152
21753SOL    HW277322   8.478   0.705   7.104
21754SOL     OW77323   7.740   1.258   6.003
21754SOL    HW177324   7.786   1.232   6.088
21754SOL    HW277325   7.760   1.190   5.932
21755SOL     OW77326   7.750   0.518   6.809
21755SOL    HW177327   7.740   0.431   6.761
21755SOL    HW277328   7.686   0.585   6.772
21756SOL     OW77329   8.832   0.798   6.847
21756SOL    HW177330   8.836   0.892   6.812
21756SOL    HW277331   8.925   0.767   6.869
21757SOL     OW77332   7.785   0.290   5.968
21757SOL    HW177333   7.739   0.330   6.047
21757SOL    HW277334   7.733   0.309   5.886
21758SOL     OW77335   8.913   1.817   6.880
21758SOL    HW177336   8.856   1.768   6.814
21758SOL    HW277337   8.999   1.844   6.837
21759SOL     OW77338   8.415   0.387   7.348
21759SOL    HW177339   8.478   0.392   7.425
21759SOL    HW277340   8.323   0.365   7.381
21760SOL     OW77341   8.450   1.772   5.714
21760SOL    HW177342   8.484   1.685   5.679
21760SOL    HW277343   8.418   1.760   5.808
21761SOL     OW77344   8.131   0.039   7.246
21761SOL    HW177345   8.138  -0.055   7.213
21761SOL    HW277346   8.188   0.049   7.328
21762SOL     OW77347   8.464   1.306   7.280
21762SOL    HW177348   8.486   1.216   7.242
21762SOL    HW277349   8.399   1.353   7.221
21763SOL     OW77350   8.119   1.148   7.284
21763SOL    HW177351   8.090   1.225   7.341
21763SOL    HW277352   8.129   1.067   7.342
21764SOL     OW77353   8.754   0.012   6.390
21764SOL    HW177354   8.703   0.096   6.372
21764SOL    HW277355   8.840   0.014   6.339
21765SOL     OW77356   7.733   0.210   6.384
21765SOL    HW177357   7.785   0.250   6.459
21765SOL    HW277358   7.786   0.137   6.341
21766SOL     OW77359   7.717   0.258   6.718
21766SOL    HW177360   7.682   0.165   6.718
21766SOL    HW277361   7.804   0.261   6.669
21767SOL     OW77362   7.585   1.507   5.917
21767SOL    HW177363   7.612   1.413   5.937
21767SOL    HW277364   7.610   1.529   5.823
21768SOL     OW77365   7.599   1.650   6.154
21768SOL    HW177366   7.515   1.701   6.172
21768SOL    HW277367   7.590   1.599   6.069
21769SOL     OW77368   7.872   0.947   5.556
21769SOL    HW177369   7.841   0.981   5.468
21769SOL    HW277370   7.876   1.022   5.622
21770SOL     OW77371   8.244   1.824   6.577
21770SOL    HW177372   8.290   1.757   6.519
21770SOL    HW277373   8.170   1.780   6.627
21771SOL     OW77374   8.151   0.893   5.613
21771SOL    HW177375   8.180   0.812   5.664
21771SOL    HW277376   8.051   0.892   5.604
21772SOL     OW77377   7.644   0.626   7.059
21772SOL    HW177378   7.664   0.531   7.034
21772SOL    HW277379   7.607   0.629   7.152
21773SOL     OW77380   7.526   0.281   6.949
21773SOL    HW177381   7.598   0.291   6.880
21773SOL    HW277382   7.437   0.280   6.904
21774SOL     OW77383   9.015   0.436   6.029
21774SOL    HW177384   9.111   0.407   6.026
21774SOL    HW277385   8.976   0.414   6.118
21775SOL     OW77386   8.299   1.511   6.466
21775SOL    HW177387   8.357   1.522   6.385
21775SOL    HW277388   8.205   1.535   6.444
21776SOL     OW77389   8.360   1.322   5.686
21776SOL    HW177390   8.413   1.262   5.746
21776SOL    HW277391   8.399   1.323   5.595
21777SOL     OW77392   9.111   1.617   6.171
21777SOL    HW177393   9.078   1.710   6.190
21777SOL    HW277394   9.109   1.601   6.072
21778SOL     OW77395   8.274   1.616   7.184
21778SOL    HW177396   8.262   1.547   7.113
21778SOL    HW277397   8.237   1.581   7.271
21779SOL     OW77398   7.674   1.059   6.409
21779SOL    HW177399   7.597   1.121   6.402
21779SOL    HW277400   7.711   1.060   6.502
21780SOL     OW77401   8.307   1.007   6.108
21780SOL    HW177402   8.294   0.918   6.065
21780SOL    HW277403   8.238   1.021   6.179
21781SOL     OW77404   7.418   0.312   6.011
21781SOL    HW177405   7.478   0.263   5.949
21781SOL    HW277406   7.473   0.364   6.076
21782SOL     OW77407   9.041   1.810   5.702
21782SOL    HW177408   9.131   1.854   5.704
21782SOL    HW277409   9.040   1.741   5.630
21783SOL     OW77410   8.205   0.777   6.860
21783SOL    HW177411   8.207   0.863   6.911
21783SOL    HW277412   8.262   0.709   6.907
21784SOL     OW77413   8.223   0.823   5.925
21784SOL    HW177414   8.134   0.851   5.890
21784SOL    HW277415   8.264   0.757   5.861
21785SOL     OW77416   7.745   0.541   6.464
21785SOL    HW177417   7.801   0.534   6.381
21785SOL    HW277418   7.802   0.519   6.544
21786SOL     OW77419   7.742   1.739   5.735
21786SOL    HW177420   7.834   1.769   5.710
21786SOL    HW277421   7.717   1.778   5.824
21787SOL     OW77422   8.718   1.761   6.672
21787SOL    HW177423   8.737   1.824   6.598
21787SOL    HW277424   8.726   1.667   6.639
21788SOL     OW77425   7.423   1.156   6.484
21788SOL    HW177426   7.333   1.172   6.445
21788SOL    HW277427   7.421   1.072   6.539
21789SOL     OW77428   8.174   0.061   5.934
21789SOL    HW177429   8.135   0.050   5.843
21789SOL    HW277430   8.130   0.137   5.981
21790SOL     OW77431   7.419   1.197   6.028
21790SOL    HW177432   7.497   1.255   6.052
21790SOL    HW277433   7.438   1.148   5.943
21791SOL     OW77434   8.100   0.308   6.265
21791SOL    HW177435   8.089   0.250   6.346
21791SOL    HW277436   8.185   0.360   6.273
21792SOL     OW77437   8.973   0.065   5.973
21792SOL    HW177438   8.980   0.019   5.885
21792SOL    HW277439   8.877   0.075   5.998
21793SOL     OW77440   7.949   1.380   7.336
21793SOL    HW177441   7.910   1.443   7.269
21793SOL    HW277442   8.032   1.420   7.376
21794SOL     OW77443   7.825   1.112   7.168
21794SOL    HW177444   7.844   1.136   7.073
21794SOL    HW277445   7.818   1.195   7.223
21795SOL     OW77446   7.486   1.402   6.642
21795SOL    HW177447   7.455   1.328   6.583
21795SOL    HW277448   7.418   1.420   6.713
21796SOL     OW77449   9.172   0.630   7.211
21796SOL    HW177450   9.161   0.716   7.160
21796SOL    HW277451   9.266   0.621   7.241
21797SOL     OW77452   8.973   0.535   7.381
21797SOL    HW177453   9.053   0.560   7.325
21797SOL    HW277454   9.004   0.500   7.469
21798SOL     OW77455   9.137   0.871   7.076
21798SOL    HW177456   9.039   0.892   7.078
21798SOL    HW277457   9.186   0.947   7.035
21799SOL     OW77458   8.138   1.506   6.975
21799SOL    HW177459   8.075   1.584   6.982
21799SOL    HW277460   8.106   1.444   6.903
21800SOL     OW77461   7.529   0.301   7.240
21800SOL    HW177462   7.547   0.290   7.142
21800SOL    HW277463   7.431   0.297   7.257
21801SOL     OW77464   8.749   1.603   7.071
21801SOL    HW177465   8.702   1.671   7.126
21801SOL    HW277466   8.816   1.649   7.012
21802SOL     OW77467   7.714   0.562   5.806
21802SOL    HW177468   7.786   0.591   5.743
21802SOL    HW277469   7.670   0.642   5.846
21803SOL     OW77470   7.829   1.825   6.272
21803SOL    HW177471   7.753   1.791   6.217
21803SOL    HW277472   7.915   1.788   6.237
21804SOL     OW77473   7.754   1.334   6.717
21804SOL    HW177474   7.766   1.350   6.814
21804SOL    HW277475   7.667   1.374   6.687
21805SOL     OW77476   8.638   1.538   7.363
21805SOL    HW177477   8.597   1.453   7.329
21805SOL    HW277478   8.618   1.612   7.299
21806SOL     OW77479   8.128   1.258   6.053
21806SOL    HW177480   8.171   1.189   5.995
21806SOL    HW277481   8.092   1.215   6.136
21807SOL     OW77482   7.606   0.289   5.770
21807SOL    HW177483   7.650   0.258   5.687
21807SOL    HW277484   7.607   0.389   5.774
21808SOL     OW77485   7.459   0.541   6.381
21808SOL    HW177486   7.423   0.634   6.373
21808SOL    HW277487   7.542   0.542   6.437
21809SOL     OW77488   7.894   1.128   5.767
21809SOL    HW177489   7.994   1.128   5.778
21809SOL    HW277490   7.863   1.221   5.746
21810SOL     OW77491   8.520   0.720   5.583
21810SOL    HW177492   8.451   0.777   5.539
21810SOL    HW277493   8.601   0.714   5.524
21811SOL     OW77494   7.455   0.071   5.680
21811SOL    HW177495   7.518  -0.006   5.688
21811SOL    HW277496   7.475   0.139   5.751
21812SOL     OW77497   7.728   1.046   6.681
21812SOL    HW177498   7.739   1.001   6.770
21812SOL    HW277499   7.755   1.142   6.688
21813SOL     OW77500   8.009   0.659   6.703
21813SOL    HW177501   8.084   0.702   6.752
21813SOL    HW277502   7.942   0.624   6.769
21814SOL     OW77503   8.152   1.028   7.020
21814SOL    HW177504   8.221   1.080   6.970
21814SOL    HW277505   8.147   1.061   7.115
21815SOL     OW77506   8.544   1.049   7.180
21815SOL    HW177507   8.466   0.995   7.213
21815SOL    HW277508   8.625   1.027   7.235
21816SOL     OW77509   8.583   1.763   7.216
21816SOL    HW177510   8.488   1.761   7.184
21816SOL    HW277511   8.604   1.854   7.253
21817SOL     OW77512   8.001   0.108   6.447
21817SOL    HW177513   7.929   0.041   6.433
21817SOL    HW277514   8.083   0.062   6.482
21818SOL     OW77515   7.701   1.773   6.814
21818SOL    HW177516   7.681   1.755   6.718
21818SOL    HW277517   7.628   1.735   6.871
21819SOL     OW77518   8.394   1.237   6.359
21819SOL    HW177519   8.433   1.280   6.278
21819SOL    HW277520   8.467   1.220   6.426
21820SOL     OW77521   8.088   0.965   6.561
21820SOL    HW177522   8.086   0.881   6.506
21820SOL    HW277523   8.037   0.951   6.646
21821SOL     OW77524   7.427   0.975   6.687
21821SOL    HW177525   7.516   0.953   6.727
21821SOL    HW277526   7.372   0.891   6.683
21822SOL     OW77527   7.655   0.020   5.967
21822SOL    HW177528   7.693   0.108   5.994
21822SOL    HW277529   7.578  -0.004   6.027
21823SOL     OW77530   8.071   0.637   7.295
21823SOL    HW177531   8.023   0.688   7.224
21823SOL    HW277532   8.164   0.616   7.265
21824SOL     OW77533   9.174   0.219   6.388
21824SOL    HW177534   9.129   0.201   6.475
21824SOL    HW277535   9.272   0.236   6.404
21825SOL     OW77536   8.222   1.195   6.640
21825SOL    HW177537   8.173   1.110   6.621
21825SOL    HW277538   8.292   1.210   6.571
21826SOL     OW77539   7.678   0.875   6.916
21826SOL    HW177540   7.642   0.785   6.942
21826SOL    HW277541   7.639   0.945   6.976
21827SOL     OW77542   8.180   1.501   5.574
21827SOL    HW177543   8.155   1.578   5.633
21827SOL    HW277544   8.244   1.441   5.622
21828SOL     OW77545   7.998   1.708   6.608
21828SOL    HW177546   8.018   1.678   6.515
21828SOL    HW277547   7.923   1.653   6.645
21829SOL     OW77548   8.141   1.119   6.325
21829SOL    HW177549   8.230   1.165   6.325
21829SOL    HW277550   8.134   1.059   6.404
21830SOL     OW77551   8.319   1.466   5.994
21830SOL    HW177552   8.369   1.454   5.909
21830SOL    HW277553   8.265   1.383   6.013
21831SOL     OW77554   7.509   0.813   6.394
21831SOL    HW177555   7.604   0.804   6.362
21831SOL    HW277556   7.475   0.905   6.373
21832SOL     OW77557   7.446   0.930   7.321
21832SOL    HW177558   7.361   0.881   7.302
21832SOL    HW277559   7.473   0.917   7.416
21833SOL     OW77560   8.343   1.839   7.027
21833SOL    HW177561   8.315   1.752   7.068
21833SOL    HW277562   8.287   1.913   7.064
21834SOL     OW77563   7.846   0.457   7.321
21834SOL    HW177564   7.882   0.404   7.244
21834SOL    HW277565   7.907   0.534   7.339
21835SOL     OW77566   7.384   0.047   6.088
21835SOL    HW177567   7.297   0.034   6.041
21835SOL    HW277568   7.392   0.142   6.118
21836SOL     OW77569   8.605   0.148   7.329
21836SOL    HW177570   8.664   0.164   7.409
21836SOL    HW277571   8.552   0.231   7.310
21837SOL     OW77572   7.821   1.567   7.154
21837SOL    HW177573   7.763   1.632   7.203
21837SOL    HW277574   7.883   1.617   7.094
21838SOL     OW77575   9.177   1.454   7.095
21838SOL    HW177576   9.205   1.547   7.117
21838SOL    HW277577   9.084   1.438   7.128
21839SOL     OW77578   8.427   0.567   6.645
21839SOL    HW177579   8.513   0.618   6.644
21839SOL    HW277580   8.433   0.493   6.712
21840SOL     OW77581   7.831   1.513   6.217
21840SOL    HW177582   7.829   1.414   6.230
21840SOL    HW277583   7.740   1.546   6.194
21841SOL     OW77584   8.472   1.630   6.805
21841SOL    HW177585   8.398   1.694   6.823
21841SOL    HW277586   8.551   1.679   6.767
21842SOL     OW77587   7.681   1.760   7.304
21842SOL    HW177588   7.724   1.844   7.270
21842SOL    HW277589   7.706   1.747   7.400
21843SOL     OW77590   7.541   1.296   7.175
21843SOL    HW177591   7.520   1.201   7.148
21843SOL    HW277592   7.472   1.357   7.137
21844SOL     OW77593   7.630   1.661   6.579
21844SOL    HW177594   7.572   1.581   6.593
21844SOL    HW277595   7.654   1.668   6.482
21845SOL     OW77596   8.376   0.182   6.434
21845SOL    HW177597   8.472   0.183   6.462
21845SOL    HW277598   8.321   0.139   6.506
21846SOL     OW77599   8.438   1.188   5.950
21846SOL    HW177600   8.518   1.224   5.998
21846SOL    HW277601   8.396   1.115   6.006
21847SOL     OW77602   8.172   1.127   5.800
21847SOL    HW177603   8.244   1.186   5.765
21847SOL    HW277604   8.212   1.043   5.836
21848SOL     OW77605   8.243   0.103   5.652
21848SOL    HW177606   8.318   0.037   5.664
21848SOL    HW277607   8.274   0.194   5.680
21849SOL     OW77608   7.910   1.090   6.918
21849SOL    HW177609   8.006   1.070   6.938
21849SOL    HW277610   7.899   1.188   6.900
21850SOL     OW77611   7.615   1.242   5.579
21850SOL    HW177612   7.607   1.254   5.480
21850SOL    HW277613   7.674   1.313   5.617
21851SOL     OW77614   8.042   1.681   5.739
21851SOL    HW177615   8.017   1.776   5.723
21851SOL    HW277616   8.009   1.653   5.829
21852SOL     OW77617   7.959   1.720   6.963
21852SOL    HW177618   8.008   1.800   6.927
21852SOL    HW277619   7.867   1.718   6.924
21853SOL     OW77620   7.602   0.601   7.325
21853SOL    HW177621   7.619   0.502   7.330
21853SOL    HW277622   7.666   0.649   7.386
21854SOL     OW77623   7.946   0.733   7.063
21854SOL    HW177624   7.852   0.703   7.044
21854SOL    HW277625   7.955   0.830   7.040
21855SOL     OW77626   8.171   0.515   6.544
21855SOL    HW177627   8.263   0.543   6.571
21855SOL    HW277628   8.103   0.566   6.598
21856SOL     OW77629   8.024   1.366   6.771
21856SOL    HW177630   7.937   1.365   6.722
21856SOL    HW277631   8.090   1.306   6.724
21857SOL     OW77632   7.590   0.708   6.685
21857SOL    HW177633   7.628   0.767   6.756
21857SOL    HW277634   7.573   0.761   6.603
21858SOL     OW77635   7.761   1.354   6.983
21858SOL    HW177636   7.780   1.442   7.027
21858SOL    HW277637   7.666   1.328   7.001
21859SOL     OW77638   9.004   1.670   7.331
21859SOL    HW177639   8.973   1.592   7.276
21859SOL    HW277640   8.973   1.755   7.289
21860SOL     OW77641   8.985   0.057   6.259
21860SOL    HW177642   8.980   0.098   6.168
21860SOL    HW277643   9.066   0.091   6.306
21861SOL     OW77644   8.588   0.813   6.952
21861SOL    HW177645   8.687   0.822   6.942
21861SOL    HW277646   8.544   0.815   6.862
21862SOL     OW77647   8.477   1.481   8.074
21862SOL    HW177648   8.568   1.515   8.097
21862SOL    HW277649   8.449   1.519   7.986
21863SOL     OW77650   8.988   1.277   7.932
21863SOL    HW177651   8.999   1.361   7.986
21863SOL    HW277652   9.078   1.240   7.909
21864SOL     OW77653   9.068   0.559   8.796
21864SOL    HW177654   8.970   0.551   8.818
21864SOL    HW277655   9.121   0.548   8.880
21865SOL     OW77656   7.735   0.196   7.401
21865SOL    HW177657   7.648   0.193   7.352
21865SOL    HW277658   7.786   0.278   7.373
21866SOL     OW77659   8.722   1.585   8.176
21866SOL    HW177660   8.711   1.682   8.199
21866SOL    HW277661   8.815   1.568   8.146
21867SOL     OW77662   8.600   0.096   8.734
21867SOL    HW177663   8.524   0.051   8.781
21867SOL    HW277664   8.629   0.041   8.656
21868SOL     OW77665   8.338   0.876   9.111
21868SOL    HW177666   8.303   0.851   9.021
21868SOL    HW277667   8.262   0.897   9.172
21869SOL     OW77668   7.945   1.550   7.805
21869SOL    HW177669   7.901   1.559   7.894
21869SOL    HW277670   8.016   1.480   7.809
21870SOL     OW77671   7.963   0.083   7.527
21870SOL    HW177672   8.051   0.111   7.488
21870SOL    HW277673   7.891   0.146   7.497
21871SOL     OW77674   8.329   1.330   8.891
21871SOL    HW177675   8.272   1.393   8.837
21871SOL    HW277676   8.362   1.256   8.832
21872SOL     OW77677   7.872   1.223   8.100
21872SOL    HW177678   7.805   1.177   8.159
21872SOL    HW277679   7.964   1.191   8.123
21873SOL     OW77680   8.719   0.537   9.140
21873SOL    HW177681   8.815   0.541   9.166
21873SOL    HW277682   8.675   0.461   9.187
21874SOL     OW77683   7.802   1.392   7.584
21874SOL    HW177684   7.866   1.408   7.509
21874SOL    HW277685   7.826   1.450   7.662
21875SOL     OW77686   7.953   0.348   8.394
21875SOL    HW177687   8.029   0.413   8.390
21875SOL    HW277688   7.983   0.259   8.361
21876SOL     OW77689   7.650   0.774   7.812
21876SOL    HW177690   7.665   0.708   7.886
21876SOL    HW277691   7.600   0.853   7.847
21877SOL     OW77692   8.236   1.719   7.989
21877SOL    HW177693   8.301   1.652   7.953
21877SOL    HW277694   8.226   1.795   7.925
21878SOL     OW77695   9.128   1.601   7.731
21878SOL    HW177696   9.224   1.575   7.724
21878SOL    HW277697   9.104   1.661   7.655
21879SOL     OW77698   9.040   0.294   8.502
21879SOL    HW177699   9.091   0.366   8.455
21879SOL    HW277700   8.945   0.321   8.511
21880SOL     OW77701   7.564   1.036   8.956
21880SOL    HW177702   7.660   1.051   8.974
21880SOL    HW277703   7.526   0.974   9.025
21881SOL     OW77704   7.890   0.681   7.499
21881SOL    HW177705   7.850   0.760   7.452
21881SOL    HW277706   7.979   0.660   7.459
21882SOL     OW77707   8.063   1.605   8.197
21882SOL    HW177708   8.136   1.628   8.133
21882SOL    HW277709   7.992   1.552   8.151
21883SOL     OW77710   8.405   0.637   8.951
21883SOL    HW177711   8.438   0.554   8.998
21883SOL    HW277712   8.478   0.705   8.950
21884SOL     OW77713   9.009   1.437   8.173
21884SOL    HW177714   9.005   1.472   8.266
21884SOL    HW277715   9.068   1.496   8.117
21885SOL     OW77716   7.740   1.258   7.849
21885SOL    HW177717   7.786   1.232   7.934
21885SOL    HW277718   7.760   1.190   7.778
21886SOL     OW77719   8.598   0.313   7.560
21886SOL    HW177720   8.692   0.283   7.578
21886SOL    HW277721   8.546   0.313   7.646
21887SOL     OW77722   7.750   0.518   8.655
21887SOL    HW177723   7.740   0.431   8.607
21887SOL    HW277724   7.686   0.585   8.618
21888SOL     OW77725   7.785   0.290   7.814
21888SOL    HW177726   7.739   0.330   7.893
21888SOL    HW277727   7.733   0.309   7.732
21889SOL     OW77728   8.913   1.817   8.726
21889SOL    HW177729   8.856   1.768   8.660
21889SOL    HW277730   8.999   1.844   8.683
21890SOL     OW77731   9.208   0.535   8.581
21890SOL    HW177732   9.265   0.617   8.583
21890SOL    HW277733   9.149   0.534   8.661
21891SOL     OW77734   9.225   1.761   8.494
21891SOL    HW177735   9.271   1.771   8.582
21891SOL    HW277736   9.292   1.764   8.421
21892SOL     OW77737   8.573   0.965   7.573
21892SOL    HW177738   8.610   0.915   7.651
21892SOL    HW277739   8.503   0.910   7.528
21893SOL     OW77740   8.415   0.387   9.194
21893SOL    HW177741   8.478   0.392   9.271
21893SOL    HW277742   8.323   0.365   9.227
21894SOL     OW77743   9.156   0.634   7.652
21894SOL    HW177744   9.177   0.553   7.598
21894SOL    HW277745   9.173   0.615   7.749
21895SOL     OW77746   8.450   1.772   7.560
21895SOL    HW177747   8.484   1.685   7.525
21895SOL    HW277748   8.418   1.760   7.654
21896SOL     OW77749   8.131   0.039   9.092
21896SOL    HW177750   8.138  -0.055   9.059
21896SOL    HW277751   8.188   0.049   9.174
21897SOL     OW77752   9.054   0.640   8.360
21897SOL    HW177753   9.039   0.731   8.397
21897SOL    HW277754   9.124   0.593   8.414
21898SOL     OW77755   8.464   1.306   9.126
21898SOL    HW177756   8.486   1.216   9.088
21898SOL    HW277757   8.399   1.353   9.067
21899SOL     OW77758   8.119   1.148   9.130
21899SOL    HW177759   8.090   1.225   9.187
21899SOL    HW277760   8.129   1.067   9.188
21900SOL     OW77761   8.754   0.012   8.236
21900SOL    HW177762   8.703   0.096   8.218
21900SOL    HW277763   8.840   0.014   8.185
21901SOL     OW77764   9.109   0.218   9.165
21901SOL    HW177765   9.086   0.239   9.260
21901SOL    HW277766   9.085   0.123   9.145
21902SOL     OW77767   7.412   0.622   7.909
21902SOL    HW177768   7.414   0.573   7.996
21902SOL    HW277769   7.414   0.721   7.927
21903SOL     OW77770   7.733   0.210   8.230
21903SOL    HW177771   7.785   0.250   8.305
21903SOL    HW277772   7.786   0.137   8.187
21904SOL     OW77773   7.717   0.258   8.564
21904SOL    HW177774   7.682   0.165   8.564
21904SOL    HW277775   7.804   0.261   8.515
21905SOL     OW77776   7.585   1.507   7.763
21905SOL    HW177777   7.612   1.413   7.783
21905SOL    HW277778   7.610   1.529   7.669
21906SOL     OW77779   7.599   1.650   8.000
21906SOL    HW177780   7.515   1.701   8.018
21906SOL    HW277781   7.590   1.599   7.915
21907SOL     OW77782   7.872   0.947   7.402
21907SOL    HW177783   7.841   0.981   7.314
21907SOL    HW277784   7.876   1.022   7.468
21908SOL     OW77785   7.476   0.839   7.575
21908SOL    HW177786   7.536   0.786   7.635
21908SOL    HW277787   7.382   0.807   7.587
21909SOL     OW77788   8.996   0.837   7.775
21909SOL    HW177789   9.064   0.771   7.742
21909SOL    HW277790   9.011   0.925   7.731
21910SOL     OW77791   8.151   0.893   7.459
21910SOL    HW177792   8.180   0.812   7.510
21910SOL    HW277793   8.051   0.892   7.450
21911SOL     OW77794   7.526   0.281   8.795
21911SOL    HW177795   7.598   0.291   8.726
21911SOL    HW277796   7.437   0.280   8.750
21912SOL     OW77797   9.015   0.436   7.875
21912SOL    HW177798   9.111   0.407   7.872
21912SOL    HW277799   8.976   0.414   7.964
21913SOL     OW77800   8.299   1.511   8.312
21913SOL    HW177801   8.357   1.522   8.231
21913SOL    HW277802   8.205   1.535   8.290
21914SOL     OW77803   8.249   0.377   7.597
21914SOL    HW177804   8.158   0.390   7.635
21914SOL    HW277805   8.309   0.337   7.667
21915SOL     OW77806   8.360   1.322   7.532
21915SOL    HW177807   8.413   1.262   7.592
21915SOL    HW277808   8.399   1.323   7.441
21916SOL     OW77809   9.111   1.617   8.017
21916SOL    HW177810   9.078   1.710   8.036
21916SOL    HW277811   9.109   1.601   7.918
21917SOL     OW77812   8.526   0.890   8.006
21917SOL    HW177813   8.591   0.918   8.077
21917SOL    HW277814   8.447   0.951   8.008
21918SOL     OW77815   8.274   1.616   9.030
21918SOL    HW177816   8.262   1.547   8.959
21918SOL    HW277817   8.237   1.581   9.117
21919SOL     OW77818   7.674   1.059   8.255
21919SOL    HW177819   7.597   1.121   8.248
21919SOL    HW277820   7.711   1.060   8.348
21920SOL     OW77821   8.307   1.007   7.954
21920SOL    HW177822   8.294   0.918   7.911
21920SOL    HW277823   8.238   1.021   8.025
21921SOL     OW77824   7.418   0.312   7.857
21921SOL    HW177825   7.478   0.263   7.795
21921SOL    HW277826   7.473   0.364   7.922
21922SOL     OW77827   9.041   1.810   7.548
21922SOL    HW177828   9.131   1.854   7.550
21922SOL    HW277829   9.040   1.741   7.476
21923SOL     OW77830   8.205   0.777   8.706
21923SOL    HW177831   8.207   0.863   8.757
21923SOL    HW277832   8.262   0.709   8.753
21924SOL     OW77833   7.442   1.804   8.777
21924SOL    HW177834   7.450   1.904   8.775
21924SOL    HW277835   7.418   1.775   8.870
21925SOL     OW77836   8.223   0.823   7.771
21925SOL    HW177837   8.134   0.851   7.736
21925SOL    HW277838   8.264   0.757   7.707
21926SOL     OW77839   7.745   0.541   8.310
21926SOL    HW177840   7.801   0.534   8.227
21926SOL    HW277841   7.802   0.519   8.390
21927SOL     OW77842   7.742   1.739   7.581
21927SOL    HW177843   7.834   1.769   7.556
21927SOL    HW277844   7.717   1.778   7.670
21928SOL     OW77845   8.718   1.761   8.518
21928SOL    HW177846   8.737   1.824   8.444
21928SOL    HW277847   8.726   1.667   8.485
21929SOL     OW77848   7.423   1.156   8.330
21929SOL    HW177849   7.333   1.172   8.291
21929SOL    HW277850   7.421   1.072   8.385
21930SOL     OW77851   7.419   1.197   7.874
21930SOL    HW177852   7.497   1.255   7.898
21930SOL    HW277853   7.438   1.148   7.789
21931SOL     OW77854   8.949   0.325   8.958
21931SOL    HW177855   8.888   0.403   8.955
21931SOL    HW277856   9.004   0.329   9.041
21932SOL     OW77857   8.665   0.271   8.249
21932SOL    HW177858   8.664   0.349   8.186
21932SOL    HW277859   8.708   0.298   8.335
21933SOL     OW77860   8.998   0.049   8.979
21933SOL    HW177861   9.024   0.006   8.893
21933SOL    HW277862   8.948   0.133   8.961
21934SOL     OW77863   8.680   0.659   8.503
21934SOL    HW177864   8.734   0.699   8.429
21934SOL    HW277865   8.718   0.688   8.591
21935SOL     OW77866   7.949   1.380   9.182
21935SOL    HW177867   7.910   1.443   9.115
21935SOL    HW277868   8.032   1.420   9.222
21936SOL     OW77869   7.825   1.112   9.014
21936SOL    HW177870   7.844   1.136   8.919
21936SOL    HW277871   7.818   1.195   9.069
21937SOL     OW77872   7.486   1.402   8.488
21937SOL    HW177873   7.455   1.328   8.429
21937SOL    HW277874   7.418   1.420   8.559
21938SOL     OW77875   9.172   0.630   9.057
21938SOL    HW177876   9.161   0.716   9.006
21938SOL    HW277877   9.266   0.621   9.087
21939SOL     OW77878   8.743   0.403   8.476
21939SOL    HW177879   8.717   0.500   8.482
21939SOL    HW277880   8.743   0.363   8.568
21940SOL     OW77881   8.973   0.535   9.227
21940SOL    HW177882   9.053   0.560   9.171
21940SOL    HW277883   9.004   0.500   9.315
21941SOL     OW77884   8.684   0.838   7.807
21941SOL    HW177885   8.630   0.836   7.891
21941SOL    HW277886   8.761   0.901   7.818
21942SOL     OW77887   8.981   0.934   8.027
21942SOL    HW177888   8.995   0.897   7.934
21942SOL    HW277889   8.892   0.904   8.061
21943SOL     OW77890   9.137   0.871   8.922
21943SOL    HW177891   9.039   0.892   8.924
21943SOL    HW277892   9.186   0.947   8.881
21944SOL     OW77893   8.138   1.506   8.821
21944SOL    HW177894   8.075   1.584   8.828
21944SOL    HW277895   8.106   1.444   8.749
21945SOL     OW77896   7.529   0.301   9.086
21945SOL    HW177897   7.547   0.290   8.988
21945SOL    HW277898   7.431   0.297   9.103
21946SOL     OW77899   7.409   1.715   9.030
21946SOL    HW177900   7.481   1.701   9.098
21946SOL    HW277901   7.320   1.718   9.075
21947SOL     OW77902   7.577   0.371   8.054
21947SOL    HW177903   7.520   0.426   8.115
21947SOL    HW277904   7.647   0.323   8.107
21948SOL     OW77905   8.749   1.603   8.917
21948SOL    HW177906   8.702   1.671   8.972
21948SOL    HW277907   8.816   1.649   8.858
21949SOL     OW77908   7.714   0.562   7.652
21949SOL    HW177909   7.786   0.591   7.589
21949SOL    HW277910   7.670   0.642   7.692
21950SOL     OW77911   9.100   0.224   8.755
21950SOL    HW177912   9.056   0.272   8.831
21950SOL    HW277913   9.078   0.270   8.669
21951SOL     OW77914   7.829   1.825   8.118
21951SOL    HW177915   7.753   1.791   8.063
21951SOL    HW277916   7.915   1.788   8.083
21952SOL     OW77917   7.754   1.334   8.563
21952SOL    HW177918   7.766   1.350   8.660
21952SOL    HW277919   7.667   1.374   8.533
21953SOL     OW77920   8.638   1.538   9.209
21953SOL    HW177921   8.597   1.453   9.175
21953SOL    HW277922   8.618   1.612   9.145
21954SOL     OW77923   8.128   1.258   7.899
21954SOL    HW177924   8.171   1.189   7.841
21954SOL    HW277925   8.092   1.215   7.982
21955SOL     OW77926   7.760   0.809   8.101
21955SOL    HW177927   7.752   0.907   8.119
21955SOL    HW277928   7.844   0.775   8.142
21956SOL     OW77929   7.606   0.289   7.616
21956SOL    HW177930   7.650   0.258   7.533
21956SOL    HW277931   7.607   0.389   7.620
21957SOL     OW77932   7.459   0.541   8.227
21957SOL    HW177933   7.423   0.634   8.219
21957SOL    HW277934   7.542   0.542   8.283
21958SOL     OW77935   7.894   1.128   7.613
21958SOL    HW177936   7.994   1.128   7.624
21958SOL    HW277937   7.863   1.221   7.592
21959SOL     OW77938   8.520   0.720   7.429
21959SOL    HW177939   8.451   0.777   7.385
21959SOL    HW277940   8.601   0.714   7.370
21960SOL     OW77941   8.255   0.639   7.572
21960SOL    HW177942   8.345   0.640   7.527
21960SOL    HW277943   8.232   0.545   7.597
21961SOL     OW77944   8.820   0.556   8.882
21961SOL    HW177945   8.772   0.579   8.966
21961SOL    HW277946   8.754   0.526   8.813
21962SOL     OW77947   7.455   0.071   7.526
21962SOL    HW177948   7.518  -0.006   7.534
21962SOL    HW277949   7.475   0.139   7.597
21963SOL     OW77950   7.728   1.046   8.527
21963SOL    HW177951   7.739   1.001   8.616
21963SOL    HW277952   7.755   1.142   8.534
21964SOL     OW77953   9.027   1.058   7.627
21964SOL    HW177954   9.098   1.128   7.629
21964SOL    HW277955   9.014   1.028   7.532
21965SOL     OW77956   8.009   0.659   8.549
21965SOL    HW177957   8.084   0.702   8.598
21965SOL    HW277958   7.942   0.624   8.615
21966SOL     OW77959   8.152   1.028   8.866
21966SOL    HW177960   8.221   1.080   8.816
21966SOL    HW277961   8.147   1.061   8.961
21967SOL     OW77962   8.544   1.049   9.026
21967SOL    HW177963   8.466   0.995   9.059
21967SOL    HW277964   8.625   1.027   9.081
21968SOL     OW77965   8.583   1.763   9.062
21968SOL    HW177966   8.488   1.761   9.030
21968SOL    HW277967   8.604   1.854   9.099
21969SOL     OW77968   7.701   1.773   8.660
21969SOL    HW177969   7.681   1.755   8.564
21969SOL    HW277970   7.628   1.735   8.717
21970SOL     OW77971   7.427   0.975   8.533
21970SOL    HW177972   7.516   0.953   8.573
21970SOL    HW277973   7.372   0.891   8.529
21971SOL     OW77974   7.655   0.020   7.813
21971SOL    HW177975   7.693   0.108   7.840
21971SOL    HW277976   7.578  -0.004   7.873
21972SOL     OW77977   8.071   0.637   9.141
21972SOL    HW177978   8.023   0.688   9.070
21972SOL    HW277979   8.164   0.616   9.111
21973SOL     OW77980   7.477   1.107   7.633
21973SOL    HW177981   7.467   1.010   7.612
21973SOL    HW277982   7.530   1.152   7.561
21974SOL     OW77983   9.174   0.219   8.234
21974SOL    HW177984   9.129   0.201   8.321
21974SOL    HW277985   9.272   0.236   8.250
21975SOL     OW77986   8.222   1.195   8.486
21975SOL    HW177987   8.173   1.110   8.467
21975SOL    HW277988   8.292   1.210   8.417
21976SOL     OW77989   8.560   0.618   7.695
21976SOL    HW177990   8.612   0.690   7.741
21976SOL    HW277991   8.573   0.625   7.597
21977SOL     OW77992   8.921   1.433   9.022
21977SOL    HW177993   8.906   1.335   9.036
21977SOL    HW277994   8.838   1.475   8.986
21978SOL     OW77995   7.678   0.875   8.762
21978SOL    HW177996   7.642   0.785   8.788
21978SOL    HW277997   7.639   0.945   8.822
21979SOL     OW77998   8.180   1.501   7.420
21979SOL    HW177999   8.155   1.578   7.479
21979SOL    HW278000   8.244   1.441   7.468
21980SOL     OW78001   7.998   1.708   8.454
21980SOL    HW178002   8.018   1.678   8.361
21980SOL    HW278003   7.923   1.653   8.491
21981SOL     OW78004   8.319   1.466   7.840
21981SOL    HW178005   8.369   1.454   7.755
21981SOL    HW278006   8.265   1.383   7.859
21982SOL     OW78007   7.509   0.813   8.240
21982SOL    HW178008   7.604   0.804   8.208
21982SOL    HW278009   7.475   0.905   8.219
21983SOL     OW78010   7.446   0.930   9.167
21983SOL    HW178011   7.361   0.881   9.148
21983SOL    HW278012   7.473   0.917   9.262
21984SOL     OW78013   8.343   1.839   8.873
21984SOL    HW178014   8.315   1.752   8.914
21984SOL    HW278015   8.287   1.913   8.910
21985SOL     OW78016   7.846   0.457   9.167
21985SOL    HW178017   7.882   0.404   9.090
21985SOL    HW278018   7.907   0.534   9.185
21986SOL     OW78019   7.910   0.874   7.739
21986SOL    HW178020   7.860   0.939   7.683
21986SOL    HW278021   7.852   0.795   7.758
21987SOL     OW78022   8.683   0.348   8.733
21987SOL    HW178023   8.754   0.320   8.797
21987SOL    HW278024   8.630   0.268   8.705
21988SOL     OW78025   7.384   0.047   7.934
21988SOL    HW178026   7.297   0.034   7.887
21988SOL    HW278027   7.392   0.142   7.964
21989SOL     OW78028   7.821   1.567   9.000
21989SOL    HW178029   7.763   1.632   9.049
21989SOL    HW278030   7.883   1.617   8.940
21990SOL     OW78031   7.831   1.513   8.063
21990SOL    HW178032   7.829   1.414   8.076
21990SOL    HW278033   7.740   1.546   8.040
21991SOL     OW78034   8.472   1.630   8.651
21991SOL    HW178035   8.398   1.694   8.669
21991SOL    HW278036   8.551   1.679   8.613
21992SOL     OW78037   7.681   1.760   9.150
21992SOL    HW178038   7.724   1.844   9.116
21992SOL    HW278039   7.706   1.747   9.246
21993SOL     OW78040   7.541   1.296   9.021
21993SOL    HW178041   7.520   1.201   8.994
21993SOL    HW278042   7.472   1.357   8.983
21994SOL     OW78043   7.630   1.661   8.425
21994SOL    HW178044   7.572   1.581   8.439
21994SOL    HW278045   7.654   1.668   8.328
21995SOL     OW78046   8.438   1.188   7.796
21995SOL    HW178047   8.518   1.224   7.844
21995SOL    HW278048   8.396   1.115   7.852
21996SOL     OW78049   9.029   0.455   8.160
21996SOL    HW178050   9.048   0.541   8.207
21996SOL    HW278051   9.097   0.386   8.188
21997SOL     OW78052   8.172   1.127   7.646
21997SOL    HW178053   8.244   1.186   7.611
21997SOL    HW278054   8.212   1.043   7.682
21998SOL     OW78055   8.243   0.103   7.498
21998SOL    HW178056   8.318   0.037   7.510
21998SOL    HW278057   8.274   0.194   7.526
21999SOL     OW78058   7.910   1.090   8.764
21999SOL    HW178059   8.006   1.070   8.784
21999SOL    HW278060   7.899   1.188   8.746
22000SOL     OW78061   7.615   1.242   7.425
22000SOL    HW178062   7.607   1.254   7.326
22000SOL    HW278063   7.674   1.313   7.463
22001SOL     OW78064   8.042   1.681   7.585
22001SOL    HW178065   8.017   1.776   7.569
22001SOL    HW278066   8.009   1.653   7.675
22002SOL     OW78067   7.959   1.720   8.809
22002SOL    HW178068   8.008   1.800   8.773
22002SOL    HW278069   7.867   1.718   8.770
22003SOL     OW78070   7.602   0.601   9.171
22003SOL    HW178071   7.619   0.502   9.176
22003SOL    HW278072   7.666   0.649   9.232
22004SOL     OW78073   9.041   1.562   8.410
22004SOL    HW178074   9.013   1.655   8.434
22004SOL    HW278075   9.091   1.521   8.486
22005SOL     OW78076   7.437   0.935   7.971
22005SOL    HW178077   7.444   1.034   7.958
22005SOL    HW278078   7.346   0.912   8.005
22006SOL     OW78079   7.946   0.733   8.909
22006SOL    HW178080   7.852   0.703   8.890
22006SOL    HW278081   7.955   0.830   8.886
22007SOL     OW78082   9.013   1.109   8.221
22007SOL    HW178083   8.975   1.198   8.194
22007SOL    HW278084   9.013   1.047   8.143
22008SOL     OW78085   8.024   1.366   8.617
22008SOL    HW178086   7.937   1.365   8.568
22008SOL    HW278087   8.090   1.306   8.570
22009SOL     OW78088   7.590   0.708   8.531
22009SOL    HW178089   7.628   0.767   8.602
22009SOL    HW278090   7.573   0.761   8.449
22010SOL     OW78091   7.761   1.354   8.829
22010SOL    HW178092   7.780   1.442   8.873
22010SOL    HW278093   7.666   1.328   8.847
22011SOL     OW78094   8.712   1.208   7.898
22011SOL    HW178095   8.811   1.212   7.914
22011SOL    HW278096   8.695   1.194   7.800
22012SOL     OW78097   8.985   0.057   8.105
22012SOL    HW178098   8.980   0.098   8.014
22012SOL    HW278099   9.066   0.091   8.152
22013SOL     OW78100   8.588   0.813   8.798
22013SOL    HW178101   8.687   0.822   8.788
22013SOL    HW278102   8.544   0.815   8.708
22014SOL     OW78103   8.747   1.480   8.412
22014SOL    HW178104   8.661   1.437   8.441
22014SOL    HW278105   8.736   1.520   8.321
22015SOL     OW78106   8.750   0.465   8.087
22015SOL    HW178107   8.749   0.457   7.988
22015SOL    HW278108   8.839   0.437   8.122
22016SOL     OW78109   8.477   1.481   9.919
22016SOL    HW178110   8.568   1.515   9.942
22016SOL    HW278111   8.449   1.519   9.831
22017SOL     OW78112   8.988   1.277   9.777
22017SOL    HW178113   8.999   1.361   9.831
22017SOL    HW278114   9.078   1.240   9.754
22018SOL     OW78115   7.735   0.196   9.246
22018SOL    HW178116   7.648   0.193   9.197
22018SOL    HW278117   7.786   0.278   9.218
22019SOL     OW78118   7.945   1.550   9.650
22019SOL    HW178119   7.901   1.559   9.739
22019SOL    HW278120   8.016   1.480   9.654
22020SOL     OW78121   7.963   0.083   9.372
22020SOL    HW178122   8.051   0.111   9.333
22020SOL    HW278123   7.891   0.146   9.342
22021SOL     OW78124   7.872   1.223   9.945
22021SOL    HW178125   7.805   1.177  10.004
22021SOL    HW278126   7.964   1.191   9.968
22022SOL     OW78127   8.099   0.629   9.776
22022SOL    HW178128   8.138   0.699   9.717
22022SOL    HW278129   8.073   0.549   9.722
22023SOL     OW78130   7.802   1.392   9.429
22023SOL    HW178131   7.866   1.408   9.354
22023SOL    HW278132   7.826   1.450   9.507
22024SOL     OW78133   7.650   0.774   9.657
22024SOL    HW178134   7.665   0.708   9.731
22024SOL    HW278135   7.600   0.853   9.692
22025SOL     OW78136   8.236   1.719   9.834
22025SOL    HW178137   8.301   1.652   9.798
22025SOL    HW278138   8.226   1.795   9.770
22026SOL     OW78139   9.128   1.601   9.576
22026SOL    HW178140   9.224   1.575   9.569
22026SOL    HW278141   9.104   1.661   9.500
22027SOL     OW78142   8.440   0.323   9.616
22027SOL    HW178143   8.465   0.417   9.637
22027SOL    HW278144   8.441   0.269   9.700
22028SOL     OW78145   7.890   0.681   9.344
22028SOL    HW178146   7.850   0.760   9.297
22028SOL    HW278147   7.979   0.660   9.304
22029SOL     OW78148   9.009   1.437  10.018
22029SOL    HW178149   9.005   1.472  10.111
22029SOL    HW278150   9.068   1.496   9.962
22030SOL     OW78151   7.740   1.258   9.694
22030SOL    HW178152   7.786   1.232   9.779
22030SOL    HW278153   7.760   1.190   9.623
22031SOL     OW78154   8.598   0.313   9.405
22031SOL    HW178155   8.692   0.283   9.423
22031SOL    HW278156   8.546   0.313   9.491
22032SOL     OW78157   7.785   0.290   9.659
22032SOL    HW178158   7.739   0.330   9.738
22032SOL    HW278159   7.733   0.309   9.577
22033SOL     OW78160   9.225   1.761  10.339
22033SOL    HW178161   9.271   1.771  10.427
22033SOL    HW278162   9.292   1.764  10.266
22034SOL     OW78163   8.338   0.501   9.901
22034SOL    HW178164   8.414   0.529   9.960
22034SOL    HW278165   8.294   0.581   9.862
22035SOL     OW78166   8.573   0.965   9.418
22035SOL    HW178167   8.610   0.915   9.496
22035SOL    HW278168   8.503   0.910   9.373
22036SOL     OW78169   9.156   0.634   9.497
22036SOL    HW178170   9.177   0.553   9.443
22036SOL    HW278171   9.173   0.615   9.594
22037SOL     OW78172   8.450   1.772   9.405
22037SOL    HW178173   8.484   1.685   9.370
22037SOL    HW278174   8.418   1.760   9.499
22038SOL     OW78175   7.412   0.622   9.754
22038SOL    HW178176   7.414   0.573   9.841
22038SOL    HW278177   7.414   0.721   9.772
22039SOL     OW78178   7.585   1.507   9.608
22039SOL    HW178179   7.612   1.413   9.628
22039SOL    HW278180   7.610   1.529   9.514
22040SOL     OW78181   7.599   1.650   9.845
22040SOL    HW178182   7.515   1.701   9.863
22040SOL    HW278183   7.590   1.599   9.760
22041SOL     OW78184   7.872   0.947   9.247
22041SOL    HW178185   7.841   0.981   9.159
22041SOL    HW278186   7.876   1.022   9.313
22042SOL     OW78187   7.476   0.839   9.420
22042SOL    HW178188   7.536   0.786   9.480
22042SOL    HW278189   7.382   0.807   9.432
22043SOL     OW78190   8.996   0.837   9.620
22043SOL    HW178191   9.064   0.771   9.587
22043SOL    HW278192   9.011   0.925   9.576
22044SOL     OW78193   8.151   0.893   9.304
22044SOL    HW178194   8.180   0.812   9.355
22044SOL    HW278195   8.051   0.892   9.295
22045SOL     OW78196   8.747   0.425   9.650
22045SOL    HW178197   8.684   0.483   9.598
22045SOL    HW278198   8.840   0.459   9.638
22046SOL     OW78199   9.015   0.436   9.720
22046SOL    HW178200   9.111   0.407   9.717
22046SOL    HW278201   8.976   0.414   9.809
22047SOL     OW78202   8.249   0.377   9.442
22047SOL    HW178203   8.158   0.390   9.480
22047SOL    HW278204   8.309   0.337   9.512
22048SOL     OW78205   8.360   1.322   9.377
22048SOL    HW178206   8.413   1.262   9.437
22048SOL    HW278207   8.399   1.323   9.286
22049SOL     OW78208   9.111   1.617   9.862
22049SOL    HW178209   9.078   1.710   9.881
22049SOL    HW278210   9.109   1.601   9.763
22050SOL     OW78211   8.526   0.890   9.851
22050SOL    HW178212   8.591   0.918   9.922
22050SOL    HW278213   8.447   0.951   9.853
22051SOL     OW78214   8.718   0.930  10.054
22051SOL    HW178215   8.739   0.872  10.132
22051SOL    HW278216   8.727   1.026  10.080
22052SOL     OW78217   8.307   1.007   9.799
22052SOL    HW178218   8.294   0.918   9.756
22052SOL    HW278219   8.238   1.021   9.870
22053SOL     OW78220   7.418   0.312   9.702
22053SOL    HW178221   7.478   0.263   9.640
22053SOL    HW278222   7.473   0.364   9.767
22054SOL     OW78223   9.041   1.810   9.393
22054SOL    HW178224   9.131   1.854   9.395
22054SOL    HW278225   9.040   1.741   9.321
22055SOL     OW78226   8.223   0.823   9.616
22055SOL    HW178227   8.134   0.851   9.581
22055SOL    HW278228   8.264   0.757   9.552
22056SOL     OW78229   7.742   1.739   9.426
22056SOL    HW178230   7.834   1.769   9.401
22056SOL    HW278231   7.717   1.778   9.515
22057SOL     OW78232   8.174   0.061   9.625
22057SOL    HW178233   8.135   0.050   9.534
22057SOL    HW278234   8.130   0.137   9.672
22058SOL     OW78235   7.419   1.197   9.719
22058SOL    HW178236   7.497   1.255   9.743
22058SOL    HW278237   7.438   1.148   9.634
22059SOL     OW78238   8.785   0.077   9.390
22059SOL    HW178239   8.865   0.017   9.387
22059SOL    HW278240   8.711   0.030   9.438
22060SOL     OW78241   8.100   0.308   9.956
22060SOL    HW178242   8.089   0.250  10.037
22060SOL    HW278243   8.185   0.360   9.964
22061SOL     OW78244   8.973   0.065   9.664
22061SOL    HW178245   8.980   0.019   9.576
22061SOL    HW278246   8.877   0.075   9.689
22062SOL     OW78247   8.684   0.838   9.652
22062SOL    HW178248   8.630   0.836   9.736
22062SOL    HW278249   8.761   0.901   9.663
22063SOL     OW78250   8.981   0.934   9.872
22063SOL    HW178251   8.995   0.897   9.779
22063SOL    HW278252   8.892   0.904   9.906
22064SOL     OW78253   8.991   0.291   9.446
22064SOL    HW178254   8.996   0.333   9.537
22064SOL    HW278255   8.924   0.216   9.448
22065SOL     OW78256   7.714   0.562   9.497
22065SOL    HW178257   7.786   0.591   9.434
22065SOL    HW278258   7.670   0.642   9.537
22066SOL     OW78259   7.829   1.825   9.963
22066SOL    HW178260   7.753   1.791   9.908
22066SOL    HW278261   7.915   1.788   9.928
22067SOL     OW78262   8.128   1.258   9.744
22067SOL    HW178263   8.171   1.189   9.686
22067SOL    HW278264   8.092   1.215   9.827
22068SOL     OW78265   7.606   0.289   9.461
22068SOL    HW178266   7.650   0.258   9.378
22068SOL    HW278267   7.607   0.389   9.465
22069SOL     OW78268   7.459   0.541  10.072
22069SOL    HW178269   7.423   0.634  10.064
22069SOL    HW278270   7.542   0.542  10.128
22070SOL     OW78271   7.894   1.128   9.458
22070SOL    HW178272   7.994   1.128   9.469
22070SOL    HW278273   7.863   1.221   9.437
22071SOL     OW78274   8.520   0.720   9.274
22071SOL    HW178275   8.451   0.777   9.230
22071SOL    HW278276   8.601   0.714   9.215
22072SOL     OW78277   8.255   0.639   9.417
22072SOL    HW178278   8.345   0.640   9.372
22072SOL    HW278279   8.232   0.545   9.442
22073SOL     OW78280   8.706   0.156   9.711
22073SOL    HW178281   8.616   0.140   9.752
22073SOL    HW278282   8.714   0.252   9.685
22074SOL     OW78283   7.455   0.071   9.371
22074SOL    HW178284   7.518  -0.006   9.379
22074SOL    HW278285   7.475   0.139   9.442
22075SOL     OW78286   8.473   0.231   9.867
22075SOL    HW178287   8.532   0.291   9.922
22075SOL    HW278288   8.400   0.195   9.924
22076SOL     OW78289   7.655   0.020   9.658
22076SOL    HW178290   7.693   0.108   9.685
22076SOL    HW278291   7.578  -0.004   9.718
22077SOL     OW78292   7.477   1.107   9.478
22077SOL    HW178293   7.467   1.010   9.457
22077SOL    HW278294   7.530   1.152   9.406
22078SOL     OW78295   9.174   0.219  10.079
22078SOL    HW178296   9.129   0.201  10.166
22078SOL    HW278297   9.272   0.236  10.095
22079SOL     OW78298   8.560   0.618   9.540
22079SOL    HW178299   8.612   0.690   9.586
22079SOL    HW278300   8.573   0.625   9.442
22080SOL     OW78301   8.180   1.501   9.265
22080SOL    HW178302   8.155   1.578   9.324
22080SOL    HW278303   8.244   1.441   9.313
22081SOL     OW78304   8.141   1.119  10.016
22081SOL    HW178305   8.230   1.165  10.016
22081SOL    HW278306   8.134   1.059  10.095
22082SOL     OW78307   8.319   1.466   9.685
22082SOL    HW178308   8.369   1.454   9.600
22082SOL    HW278309   8.265   1.383   9.704
22083SOL     OW78310   7.910   0.874   9.584
22083SOL    HW178311   7.860   0.939   9.528
22083SOL    HW278312   7.852   0.795   9.603
22084SOL     OW78313   7.384   0.047   9.779
22084SOL    HW178314   7.297   0.034   9.732
22084SOL    HW278315   7.392   0.142   9.809
22085SOL     OW78316   7.831   1.513   9.908
22085SOL    HW178317   7.829   1.414   9.921
22085SOL    HW278318   7.740   1.546   9.885
22086SOL     OW78319   8.438   1.188   9.641
22086SOL    HW178320   8.518   1.224   9.689
22086SOL    HW278321   8.396   1.115   9.697
22087SOL     OW78322   9.029   0.455  10.005
22087SOL    HW178323   9.048   0.541  10.052
22087SOL    HW278324   9.097   0.386  10.033
22088SOL     OW78325   8.172   1.127   9.491
22088SOL    HW178326   8.244   1.186   9.456
22088SOL    HW278327   8.212   1.043   9.527
22089SOL     OW78328   8.243   0.103   9.343
22089SOL    HW178329   8.318   0.037   9.355
22089SOL    HW278330   8.274   0.194   9.371
22090SOL     OW78331   7.922   0.532   9.955
22090SOL    HW178332   7.960   0.443   9.981
22090SOL    HW278333   7.989   0.582   9.900
22091SOL     OW78334   7.615   1.242   9.270
22091SOL    HW178335   7.607   1.254   9.171
22091SOL    HW278336   7.674   1.313   9.308
22092SOL     OW78337   8.042   1.681   9.430
22092SOL    HW178338   8.017   1.776   9.414
22092SOL    HW278339   8.009   1.653   9.520
22093SOL     OW78340   7.437   0.935   9.816
22093SOL    HW178341   7.444   1.034   9.803
22093SOL    HW278342   7.346   0.912   9.850
22094SOL     OW78343   8.712   1.208   9.743
22094SOL    HW178344   8.811   1.212   9.759
22094SOL    HW278345   8.695   1.194   9.645
22095SOL     OW78346   8.065   0.374   9.691
22095SOL    HW178347   7.967   0.368   9.671
22095SOL    HW278348   8.084   0.331   9.779
22096SOL     OW78349   8.985   0.057   9.950
22096SOL    HW178350   8.980   0.098   9.859
22096SOL    HW278351   9.066   0.091   9.997
22097SOL     OW78352   8.750   0.465   9.932
22097SOL    HW178353   8.749   0.457   9.833
22097SOL    HW278354   8.839   0.437   9.967
22098SOL     OW78355   8.477   3.326   0.692
22098SOL    HW178356   8.568   3.360   0.715
22098SOL    HW278357   8.449   3.364   0.604
22099SOL     OW78358   8.988   3.122   0.550
22099SOL    HW178359   8.999   3.206   0.604
22099SOL    HW278360   9.078   3.085   0.527
22100SOL     OW78361   9.068   2.404   1.414
22100SOL    HW178362   8.970   2.396   1.436
22100SOL    HW278363   9.121   2.393   1.498
22101SOL     OW78364   7.735   2.041   0.019
22101SOL    HW178365   7.648   2.038  -0.030
22101SOL    HW278366   7.786   2.123  -0.009
22102SOL     OW78367   8.722   3.430   0.794
22102SOL    HW178368   8.711   3.527   0.817
22102SOL    HW278369   8.815   3.413   0.764
22103SOL     OW78370   8.600   1.941   1.352
22103SOL    HW178371   8.524   1.896   1.399
22103SOL    HW278372   8.629   1.886   1.274
22104SOL     OW78373   7.945   3.395   0.423
22104SOL    HW178374   7.901   3.404   0.512
22104SOL    HW278375   8.016   3.325   0.427
22105SOL     OW78376   7.963   1.928   0.145
22105SOL    HW178377   8.051   1.956   0.106
22105SOL    HW278378   7.891   1.991   0.115
22106SOL     OW78379   8.933   2.913   1.528
22106SOL    HW178380   8.841   2.918   1.490
22106SOL    HW278381   8.998   2.951   1.462
22107SOL     OW78382   8.833   2.920   1.209
22107SOL    HW178383   8.758   2.909   1.274
22107SOL    HW278384   8.870   3.013   1.215
22108SOL     OW78385   8.329   3.175   1.509
22108SOL    HW178386   8.272   3.238   1.455
22108SOL    HW278387   8.362   3.101   1.450
22109SOL     OW78388   7.872   3.068   0.718
22109SOL    HW178389   7.805   3.022   0.777
22109SOL    HW278390   7.964   3.036   0.741
22110SOL     OW78391   8.099   2.474   0.549
22110SOL    HW178392   8.138   2.544   0.490
22110SOL    HW278393   8.073   2.394   0.495
22111SOL     OW78394   8.719   2.382   1.758
22111SOL    HW178395   8.815   2.386   1.784
22111SOL    HW278396   8.675   2.306   1.805
22112SOL     OW78397   7.802   3.237   0.202
22112SOL    HW178398   7.866   3.253   0.127
22112SOL    HW278399   7.826   3.295   0.280
22113SOL     OW78400   7.953   2.193   1.012
22113SOL    HW178401   8.029   2.258   1.008
22113SOL    HW278402   7.983   2.104   0.979
22114SOL     OW78403   7.650   2.619   0.430
22114SOL    HW178404   7.665   2.553   0.504
22114SOL    HW278405   7.600   2.698   0.465
22115SOL     OW78406   8.236   3.564   0.607
22115SOL    HW178407   8.301   3.497   0.571
22115SOL    HW278408   8.226   3.640   0.543
22116SOL     OW78409   9.040   2.139   1.120
22116SOL    HW178410   9.091   2.211   1.073
22116SOL    HW278411   8.945   2.166   1.129
22117SOL     OW78412   8.440   2.168   0.389
22117SOL    HW178413   8.465   2.262   0.410
22117SOL    HW278414   8.441   2.114   0.473
22118SOL     OW78415   7.564   2.881   1.574
22118SOL    HW178416   7.660   2.896   1.592
22118SOL    HW278417   7.526   2.819   1.643
22119SOL     OW78418   7.890   2.526   0.117
22119SOL    HW178419   7.850   2.605   0.070
22119SOL    HW278420   7.979   2.505   0.077
22120SOL     OW78421   8.063   3.450   0.815
22120SOL    HW178422   8.136   3.473   0.751
22120SOL    HW278423   7.992   3.397   0.769
22121SOL     OW78424   9.009   3.282   0.791
22121SOL    HW178425   9.005   3.317   0.884
22121SOL    HW278426   9.068   3.341   0.735
22122SOL     OW78427   7.740   3.103   0.467
22122SOL    HW178428   7.786   3.077   0.552
22122SOL    HW278429   7.760   3.035   0.396
22123SOL     OW78430   8.598   2.158   0.178
22123SOL    HW178431   8.692   2.128   0.196
22123SOL    HW278432   8.546   2.158   0.264
22124SOL     OW78433   7.750   2.363   1.273
22124SOL    HW178434   7.740   2.276   1.225
22124SOL    HW278435   7.686   2.430   1.236
22125SOL     OW78436   8.832   2.643   1.311
22125SOL    HW178437   8.836   2.737   1.276
22125SOL    HW278438   8.925   2.612   1.333
22126SOL     OW78439   7.785   2.135   0.432
22126SOL    HW178440   7.739   2.175   0.511
22126SOL    HW278441   7.733   2.154   0.350
22127SOL     OW78442   8.913   3.662   1.344
22127SOL    HW178443   8.856   3.613   1.278
22127SOL    HW278444   8.999   3.689   1.301
22128SOL     OW78445   9.208   2.380   1.199
22128SOL    HW178446   9.265   2.462   1.201
22128SOL    HW278447   9.149   2.379   1.279
22129SOL     OW78448   9.225   3.606   1.112
22129SOL    HW178449   9.271   3.616   1.200
22129SOL    HW278450   9.292   3.609   1.039
22130SOL     OW78451   8.338   2.346   0.674
22130SOL    HW178452   8.414   2.374   0.733
22130SOL    HW278453   8.294   2.426   0.635
22131SOL     OW78454   8.573   2.810   0.191
22131SOL    HW178455   8.610   2.760   0.269
22131SOL    HW278456   8.503   2.755   0.146
22132SOL     OW78457   8.415   2.232   1.812
22132SOL    HW178458   8.478   2.237   1.889
22132SOL    HW278459   8.323   2.210   1.845
22133SOL     OW78460   9.156   2.479   0.270
22133SOL    HW178461   9.177   2.398   0.216
22133SOL    HW278462   9.173   2.460   0.367
22134SOL     OW78463   8.450   3.617   0.178
22134SOL    HW178464   8.484   3.530   0.143
22134SOL    HW278465   8.418   3.605   0.272
22135SOL     OW78466   8.131   1.884   1.710
22135SOL    HW178467   8.138   1.790   1.677
22135SOL    HW278468   8.188   1.894   1.792
22136SOL     OW78469   9.054   2.485   0.978
22136SOL    HW178470   9.039   2.576   1.015
22136SOL    HW278471   9.124   2.438   1.032
22137SOL     OW78472   8.464   3.151   1.744
22137SOL    HW178473   8.486   3.061   1.706
22137SOL    HW278474   8.399   3.198   1.685
22138SOL     OW78475   8.119   2.993   1.748
22138SOL    HW178476   8.090   3.070   1.805
22138SOL    HW278477   8.129   2.912   1.806
22139SOL     OW78478   8.754   1.857   0.854
22139SOL    HW178479   8.703   1.941   0.836
22139SOL    HW278480   8.840   1.859   0.803
22140SOL     OW78481   9.109   2.063   1.783
22140SOL    HW178482   9.086   2.084   1.878
22140SOL    HW278483   9.085   1.968   1.763
22141SOL     OW78484   7.412   2.467   0.527
22141SOL    HW178485   7.414   2.418   0.614
22141SOL    HW278486   7.414   2.566   0.545
22142SOL     OW78487   7.733   2.055   0.848
22142SOL    HW178488   7.785   2.095   0.923
22142SOL    HW278489   7.786   1.982   0.805
22143SOL     OW78490   7.717   2.103   1.182
22143SOL    HW178491   7.682   2.010   1.182
22143SOL    HW278492   7.804   2.106   1.133
22144SOL     OW78493   8.384   2.725   0.922
22144SOL    HW178494   8.410   2.805   0.868
22144SOL    HW278495   8.378   2.645   0.862
22145SOL     OW78496   7.585   3.352   0.381
22145SOL    HW178497   7.612   3.258   0.401
22145SOL    HW278498   7.610   3.374   0.287
22146SOL     OW78499   8.867   3.221   1.255
22146SOL    HW178500   8.838   3.258   1.166
22146SOL    HW278501   8.789   3.221   1.317
22147SOL     OW78502   7.599   3.495   0.618
22147SOL    HW178503   7.515   3.546   0.636
22147SOL    HW278504   7.590   3.444   0.533
22148SOL     OW78505   9.120   3.292   1.293
22148SOL    HW178506   9.151   3.306   1.387
22148SOL    HW278507   9.021   3.279   1.292
22149SOL     OW78508   7.872   2.792   0.020
22149SOL    HW178509   7.841   2.826  -0.068
22149SOL    HW278510   7.876   2.867   0.086
22150SOL     OW78511   8.389   2.979   1.319
22150SOL    HW178512   8.439   2.894   1.303
22150SOL    HW278513   8.343   3.006   1.234
22151SOL     OW78514   7.476   2.684   0.193
22151SOL    HW178515   7.536   2.631   0.253
22151SOL    HW278516   7.382   2.652   0.205
22152SOL     OW78517   8.996   2.682   0.393
22152SOL    HW178518   9.064   2.616   0.360
22152SOL    HW278519   9.011   2.770   0.349
22153SOL     OW78520   8.244   3.669   1.041
22153SOL    HW178521   8.290   3.602   0.983
22153SOL    HW278522   8.170   3.625   1.091
22154SOL     OW78523   8.151   2.738   0.077
22154SOL    HW178524   8.180   2.657   0.128
22154SOL    HW278525   8.051   2.737   0.068
22155SOL     OW78526   8.747   2.270   0.423
22155SOL    HW178527   8.684   2.328   0.371
22155SOL    HW278528   8.840   2.304   0.411
22156SOL     OW78529   7.644   2.471   1.523
22156SOL    HW178530   7.664   2.376   1.498
22156SOL    HW278531   7.607   2.474   1.616
22157SOL     OW78532   7.526   2.126   1.413
22157SOL    HW178533   7.598   2.136   1.344
22157SOL    HW278534   7.437   2.125   1.368
22158SOL     OW78535   8.424   2.747   1.178
22158SOL    HW178536   8.418   2.733   1.079
22158SOL    HW278537   8.343   2.708   1.222
22159SOL     OW78538   9.015   2.281   0.493
22159SOL    HW178539   9.111   2.252   0.490
22159SOL    HW278540   8.976   2.259   0.582
22160SOL     OW78541   8.299   3.356   0.930
22160SOL    HW178542   8.357   3.367   0.849
22160SOL    HW278543   8.205   3.380   0.908
22161SOL     OW78544   8.249   2.222   0.215
22161SOL    HW178545   8.158   2.235   0.253
22161SOL    HW278546   8.309   2.182   0.285
22162SOL     OW78547   8.360   3.167   0.150
22162SOL    HW178548   8.413   3.107   0.210
22162SOL    HW278549   8.399   3.168   0.059
22163SOL     OW78550   9.111   3.462   0.635
22163SOL    HW178551   9.078   3.555   0.654
22163SOL    HW278552   9.109   3.446   0.536
22164SOL     OW78553   8.526   2.735   0.624
22164SOL    HW178554   8.591   2.763   0.695
22164SOL    HW278555   8.447   2.796   0.626
22165SOL     OW78556   8.274   3.461   1.648
22165SOL    HW178557   8.262   3.392   1.577
22165SOL    HW278558   8.237   3.426   1.735
22166SOL     OW78559   8.718   2.775   0.827
22166SOL    HW178560   8.739   2.717   0.905
22166SOL    HW278561   8.727   2.871   0.853
22167SOL     OW78562   7.674   2.904   0.873
22167SOL    HW178563   7.597   2.966   0.866
22167SOL    HW278564   7.711   2.905   0.966
22168SOL     OW78565   8.307   2.852   0.572
22168SOL    HW178566   8.294   2.763   0.529
22168SOL    HW278567   8.238   2.866   0.643
22169SOL     OW78568   8.611   3.240   1.411
22169SOL    HW178569   8.644   3.325   1.452
22169SOL    HW278570   8.512   3.236   1.418
22170SOL     OW78571   7.418   2.157   0.475
22170SOL    HW178572   7.478   2.108   0.413
22170SOL    HW278573   7.473   2.209   0.540
22171SOL     OW78574   9.041   3.655   0.166
22171SOL    HW178575   9.131   3.699   0.168
22171SOL    HW278576   9.040   3.586   0.094
22172SOL     OW78577   7.442   3.649   1.395
22172SOL    HW178578   7.450   3.749   1.393
22172SOL    HW278579   7.418   3.620   1.488
22173SOL     OW78580   8.223   2.668   0.389
22173SOL    HW178581   8.134   2.696   0.354
22173SOL    HW278582   8.264   2.602   0.325
22174SOL     OW78583   7.745   2.386   0.928
22174SOL    HW178584   7.801   2.379   0.845
22174SOL    HW278585   7.802   2.364   1.008
22175SOL     OW78586   7.742   3.584   0.199
22175SOL    HW178587   7.834   3.614   0.174
22175SOL    HW278588   7.717   3.623   0.288
22176SOL     OW78589   8.718   3.606   1.136
22176SOL    HW178590   8.737   3.669   1.062
22176SOL    HW278591   8.726   3.512   1.103
22177SOL     OW78592   7.423   3.001   0.948
22177SOL    HW178593   7.333   3.017   0.909
22177SOL    HW278594   7.421   2.917   1.003
22178SOL     OW78595   8.174   1.906   0.398
22178SOL    HW178596   8.135   1.895   0.307
22178SOL    HW278597   8.130   1.982   0.445
22179SOL     OW78598   7.419   3.042   0.492
22179SOL    HW178599   7.497   3.100   0.516
22179SOL    HW278600   7.438   2.993   0.407
22180SOL     OW78601   8.949   2.170   1.576
22180SOL    HW178602   8.888   2.248   1.573
22180SOL    HW278603   9.004   2.174   1.659
22181SOL     OW78604   8.665   2.116   0.867
22181SOL    HW178605   8.664   2.194   0.804
22181SOL    HW278606   8.708   2.143   0.953
22182SOL     OW78607   8.785   1.922   0.163
22182SOL    HW178608   8.865   1.862   0.160
22182SOL    HW278609   8.711   1.875   0.211
22183SOL     OW78610   8.998   1.894   1.597
22183SOL    HW178611   9.024   1.851   1.511
22183SOL    HW278612   8.948   1.978   1.579
22184SOL     OW78613   8.100   2.153   0.729
22184SOL    HW178614   8.089   2.095   0.810
22184SOL    HW278615   8.185   2.205   0.737
22185SOL     OW78616   8.680   2.504   1.121
22185SOL    HW178617   8.734   2.544   1.047
22185SOL    HW278618   8.718   2.533   1.209
22186SOL     OW78619   8.973   1.910   0.437
22186SOL    HW178620   8.980   1.864   0.349
22186SOL    HW278621   8.877   1.920   0.462
22187SOL     OW78622   7.949   3.225   1.800
22187SOL    HW178623   7.910   3.288   1.733
22187SOL    HW278624   8.032   3.265   1.840
22188SOL     OW78625   7.825   2.957   1.632
22188SOL    HW178626   7.844   2.981   1.537
22188SOL    HW278627   7.818   3.040   1.687
22189SOL     OW78628   7.486   3.247   1.106
22189SOL    HW178629   7.455   3.173   1.047
22189SOL    HW278630   7.418   3.265   1.177
22190SOL     OW78631   8.572   2.448   0.839
22190SOL    HW178632   8.654   2.425   0.787
22190SOL    HW278633   8.567   2.389   0.920
22191SOL     OW78634   9.172   2.475   1.675
22191SOL    HW178635   9.161   2.561   1.624
22191SOL    HW278636   9.266   2.466   1.705
22192SOL     OW78637   8.743   2.248   1.094
22192SOL    HW178638   8.717   2.345   1.100
22192SOL    HW278639   8.743   2.208   1.186
22193SOL     OW78640   8.973   2.380   1.845
22193SOL    HW178641   9.053   2.405   1.789
22193SOL    HW278642   9.004   2.345   1.933
22194SOL     OW78643   8.684   2.683   0.425
22194SOL    HW178644   8.630   2.681   0.509
22194SOL    HW278645   8.761   2.746   0.436
22195SOL     OW78646   8.981   2.779   0.645
22195SOL    HW178647   8.995   2.742   0.552
22195SOL    HW278648   8.892   2.749   0.679
22196SOL     OW78649   9.137   2.716   1.540
22196SOL    HW178650   9.039   2.737   1.542
22196SOL    HW278651   9.186   2.792   1.499
22197SOL     OW78652   8.991   2.136   0.219
22197SOL    HW178653   8.996   2.178   0.310
22197SOL    HW278654   8.924   2.061   0.221
22198SOL     OW78655   8.138   3.351   1.439
22198SOL    HW178656   8.075   3.429   1.446
22198SOL    HW278657   8.106   3.289   1.367
22199SOL     OW78658   7.529   2.146   1.704
22199SOL    HW178659   7.547   2.135   1.606
22199SOL    HW278660   7.431   2.142   1.721
22200SOL     OW78661   7.409   3.560   1.648
22200SOL    HW178662   7.481   3.546   1.716
22200SOL    HW278663   7.320   3.563   1.693
22201SOL     OW78664   7.577   2.216   0.672
22201SOL    HW178665   7.520   2.271   0.733
22201SOL    HW278666   7.647   2.168   0.725
22202SOL     OW78667   8.749   3.448   1.535
22202SOL    HW178668   8.702   3.516   1.590
22202SOL    HW278669   8.816   3.494   1.476
22203SOL     OW78670   7.714   2.407   0.270
22203SOL    HW178671   7.786   2.436   0.207
22203SOL    HW278672   7.670   2.487   0.310
22204SOL     OW78673   9.100   2.069   1.373
22204SOL    HW178674   9.056   2.117   1.449
22204SOL    HW278675   9.078   2.115   1.287
22205SOL     OW78676   7.829   3.670   0.736
22205SOL    HW178677   7.753   3.636   0.681
22205SOL    HW278678   7.915   3.633   0.701
22206SOL     OW78679   7.754   3.179   1.181
22206SOL    HW178680   7.766   3.195   1.278
22206SOL    HW278681   7.667   3.219   1.151
22207SOL     OW78682   8.638   3.383   1.827
22207SOL    HW178683   8.597   3.298   1.793
22207SOL    HW278684   8.618   3.457   1.763
22208SOL     OW78685   8.128   3.103   0.517
22208SOL    HW178686   8.171   3.034   0.459
22208SOL    HW278687   8.092   3.060   0.600
22209SOL     OW78688   7.760   2.654   0.719
22209SOL    HW178689   7.752   2.752   0.737
22209SOL    HW278690   7.844   2.620   0.760
22210SOL     OW78691   7.606   2.134   0.234
22210SOL    HW178692   7.650   2.103   0.151
22210SOL    HW278693   7.607   2.234   0.238
22211SOL     OW78694   7.459   2.386   0.845
22211SOL    HW178695   7.423   2.479   0.837
22211SOL    HW278696   7.542   2.387   0.901
22212SOL     OW78697   7.894   2.973   0.231
22212SOL    HW178698   7.994   2.973   0.242
22212SOL    HW278699   7.863   3.066   0.210
22213SOL     OW78700   8.520   2.565   0.047
22213SOL    HW178701   8.451   2.622   0.003
22213SOL    HW278702   8.601   2.559  -0.012
22214SOL     OW78703   8.255   2.484   0.190
22214SOL    HW178704   8.345   2.485   0.145
22214SOL    HW278705   8.232   2.390   0.215
22215SOL     OW78706   8.706   2.001   0.484
22215SOL    HW178707   8.616   1.985   0.525
22215SOL    HW278708   8.714   2.097   0.458
22216SOL     OW78709   8.820   2.401   1.500
22216SOL    HW178710   8.772   2.424   1.584
22216SOL    HW278711   8.754   2.371   1.431
22217SOL     OW78712   7.455   1.916   0.144
22217SOL    HW178713   7.518   1.839   0.152
22217SOL    HW278714   7.475   1.984   0.215
22218SOL     OW78715   7.728   2.891   1.145
22218SOL    HW178716   7.739   2.846   1.234
22218SOL    HW278717   7.755   2.987   1.152
22219SOL     OW78718   9.027   2.903   0.245
22219SOL    HW178719   9.098   2.973   0.247
22219SOL    HW278720   9.014   2.873   0.150
22220SOL     OW78721   8.009   2.504   1.167
22220SOL    HW178722   8.084   2.547   1.216
22220SOL    HW278723   7.942   2.469   1.233
22221SOL     OW78724   8.152   2.873   1.484
22221SOL    HW178725   8.221   2.925   1.434
22221SOL    HW278726   8.147   2.906   1.579
22222SOL     OW78727   8.544   2.894   1.644
22222SOL    HW178728   8.466   2.840   1.677
22222SOL    HW278729   8.625   2.872   1.699
22223SOL     OW78730   8.473   2.076   0.640
22223SOL    HW178731   8.532   2.136   0.695
22223SOL    HW278732   8.400   2.040   0.697
22224SOL     OW78733   8.583   3.608   1.680
22224SOL    HW178734   8.488   3.606   1.648
22224SOL    HW278735   8.604   3.699   1.717
22225SOL     OW78736   8.001   1.953   0.911
22225SOL    HW178737   7.929   1.886   0.897
22225SOL    HW278738   8.083   1.907   0.946
22226SOL     OW78739   7.701   3.618   1.278
22226SOL    HW178740   7.681   3.600   1.182
22226SOL    HW278741   7.628   3.580   1.335
22227SOL     OW78742   8.394   3.082   0.823
22227SOL    HW178743   8.433   3.125   0.742
22227SOL    HW278744   8.467   3.065   0.890
22228SOL     OW78745   8.088   2.810   1.025
22228SOL    HW178746   8.086   2.726   0.970
22228SOL    HW278747   8.037   2.796   1.110
22229SOL     OW78748   7.427   2.820   1.151
22229SOL    HW178749   7.516   2.798   1.191
22229SOL    HW278750   7.372   2.736   1.147
22230SOL     OW78751   7.655   1.865   0.431
22230SOL    HW178752   7.693   1.953   0.458
22230SOL    HW278753   7.578   1.841   0.491
22231SOL     OW78754   7.477   2.952   0.251
22231SOL    HW178755   7.467   2.855   0.230
22231SOL    HW278756   7.530   2.997   0.179
22232SOL     OW78757   9.174   2.064   0.852
22232SOL    HW178758   9.129   2.046   0.939
22232SOL    HW278759   9.272   2.081   0.868
22233SOL     OW78760   8.222   3.040   1.104
22233SOL    HW178761   8.173   2.955   1.085
22233SOL    HW278762   8.292   3.055   1.035
22234SOL     OW78763   8.560   2.463   0.313
22234SOL    HW178764   8.612   2.535   0.359
22234SOL    HW278765   8.573   2.470   0.215
22235SOL     OW78766   8.921   3.278   1.640
22235SOL    HW178767   8.906   3.180   1.654
22235SOL    HW278768   8.838   3.320   1.604
22236SOL     OW78769   7.678   2.720   1.380
22236SOL    HW178770   7.642   2.630   1.406
22236SOL    HW278771   7.639   2.790   1.440
22237SOL     OW78772   8.180   3.346   0.038
22237SOL    HW178773   8.155   3.423   0.097
22237SOL    HW278774   8.244   3.286   0.086
22238SOL     OW78775   7.998   3.553   1.072
22238SOL    HW178776   8.018   3.523   0.979
22238SOL    HW278777   7.923   3.498   1.109
22239SOL     OW78778   8.141   2.964   0.789
22239SOL    HW178779   8.230   3.010   0.789
22239SOL    HW278780   8.134   2.904   0.868
22240SOL     OW78781   8.319   3.311   0.458
22240SOL    HW178782   8.369   3.299   0.373
22240SOL    HW278783   8.265   3.228   0.477
22241SOL     OW78784   7.509   2.658   0.858
22241SOL    HW178785   7.604   2.649   0.826
22241SOL    HW278786   7.475   2.750   0.837
22242SOL     OW78787   7.446   2.775   1.785
22242SOL    HW178788   7.361   2.726   1.766
22242SOL    HW278789   7.473   2.762   1.880
22243SOL     OW78790   8.343   3.684   1.491
22243SOL    HW178791   8.315   3.597   1.532
22243SOL    HW278792   8.287   3.758   1.528
22244SOL     OW78793   8.572   3.031   1.021
22244SOL    HW178794   8.556   3.125   1.052
22244SOL    HW278795   8.575   2.970   1.101
22245SOL     OW78796   7.846   2.302   1.785
22245SOL    HW178797   7.882   2.249   1.708
22245SOL    HW278798   7.907   2.379   1.803
22246SOL     OW78799   7.910   2.719   0.357
22246SOL    HW178800   7.860   2.784   0.301
22246SOL    HW278801   7.852   2.640   0.376
22247SOL     OW78802   8.991   2.750   1.055
22247SOL    HW178803   9.010   2.789   0.964
22247SOL    HW278804   8.945   2.819   1.111
22248SOL     OW78805   8.683   2.193   1.351
22248SOL    HW178806   8.754   2.165   1.415
22248SOL    HW278807   8.630   2.113   1.323
22249SOL     OW78808   7.384   1.892   0.552
22249SOL    HW178809   7.297   1.879   0.505
22249SOL    HW278810   7.392   1.987   0.582
22250SOL     OW78811   8.605   1.993   1.793
22250SOL    HW178812   8.664   2.009   1.873
22250SOL    HW278813   8.552   2.076   1.774
22251SOL     OW78814   7.821   3.412   1.618
22251SOL    HW178815   7.763   3.477   1.667
22251SOL    HW278816   7.883   3.462   1.558
22252SOL     OW78817   9.177   3.299   1.559
22252SOL    HW178818   9.205   3.392   1.581
22252SOL    HW278819   9.084   3.283   1.592
22253SOL     OW78820   8.427   2.412   1.109
22253SOL    HW178821   8.513   2.463   1.108
22253SOL    HW278822   8.433   2.338   1.176
22254SOL     OW78823   7.831   3.358   0.681
22254SOL    HW178824   7.829   3.259   0.694
22254SOL    HW278825   7.740   3.391   0.658
22255SOL     OW78826   8.472   3.475   1.269
22255SOL    HW178827   8.398   3.539   1.287
22255SOL    HW278828   8.551   3.524   1.231
22256SOL     OW78829   7.681   3.605   1.768
22256SOL    HW178830   7.724   3.689   1.734
22256SOL    HW278831   7.706   3.592   1.864
22257SOL     OW78832   7.541   3.141   1.639
22257SOL    HW178833   7.520   3.046   1.612
22257SOL    HW278834   7.472   3.202   1.601
22258SOL     OW78835   7.630   3.506   1.043
22258SOL    HW178836   7.572   3.426   1.057
22258SOL    HW278837   7.654   3.513   0.946
22259SOL     OW78838   8.376   2.027   0.898
22259SOL    HW178839   8.472   2.028   0.926
22259SOL    HW278840   8.321   1.984   0.970
22260SOL     OW78841   8.438   3.033   0.414
22260SOL    HW178842   8.518   3.069   0.462
22260SOL    HW278843   8.396   2.960   0.470
22261SOL     OW78844   9.029   2.300   0.778
22261SOL    HW178845   9.048   2.386   0.825
22261SOL    HW278846   9.097   2.231   0.806
22262SOL     OW78847   8.172   2.972   0.264
22262SOL    HW178848   8.244   3.031   0.229
22262SOL    HW278849   8.212   2.888   0.300
22263SOL     OW78850   8.243   1.948   0.116
22263SOL    HW178851   8.318   1.882   0.128
22263SOL    HW278852   8.274   2.039   0.144
22264SOL     OW78853   7.922   2.377   0.728
22264SOL    HW178854   7.960   2.288   0.754
22264SOL    HW278855   7.989   2.427   0.673
22265SOL     OW78856   7.910   2.935   1.382
22265SOL    HW178857   8.006   2.915   1.402
22265SOL    HW278858   7.899   3.033   1.364
22266SOL     OW78859   9.132   2.978   1.351
22266SOL    HW178860   9.146   3.076   1.365
22266SOL    HW278861   9.189   2.947   1.275
22267SOL     OW78862   7.615   3.087   0.043
22267SOL    HW178863   7.607   3.099  -0.056
22267SOL    HW278864   7.674   3.158   0.081
22268SOL     OW78865   8.042   3.526   0.203
22268SOL    HW178866   8.017   3.621   0.187
22268SOL    HW278867   8.009   3.498   0.293
22269SOL     OW78868   8.692   2.949   1.427
22269SOL    HW178869   8.636   2.908   1.498
22269SOL    HW278870   8.672   3.047   1.421
22270SOL     OW78871   7.959   3.565   1.427
22270SOL    HW178872   8.008   3.645   1.391
22270SOL    HW278873   7.867   3.563   1.388
22271SOL     OW78874   7.602   2.446   1.789
22271SOL    HW178875   7.619   2.347   1.794
22271SOL    HW278876   7.666   2.494   1.850
22272SOL     OW78877   9.041   3.407   1.028
22272SOL    HW178878   9.013   3.500   1.052
22272SOL    HW278879   9.091   3.366   1.104
22273SOL     OW78880   7.437   2.780   0.589
22273SOL    HW178881   7.444   2.879   0.576
22273SOL    HW278882   7.346   2.757   0.623
22274SOL     OW78883   9.013   2.954   0.839
22274SOL    HW178884   8.975   3.043   0.812
22274SOL    HW278885   9.013   2.892   0.761
22275SOL     OW78886   8.171   2.360   1.008
22275SOL    HW178887   8.263   2.388   1.035
22275SOL    HW278888   8.103   2.411   1.062
22276SOL     OW78889   8.024   3.211   1.235
22276SOL    HW178890   7.937   3.210   1.186
22276SOL    HW278891   8.090   3.151   1.188
22277SOL     OW78892   7.590   2.553   1.149
22277SOL    HW178893   7.628   2.612   1.220
22277SOL    HW278894   7.573   2.606   1.067
22278SOL     OW78895   7.761   3.199   1.447
22278SOL    HW178896   7.780   3.287   1.491
22278SOL    HW278897   7.666   3.173   1.465
22279SOL     OW78898   9.004   3.515   1.795
22279SOL    HW178899   8.973   3.437   1.740
22279SOL    HW278900   8.973   3.600   1.753
22280SOL     OW78901   8.712   3.053   0.516
22280SOL    HW178902   8.811   3.057   0.532
22280SOL    HW278903   8.695   3.039   0.418
22281SOL     OW78904   8.065   2.219   0.464
22281SOL    HW178905   7.967   2.213   0.444
22281SOL    HW278906   8.084   2.176   0.552
22282SOL     OW78907   8.985   1.902   0.723
22282SOL    HW178908   8.980   1.943   0.632
22282SOL    HW278909   9.066   1.936   0.770
22283SOL     OW78910   8.588   2.658   1.416
22283SOL    HW178911   8.687   2.667   1.406
22283SOL    HW278912   8.544   2.660   1.326
22284SOL     OW78913   8.082   2.618   0.818
22284SOL    HW178914   8.104   2.540   0.876
22284SOL    HW278915   8.091   2.592   0.722
22285SOL     OW78916   8.747   3.325   1.030
22285SOL    HW178917   8.661   3.282   1.059
22285SOL    HW278918   8.736   3.365   0.939
22286SOL     OW78919   8.750   2.310   0.705
22286SOL    HW178920   8.749   2.302   0.606
22286SOL    HW278921   8.839   2.282   0.740
22287SOL     OW78922   8.477   3.326   2.537
22287SOL    HW178923   8.568   3.360   2.560
22287SOL    HW278924   8.449   3.364   2.449
22288SOL     OW78925   8.988   3.122   2.395
22288SOL    HW178926   8.999   3.206   2.449
22288SOL    HW278927   9.078   3.085   2.372
22289SOL     OW78928   9.068   2.404   3.259
22289SOL    HW178929   8.970   2.396   3.281
22289SOL    HW278930   9.121   2.393   3.343
22290SOL     OW78931   7.735   2.041   1.864
22290SOL    HW178932   7.648   2.038   1.815
22290SOL    HW278933   7.786   2.123   1.836
22291SOL     OW78934   8.600   1.941   3.197
22291SOL    HW178935   8.524   1.896   3.244
22291SOL    HW278936   8.629   1.886   3.119
22292SOL     OW78937   8.338   2.721   3.574
22292SOL    HW178938   8.303   2.696   3.484
22292SOL    HW278939   8.262   2.742   3.635
22293SOL     OW78940   7.945   3.395   2.268
22293SOL    HW178941   7.901   3.404   2.357
22293SOL    HW278942   8.016   3.325   2.272
22294SOL     OW78943   7.963   1.928   1.990
22294SOL    HW178944   8.051   1.956   1.951
22294SOL    HW278945   7.891   1.991   1.960
22295SOL     OW78946   8.933   2.913   3.373
22295SOL    HW178947   8.841   2.918   3.335
22295SOL    HW278948   8.998   2.951   3.307
22296SOL     OW78949   8.833   2.920   3.054
22296SOL    HW178950   8.758   2.909   3.119
22296SOL    HW278951   8.870   3.013   3.060
22297SOL     OW78952   8.329   3.175   3.354
22297SOL    HW178953   8.272   3.238   3.300
22297SOL    HW278954   8.362   3.101   3.295
22298SOL     OW78955   7.872   3.068   2.563
22298SOL    HW178956   7.805   3.022   2.622
22298SOL    HW278957   7.964   3.036   2.586
22299SOL     OW78958   8.099   2.474   2.394
22299SOL    HW178959   8.138   2.544   2.335
22299SOL    HW278960   8.073   2.394   2.340
22300SOL     OW78961   8.719   2.382   3.603
22300SOL    HW178962   8.815   2.386   3.629
22300SOL    HW278963   8.675   2.306   3.650
22301SOL     OW78964   7.802   3.237   2.047
22301SOL    HW178965   7.866   3.253   1.972
22301SOL    HW278966   7.826   3.295   2.125
22302SOL     OW78967   7.953   2.193   2.857
22302SOL    HW178968   8.029   2.258   2.853
22302SOL    HW278969   7.983   2.104   2.824
22303SOL     OW78970   7.650   2.619   2.275
22303SOL    HW178971   7.665   2.553   2.349
22303SOL    HW278972   7.600   2.698   2.310
22304SOL     OW78973   8.236   3.564   2.452
22304SOL    HW178974   8.301   3.497   2.416
22304SOL    HW278975   8.226   3.640   2.388
22305SOL     OW78976   9.040   2.139   2.965
22305SOL    HW178977   9.091   2.211   2.918
22305SOL    HW278978   8.945   2.166   2.974
22306SOL     OW78979   8.440   2.168   2.234
22306SOL    HW178980   8.465   2.262   2.255
22306SOL    HW278981   8.441   2.114   2.318
22307SOL     OW78982   7.564   2.881   3.419
22307SOL    HW178983   7.660   2.896   3.437
22307SOL    HW278984   7.526   2.819   3.488
22308SOL     OW78985   7.890   2.526   1.962
22308SOL    HW178986   7.850   2.605   1.915
22308SOL    HW278987   7.979   2.505   1.922
22309SOL     OW78988   8.063   3.450   2.660
22309SOL    HW178989   8.136   3.473   2.596
22309SOL    HW278990   7.992   3.397   2.614
22310SOL     OW78991   8.405   2.482   3.414
22310SOL    HW178992   8.438   2.399   3.461
22310SOL    HW278993   8.478   2.550   3.413
22311SOL     OW78994   9.009   3.282   2.636
22311SOL    HW178995   9.005   3.317   2.729
22311SOL    HW278996   9.068   3.341   2.580
22312SOL     OW78997   7.740   3.103   2.312
22312SOL    HW178998   7.786   3.077   2.397
22312SOL    HW278999   7.760   3.035   2.241
22313SOL     OW79000   8.598   2.158   2.023
22313SOL    HW179001   8.692   2.128   2.041
22313SOL    HW279002   8.546   2.158   2.109
22314SOL     OW79003   7.750   2.363   3.118
22314SOL    HW179004   7.740   2.276   3.070
22314SOL    HW279005   7.686   2.430   3.081
22315SOL     OW79006   8.832   2.643   3.156
22315SOL    HW179007   8.836   2.737   3.121
22315SOL    HW279008   8.925   2.612   3.178
22316SOL     OW79009   7.785   2.135   2.277
22316SOL    HW179010   7.739   2.175   2.356
22316SOL    HW279011   7.733   2.154   2.195
22317SOL     OW79012   8.913   3.662   3.189
22317SOL    HW179013   8.856   3.613   3.123
22317SOL    HW279014   8.999   3.689   3.146
22318SOL     OW79015   9.208   2.380   3.044
22318SOL    HW179016   9.265   2.462   3.046
22318SOL    HW279017   9.149   2.379   3.124
22319SOL     OW79018   9.225   3.606   2.957
22319SOL    HW179019   9.271   3.616   3.045
22319SOL    HW279020   9.292   3.609   2.884
22320SOL     OW79021   8.338   2.346   2.519
22320SOL    HW179022   8.414   2.374   2.578
22320SOL    HW279023   8.294   2.426   2.480
22321SOL     OW79024   8.573   2.810   2.036
22321SOL    HW179025   8.610   2.760   2.114
22321SOL    HW279026   8.503   2.755   1.991
22322SOL     OW79027   8.415   2.232   3.657
22322SOL    HW179028   8.478   2.237   3.734
22322SOL    HW279029   8.323   2.210   3.690
22323SOL     OW79030   9.156   2.479   2.115
22323SOL    HW179031   9.177   2.398   2.061
22323SOL    HW279032   9.173   2.460   2.212
22324SOL     OW79033   8.131   1.884   3.555
22324SOL    HW179034   8.138   1.790   3.522
22324SOL    HW279035   8.188   1.894   3.637
22325SOL     OW79036   9.054   2.485   2.823
22325SOL    HW179037   9.039   2.576   2.860
22325SOL    HW279038   9.124   2.438   2.877
22326SOL     OW79039   8.464   3.151   3.589
22326SOL    HW179040   8.486   3.061   3.551
22326SOL    HW279041   8.399   3.198   3.530
22327SOL     OW79042   8.119   2.993   3.593
22327SOL    HW179043   8.090   3.070   3.650
22327SOL    HW279044   8.129   2.912   3.651
22328SOL     OW79045   8.754   1.857   2.699
22328SOL    HW179046   8.703   1.941   2.681
22328SOL    HW279047   8.840   1.859   2.648
22329SOL     OW79048   9.109   2.063   3.628
22329SOL    HW179049   9.086   2.084   3.723
22329SOL    HW279050   9.085   1.968   3.608
22330SOL     OW79051   7.412   2.467   2.372
22330SOL    HW179052   7.414   2.418   2.459
22330SOL    HW279053   7.414   2.566   2.390
22331SOL     OW79054   7.733   2.055   2.693
22331SOL    HW179055   7.785   2.095   2.768
22331SOL    HW279056   7.786   1.982   2.650
22332SOL     OW79057   7.717   2.103   3.027
22332SOL    HW179058   7.682   2.010   3.027
22332SOL    HW279059   7.804   2.106   2.978
22333SOL     OW79060   8.384   2.725   2.767
22333SOL    HW179061   8.410   2.805   2.713
22333SOL    HW279062   8.378   2.645   2.707
22334SOL     OW79063   7.585   3.352   2.226
22334SOL    HW179064   7.612   3.258   2.246
22334SOL    HW279065   7.610   3.374   2.132
22335SOL     OW79066   8.867   3.221   3.100
22335SOL    HW179067   8.838   3.258   3.011
22335SOL    HW279068   8.789   3.221   3.162
22336SOL     OW79069   9.120   3.292   3.138
22336SOL    HW179070   9.151   3.306   3.232
22336SOL    HW279071   9.021   3.279   3.137
22337SOL     OW79072   7.872   2.792   1.865
22337SOL    HW179073   7.841   2.826   1.777
22337SOL    HW279074   7.876   2.867   1.931
22338SOL     OW79075   8.389   2.979   3.164
22338SOL    HW179076   8.439   2.894   3.148
22338SOL    HW279077   8.343   3.006   3.079
22339SOL     OW79078   7.476   2.684   2.038
22339SOL    HW179079   7.536   2.631   2.098
22339SOL    HW279080   7.382   2.652   2.050
22340SOL     OW79081   8.996   2.682   2.238
22340SOL    HW179082   9.064   2.616   2.205
22340SOL    HW279083   9.011   2.770   2.194
22341SOL     OW79084   8.244   3.669   2.886
22341SOL    HW179085   8.290   3.602   2.828
22341SOL    HW279086   8.170   3.625   2.936
22342SOL     OW79087   8.151   2.738   1.922
22342SOL    HW179088   8.180   2.657   1.973
22342SOL    HW279089   8.051   2.737   1.913
22343SOL     OW79090   8.747   2.270   2.268
22343SOL    HW179091   8.684   2.328   2.216
22343SOL    HW279092   8.840   2.304   2.256
22344SOL     OW79093   7.644   2.471   3.368
22344SOL    HW179094   7.664   2.376   3.343
22344SOL    HW279095   7.607   2.474   3.461
22345SOL     OW79096   7.526   2.126   3.258
22345SOL    HW179097   7.598   2.136   3.189
22345SOL    HW279098   7.437   2.125   3.213
22346SOL     OW79099   8.424   2.747   3.023
22346SOL    HW179100   8.418   2.733   2.924
22346SOL    HW279101   8.343   2.708   3.067
22347SOL     OW79102   9.015   2.281   2.338
22347SOL    HW179103   9.111   2.252   2.335
22347SOL    HW279104   8.976   2.259   2.427
22348SOL     OW79105   8.299   3.356   2.775
22348SOL    HW179106   8.357   3.367   2.694
22348SOL    HW279107   8.205   3.380   2.753
22349SOL     OW79108   8.249   2.222   2.060
22349SOL    HW179109   8.158   2.235   2.098
22349SOL    HW279110   8.309   2.182   2.130
22350SOL     OW79111   8.360   3.167   1.995
22350SOL    HW179112   8.413   3.107   2.055
22350SOL    HW279113   8.399   3.168   1.904
22351SOL     OW79114   8.526   2.735   2.469
22351SOL    HW179115   8.591   2.763   2.540
22351SOL    HW279116   8.447   2.796   2.471
22352SOL     OW79117   8.274   3.461   3.493
22352SOL    HW179118   8.262   3.392   3.422
22352SOL    HW279119   8.237   3.426   3.580
22353SOL     OW79120   8.718   2.775   2.672
22353SOL    HW179121   8.739   2.717   2.750
22353SOL    HW279122   8.727   2.871   2.698
22354SOL     OW79123   7.674   2.904   2.718
22354SOL    HW179124   7.597   2.966   2.711
22354SOL    HW279125   7.711   2.905   2.811
22355SOL     OW79126   8.307   2.852   2.417
22355SOL    HW179127   8.294   2.763   2.374
22355SOL    HW279128   8.238   2.866   2.488
22356SOL     OW79129   8.611   3.240   3.256
22356SOL    HW179130   8.644   3.325   3.297
22356SOL    HW279131   8.512   3.236   3.263
22357SOL     OW79132   7.418   2.157   2.320
22357SOL    HW179133   7.478   2.108   2.258
22357SOL    HW279134   7.473   2.209   2.385
22358SOL     OW79135   8.205   2.622   3.169
22358SOL    HW179136   8.207   2.708   3.220
22358SOL    HW279137   8.262   2.554   3.216
22359SOL     OW79138   7.442   3.649   3.240
22359SOL    HW179139   7.450   3.749   3.238
22359SOL    HW279140   7.418   3.620   3.333
22360SOL     OW79141   8.223   2.668   2.234
22360SOL    HW179142   8.134   2.696   2.199
22360SOL    HW279143   8.264   2.602   2.170
22361SOL     OW79144   7.745   2.386   2.773
22361SOL    HW179145   7.801   2.379   2.690
22361SOL    HW279146   7.802   2.364   2.853
22362SOL     OW79147   7.742   3.584   2.044
22362SOL    HW179148   7.834   3.614   2.019
22362SOL    HW279149   7.717   3.623   2.133
22363SOL     OW79150   8.718   3.606   2.981
22363SOL    HW179151   8.737   3.669   2.907
22363SOL    HW279152   8.726   3.512   2.948
22364SOL     OW79153   7.423   3.001   2.793
22364SOL    HW179154   7.333   3.017   2.754
22364SOL    HW279155   7.421   2.917   2.848
22365SOL     OW79156   8.174   1.906   2.243
22365SOL    HW179157   8.135   1.895   2.152
22365SOL    HW279158   8.130   1.982   2.290
22366SOL     OW79159   7.419   3.042   2.337
22366SOL    HW179160   7.497   3.100   2.361
22366SOL    HW279161   7.438   2.993   2.252
22367SOL     OW79162   8.949   2.170   3.421
22367SOL    HW179163   8.888   2.248   3.418
22367SOL    HW279164   9.004   2.174   3.504
22368SOL     OW79165   8.665   2.116   2.712
22368SOL    HW179166   8.664   2.194   2.649
22368SOL    HW279167   8.708   2.143   2.798
22369SOL     OW79168   8.785   1.922   2.008
22369SOL    HW179169   8.865   1.862   2.005
22369SOL    HW279170   8.711   1.875   2.056
22370SOL     OW79171   8.998   1.894   3.442
22370SOL    HW179172   9.024   1.851   3.356
22370SOL    HW279173   8.948   1.978   3.424
22371SOL     OW79174   8.100   2.153   2.574
22371SOL    HW179175   8.089   2.095   2.655
22371SOL    HW279176   8.185   2.205   2.582
22372SOL     OW79177   8.680   2.504   2.966
22372SOL    HW179178   8.734   2.544   2.892
22372SOL    HW279179   8.718   2.533   3.054
22373SOL     OW79180   8.973   1.910   2.282
22373SOL    HW179181   8.980   1.864   2.194
22373SOL    HW279182   8.877   1.920   2.307
22374SOL     OW79183   7.949   3.225   3.645
22374SOL    HW179184   7.910   3.288   3.578
22374SOL    HW279185   8.032   3.265   3.685
22375SOL     OW79186   7.825   2.957   3.477
22375SOL    HW179187   7.844   2.981   3.382
22375SOL    HW279188   7.818   3.040   3.532
22376SOL     OW79189   7.486   3.247   2.951
22376SOL    HW179190   7.455   3.173   2.892
22376SOL    HW279191   7.418   3.265   3.022
22377SOL     OW79192   8.572   2.448   2.684
22377SOL    HW179193   8.654   2.425   2.632
22377SOL    HW279194   8.567   2.389   2.765
22378SOL     OW79195   9.172   2.475   3.520
22378SOL    HW179196   9.161   2.561   3.469
22378SOL    HW279197   9.266   2.466   3.550
22379SOL     OW79198   8.743   2.248   2.939
22379SOL    HW179199   8.717   2.345   2.945
22379SOL    HW279200   8.743   2.208   3.031
22380SOL     OW79201   8.973   2.380   3.690
22380SOL    HW179202   9.053   2.405   3.634
22380SOL    HW279203   9.004   2.345   3.778
22381SOL     OW79204   8.684   2.683   2.270
22381SOL    HW179205   8.630   2.681   2.354
22381SOL    HW279206   8.761   2.746   2.281
22382SOL     OW79207   8.981   2.779   2.490
22382SOL    HW179208   8.995   2.742   2.397
22382SOL    HW279209   8.892   2.749   2.524
22383SOL     OW79210   9.137   2.716   3.385
22383SOL    HW179211   9.039   2.737   3.387
22383SOL    HW279212   9.186   2.792   3.344
22384SOL     OW79213   8.991   2.136   2.064
22384SOL    HW179214   8.996   2.178   2.155
22384SOL    HW279215   8.924   2.061   2.066
22385SOL     OW79216   8.138   3.351   3.284
22385SOL    HW179217   8.075   3.429   3.291
22385SOL    HW279218   8.106   3.289   3.212
22386SOL     OW79219   7.529   2.146   3.549
22386SOL    HW179220   7.547   2.135   3.451
22386SOL    HW279221   7.431   2.142   3.566
22387SOL     OW79222   7.409   3.560   3.493
22387SOL    HW179223   7.481   3.546   3.561
22387SOL    HW279224   7.320   3.563   3.538
22388SOL     OW79225   7.577   2.216   2.517
22388SOL    HW179226   7.520   2.271   2.578
22388SOL    HW279227   7.647   2.168   2.570
22389SOL     OW79228   8.749   3.448   3.380
22389SOL    HW179229   8.702   3.516   3.435
22389SOL    HW279230   8.816   3.494   3.321
22390SOL     OW79231   7.714   2.407   2.115
22390SOL    HW179232   7.786   2.436   2.052
22390SOL    HW279233   7.670   2.487   2.155
22391SOL     OW79234   9.100   2.069   3.218
22391SOL    HW179235   9.056   2.117   3.294
22391SOL    HW279236   9.078   2.115   3.132
22392SOL     OW79237   7.829   3.670   2.581
22392SOL    HW179238   7.753   3.636   2.526
22392SOL    HW279239   7.915   3.633   2.546
22393SOL     OW79240   7.754   3.179   3.026
22393SOL    HW179241   7.766   3.195   3.123
22393SOL    HW279242   7.667   3.219   2.996
22394SOL     OW79243   8.638   3.383   3.672
22394SOL    HW179244   8.597   3.298   3.638
22394SOL    HW279245   8.618   3.457   3.608
22395SOL     OW79246   8.128   3.103   2.362
22395SOL    HW179247   8.171   3.034   2.304
22395SOL    HW279248   8.092   3.060   2.445
22396SOL     OW79249   7.760   2.654   2.564
22396SOL    HW179250   7.752   2.752   2.582
22396SOL    HW279251   7.844   2.620   2.605
22397SOL     OW79252   7.606   2.134   2.079
22397SOL    HW179253   7.650   2.103   1.996
22397SOL    HW279254   7.607   2.234   2.083
22398SOL     OW79255   7.459   2.386   2.690
22398SOL    HW179256   7.423   2.479   2.682
22398SOL    HW279257   7.542   2.387   2.746
22399SOL     OW79258   7.894   2.973   2.076
22399SOL    HW179259   7.994   2.973   2.087
22399SOL    HW279260   7.863   3.066   2.055
22400SOL     OW79261   8.520   2.565   1.892
22400SOL    HW179262   8.451   2.622   1.848
22400SOL    HW279263   8.601   2.559   1.833
22401SOL     OW79264   8.706   2.001   2.329
22401SOL    HW179265   8.616   1.985   2.370
22401SOL    HW279266   8.714   2.097   2.303
22402SOL     OW79267   8.820   2.401   3.345
22402SOL    HW179268   8.772   2.424   3.429
22402SOL    HW279269   8.754   2.371   3.276
22403SOL     OW79270   7.455   1.916   1.989
22403SOL    HW179271   7.518   1.839   1.997
22403SOL    HW279272   7.475   1.984   2.060
22404SOL     OW79273   7.728   2.891   2.990
22404SOL    HW179274   7.739   2.846   3.079
22404SOL    HW279275   7.755   2.987   2.997
22405SOL     OW79276   9.027   2.903   2.090
22405SOL    HW179277   9.098   2.973   2.092
22405SOL    HW279278   9.014   2.873   1.995
22406SOL     OW79279   8.009   2.504   3.012
22406SOL    HW179280   8.084   2.547   3.061
22406SOL    HW279281   7.942   2.469   3.078
22407SOL     OW79282   8.152   2.873   3.329
22407SOL    HW179283   8.221   2.925   3.279
22407SOL    HW279284   8.147   2.906   3.424
22408SOL     OW79285   8.544   2.894   3.489
22408SOL    HW179286   8.466   2.840   3.522
22408SOL    HW279287   8.625   2.872   3.544
22409SOL     OW79288   8.473   2.076   2.485
22409SOL    HW179289   8.532   2.136   2.540
22409SOL    HW279290   8.400   2.040   2.542
22410SOL     OW79291   8.583   3.608   3.525
22410SOL    HW179292   8.488   3.606   3.493
22410SOL    HW279293   8.604   3.699   3.562
22411SOL     OW79294   8.001   1.953   2.756
22411SOL    HW179295   7.929   1.886   2.742
22411SOL    HW279296   8.083   1.907   2.791
22412SOL     OW79297   7.701   3.618   3.123
22412SOL    HW179298   7.681   3.600   3.027
22412SOL    HW279299   7.628   3.580   3.180
22413SOL     OW79300   8.394   3.082   2.668
22413SOL    HW179301   8.433   3.125   2.587
22413SOL    HW279302   8.467   3.065   2.735
22414SOL     OW79303   8.088   2.810   2.870
22414SOL    HW179304   8.086   2.726   2.815
22414SOL    HW279305   8.037   2.796   2.955
22415SOL     OW79306   7.427   2.820   2.996
22415SOL    HW179307   7.516   2.798   3.036
22415SOL    HW279308   7.372   2.736   2.992
22416SOL     OW79309   7.655   1.865   2.276
22416SOL    HW179310   7.693   1.953   2.303
22416SOL    HW279311   7.578   1.841   2.336
22417SOL     OW79312   8.071   2.482   3.604
22417SOL    HW179313   8.023   2.533   3.533
22417SOL    HW279314   8.164   2.461   3.574
22418SOL     OW79315   7.477   2.952   2.096
22418SOL    HW179316   7.467   2.855   2.075
22418SOL    HW279317   7.530   2.997   2.024
22419SOL     OW79318   9.174   2.064   2.697
22419SOL    HW179319   9.129   2.046   2.784
22419SOL    HW279320   9.272   2.081   2.713
22420SOL     OW79321   8.222   3.040   2.949
22420SOL    HW179322   8.173   2.955   2.930
22420SOL    HW279323   8.292   3.055   2.880
22421SOL     OW79324   8.560   2.463   2.158
22421SOL    HW179325   8.612   2.535   2.204
22421SOL    HW279326   8.573   2.470   2.060
22422SOL     OW79327   8.921   3.278   3.485
22422SOL    HW179328   8.906   3.180   3.499
22422SOL    HW279329   8.838   3.320   3.449
22423SOL     OW79330   7.678   2.720   3.225
22423SOL    HW179331   7.642   2.630   3.251
22423SOL    HW279332   7.639   2.790   3.285
22424SOL     OW79333   8.180   3.346   1.883
22424SOL    HW179334   8.155   3.423   1.942
22424SOL    HW279335   8.244   3.286   1.931
22425SOL     OW79336   7.998   3.553   2.917
22425SOL    HW179337   8.018   3.523   2.824
22425SOL    HW279338   7.923   3.498   2.954
22426SOL     OW79339   8.141   2.964   2.634
22426SOL    HW179340   8.230   3.010   2.634
22426SOL    HW279341   8.134   2.904   2.713
22427SOL     OW79342   8.319   3.311   2.303
22427SOL    HW179343   8.369   3.299   2.218
22427SOL    HW279344   8.265   3.228   2.322
22428SOL     OW79345   7.509   2.658   2.703
22428SOL    HW179346   7.604   2.649   2.671
22428SOL    HW279347   7.475   2.750   2.682
22429SOL     OW79348   7.446   2.775   3.630
22429SOL    HW179349   7.361   2.726   3.611
22429SOL    HW279350   7.473   2.762   3.725
22430SOL     OW79351   8.343   3.684   3.336
22430SOL    HW179352   8.315   3.597   3.377
22430SOL    HW279353   8.287   3.758   3.373
22431SOL     OW79354   8.572   3.031   2.866
22431SOL    HW179355   8.556   3.125   2.897
22431SOL    HW279356   8.575   2.970   2.946
22432SOL     OW79357   7.846   2.302   3.630
22432SOL    HW179358   7.882   2.249   3.553
22432SOL    HW279359   7.907   2.379   3.648
22433SOL     OW79360   7.910   2.719   2.202
22433SOL    HW179361   7.860   2.784   2.146
22433SOL    HW279362   7.852   2.640   2.221
22434SOL     OW79363   8.991   2.750   2.900
22434SOL    HW179364   9.010   2.789   2.809
22434SOL    HW279365   8.945   2.819   2.956
22435SOL     OW79366   8.683   2.193   3.196
22435SOL    HW179367   8.754   2.165   3.260
22435SOL    HW279368   8.630   2.113   3.168
22436SOL     OW79369   7.384   1.892   2.397
22436SOL    HW179370   7.297   1.879   2.350
22436SOL    HW279371   7.392   1.987   2.427
22437SOL     OW79372   8.605   1.993   3.638
22437SOL    HW179373   8.664   2.009   3.718
22437SOL    HW279374   8.552   2.076   3.619
22438SOL     OW79375   7.821   3.412   3.463
22438SOL    HW179376   7.763   3.477   3.512
22438SOL    HW279377   7.883   3.462   3.403
22439SOL     OW79378   9.177   3.299   3.404
22439SOL    HW179379   9.205   3.392   3.426
22439SOL    HW279380   9.084   3.283   3.437
22440SOL     OW79381   8.427   2.412   2.954
22440SOL    HW179382   8.513   2.463   2.953
22440SOL    HW279383   8.433   2.338   3.021
22441SOL     OW79384   7.831   3.358   2.526
22441SOL    HW179385   7.829   3.259   2.539
22441SOL    HW279386   7.740   3.391   2.503
22442SOL     OW79387   8.472   3.475   3.114
22442SOL    HW179388   8.398   3.539   3.132
22442SOL    HW279389   8.551   3.524   3.076
22443SOL     OW79390   7.681   3.605   3.613
22443SOL    HW179391   7.724   3.689   3.579
22443SOL    HW279392   7.706   3.592   3.709
22444SOL     OW79393   7.541   3.141   3.484
22444SOL    HW179394   7.520   3.046   3.457
22444SOL    HW279395   7.472   3.202   3.446
22445SOL     OW79396   7.630   3.506   2.888
22445SOL    HW179397   7.572   3.426   2.902
22445SOL    HW279398   7.654   3.513   2.791
22446SOL     OW79399   8.376   2.027   2.743
22446SOL    HW179400   8.472   2.028   2.771
22446SOL    HW279401   8.321   1.984   2.815
22447SOL     OW79402   8.438   3.033   2.259
22447SOL    HW179403   8.518   3.069   2.307
22447SOL    HW279404   8.396   2.960   2.315
22448SOL     OW79405   9.029   2.300   2.623
22448SOL    HW179406   9.048   2.386   2.670
22448SOL    HW279407   9.097   2.231   2.651
22449SOL     OW79408   8.172   2.972   2.109
22449SOL    HW179409   8.244   3.031   2.074
22449SOL    HW279410   8.212   2.888   2.145
22450SOL     OW79411   8.243   1.948   1.961
22450SOL    HW179412   8.318   1.882   1.973
22450SOL    HW279413   8.274   2.039   1.989
22451SOL     OW79414   7.922   2.377   2.573
22451SOL    HW179415   7.960   2.288   2.599
22451SOL    HW279416   7.989   2.427   2.518
22452SOL     OW79417   7.910   2.935   3.227
22452SOL    HW179418   8.006   2.915   3.247
22452SOL    HW279419   7.899   3.033   3.209
22453SOL     OW79420   9.132   2.978   3.196
22453SOL    HW179421   9.146   3.076   3.210
22453SOL    HW279422   9.189   2.947   3.120
22454SOL     OW79423   7.615   3.087   1.888
22454SOL    HW179424   7.607   3.099   1.789
22454SOL    HW279425   7.674   3.158   1.926
22455SOL     OW79426   8.042   3.526   2.048
22455SOL    HW179427   8.017   3.621   2.032
22455SOL    HW279428   8.009   3.498   2.138
22456SOL     OW79429   8.692   2.949   3.272
22456SOL    HW179430   8.636   2.908   3.343
22456SOL    HW279431   8.672   3.047   3.266
22457SOL     OW79432   7.959   3.565   3.272
22457SOL    HW179433   8.008   3.645   3.236
22457SOL    HW279434   7.867   3.563   3.233
22458SOL     OW79435   7.602   2.446   3.634
22458SOL    HW179436   7.619   2.347   3.639
22458SOL    HW279437   7.666   2.494   3.695
22459SOL     OW79438   9.041   3.407   2.873
22459SOL    HW179439   9.013   3.500   2.897
22459SOL    HW279440   9.091   3.366   2.949
22460SOL     OW79441   7.437   2.780   2.434
22460SOL    HW179442   7.444   2.879   2.421
22460SOL    HW279443   7.346   2.757   2.468
22461SOL     OW79444   7.946   2.578   3.372
22461SOL    HW179445   7.852   2.548   3.353
22461SOL    HW279446   7.955   2.675   3.349
22462SOL     OW79447   9.013   2.954   2.684
22462SOL    HW179448   8.975   3.043   2.657
22462SOL    HW279449   9.013   2.892   2.606
22463SOL     OW79450   8.171   2.360   2.853
22463SOL    HW179451   8.263   2.388   2.880
22463SOL    HW279452   8.103   2.411   2.907
22464SOL     OW79453   8.024   3.211   3.080
22464SOL    HW179454   7.937   3.210   3.031
22464SOL    HW279455   8.090   3.151   3.033
22465SOL     OW79456   7.590   2.553   2.994
22465SOL    HW179457   7.628   2.612   3.065
22465SOL    HW279458   7.573   2.606   2.912
22466SOL     OW79459   7.761   3.199   3.292
22466SOL    HW179460   7.780   3.287   3.336
22466SOL    HW279461   7.666   3.173   3.310
22467SOL     OW79462   9.004   3.515   3.640
22467SOL    HW179463   8.973   3.437   3.585
22467SOL    HW279464   8.973   3.600   3.598
22468SOL     OW79465   8.712   3.053   2.361
22468SOL    HW179466   8.811   3.057   2.377
22468SOL    HW279467   8.695   3.039   2.263
22469SOL     OW79468   8.065   2.219   2.309
22469SOL    HW179469   7.967   2.213   2.289
22469SOL    HW279470   8.084   2.176   2.397
22470SOL     OW79471   8.985   1.902   2.568
22470SOL    HW179472   8.980   1.943   2.477
22470SOL    HW279473   9.066   1.936   2.615
22471SOL     OW79474   8.588   2.658   3.261
22471SOL    HW179475   8.687   2.667   3.251
22471SOL    HW279476   8.544   2.660   3.171
22472SOL     OW79477   8.082   2.618   2.663
22472SOL    HW179478   8.104   2.540   2.721
22472SOL    HW279479   8.091   2.592   2.567
22473SOL     OW79480   8.747   3.325   2.875
22473SOL    HW179481   8.661   3.282   2.904
22473SOL    HW279482   8.736   3.365   2.784
22474SOL     OW79483   8.750   2.310   2.550
22474SOL    HW179484   8.749   2.302   2.451
22474SOL    HW279485   8.839   2.282   2.585
22475SOL     OW79486   8.477   3.326   4.383
22475SOL    HW179487   8.568   3.360   4.406
22475SOL    HW279488   8.449   3.364   4.295
22476SOL     OW79489   8.988   3.122   4.241
22476SOL    HW179490   8.999   3.206   4.295
22476SOL    HW279491   9.078   3.085   4.218
22477SOL     OW79492   9.068   2.404   5.105
22477SOL    HW179493   8.970   2.396   5.127
22477SOL    HW279494   9.121   2.393   5.189
22478SOL     OW79495   7.735   2.041   3.710
22478SOL    HW179496   7.648   2.038   3.661
22478SOL    HW279497   7.786   2.123   3.682
22479SOL     OW79498   8.722   3.430   4.485
22479SOL    HW179499   8.711   3.527   4.508
22479SOL    HW279500   8.815   3.413   4.455
22480SOL     OW79501   8.600   1.941   5.043
22480SOL    HW179502   8.524   1.896   5.090
22480SOL    HW279503   8.629   1.886   4.965
22481SOL     OW79504   8.338   2.721   5.420
22481SOL    HW179505   8.303   2.696   5.330
22481SOL    HW279506   8.262   2.742   5.481
22482SOL     OW79507   7.945   3.395   4.114
22482SOL    HW179508   7.901   3.404   4.203
22482SOL    HW279509   8.016   3.325   4.118
22483SOL     OW79510   7.963   1.928   3.836
22483SOL    HW179511   8.051   1.956   3.797
22483SOL    HW279512   7.891   1.991   3.806
22484SOL     OW79513   8.933   2.913   5.219
22484SOL    HW179514   8.841   2.918   5.181
22484SOL    HW279515   8.998   2.951   5.153
22485SOL     OW79516   8.833   2.920   4.900
22485SOL    HW179517   8.758   2.909   4.965
22485SOL    HW279518   8.870   3.013   4.906
22486SOL     OW79519   8.329   3.175   5.200
22486SOL    HW179520   8.272   3.238   5.146
22486SOL    HW279521   8.362   3.101   5.141
22487SOL     OW79522   7.872   3.068   4.409
22487SOL    HW179523   7.805   3.022   4.468
22487SOL    HW279524   7.964   3.036   4.432
22488SOL     OW79525   8.099   2.474   4.240
22488SOL    HW179526   8.138   2.544   4.181
22488SOL    HW279527   8.073   2.394   4.186
22489SOL     OW79528   8.719   2.382   5.449
22489SOL    HW179529   8.815   2.386   5.475
22489SOL    HW279530   8.675   2.306   5.496
22490SOL     OW79531   7.802   3.237   3.893
22490SOL    HW179532   7.866   3.253   3.818
22490SOL    HW279533   7.826   3.295   3.971
22491SOL     OW79534   7.953   2.193   4.703
22491SOL    HW179535   8.029   2.258   4.699
22491SOL    HW279536   7.983   2.104   4.670
22492SOL     OW79537   7.650   2.619   4.121
22492SOL    HW179538   7.665   2.553   4.195
22492SOL    HW279539   7.600   2.698   4.156
22493SOL     OW79540   8.236   3.564   4.298
22493SOL    HW179541   8.301   3.497   4.262
22493SOL    HW279542   8.226   3.640   4.234
22494SOL     OW79543   9.128   3.446   4.040
22494SOL    HW179544   9.224   3.420   4.033
22494SOL    HW279545   9.104   3.506   3.964
22495SOL     OW79546   9.040   2.139   4.811
22495SOL    HW179547   9.091   2.211   4.764
22495SOL    HW279548   8.945   2.166   4.820
22496SOL     OW79549   8.440   2.168   4.080
22496SOL    HW179550   8.465   2.262   4.101
22496SOL    HW279551   8.441   2.114   4.164
22497SOL     OW79552   7.564   2.881   5.265
22497SOL    HW179553   7.660   2.896   5.283
22497SOL    HW279554   7.526   2.819   5.334
22498SOL     OW79555   7.890   2.526   3.808
22498SOL    HW179556   7.850   2.605   3.761
22498SOL    HW279557   7.979   2.505   3.768
22499SOL     OW79558   8.063   3.450   4.506
22499SOL    HW179559   8.136   3.473   4.442
22499SOL    HW279560   7.992   3.397   4.460
22500SOL     OW79561   8.405   2.482   5.260
22500SOL    HW179562   8.438   2.399   5.307
22500SOL    HW279563   8.478   2.550   5.259
22501SOL     OW79564   9.009   3.282   4.482
22501SOL    HW179565   9.005   3.317   4.575
22501SOL    HW279566   9.068   3.341   4.426
22502SOL     OW79567   7.740   3.103   4.158
22502SOL    HW179568   7.786   3.077   4.243
22502SOL    HW279569   7.760   3.035   4.087
22503SOL     OW79570   8.598   2.158   3.869
22503SOL    HW179571   8.692   2.128   3.887
22503SOL    HW279572   8.546   2.158   3.955
22504SOL     OW79573   7.750   2.363   4.964
22504SOL    HW179574   7.740   2.276   4.916
22504SOL    HW279575   7.686   2.430   4.927
22505SOL     OW79576   8.832   2.643   5.002
22505SOL    HW179577   8.836   2.737   4.967
22505SOL    HW279578   8.925   2.612   5.024
22506SOL     OW79579   7.785   2.135   4.123
22506SOL    HW179580   7.739   2.175   4.202
22506SOL    HW279581   7.733   2.154   4.041
22507SOL     OW79582   8.913   3.662   5.035
22507SOL    HW179583   8.856   3.613   4.969
22507SOL    HW279584   8.999   3.689   4.992
22508SOL     OW79585   9.208   2.380   4.890
22508SOL    HW179586   9.265   2.462   4.892
22508SOL    HW279587   9.149   2.379   4.970
22509SOL     OW79588   9.225   3.606   4.803
22509SOL    HW179589   9.271   3.616   4.891
22509SOL    HW279590   9.292   3.609   4.730
22510SOL     OW79591   8.338   2.346   4.365
22510SOL    HW179592   8.414   2.374   4.424
22510SOL    HW279593   8.294   2.426   4.326
22511SOL     OW79594   8.573   2.810   3.882
22511SOL    HW179595   8.610   2.760   3.960
22511SOL    HW279596   8.503   2.755   3.837
22512SOL     OW79597   8.415   2.232   5.503
22512SOL    HW179598   8.478   2.237   5.580
22512SOL    HW279599   8.323   2.210   5.536
22513SOL     OW79600   9.156   2.479   3.961
22513SOL    HW179601   9.177   2.398   3.907
22513SOL    HW279602   9.173   2.460   4.058
22514SOL     OW79603   8.450   3.617   3.869
22514SOL    HW179604   8.484   3.530   3.834
22514SOL    HW279605   8.418   3.605   3.963
22515SOL     OW79606   8.131   1.884   5.401
22515SOL    HW179607   8.138   1.790   5.368
22515SOL    HW279608   8.188   1.894   5.483
22516SOL     OW79609   9.054   2.485   4.669
22516SOL    HW179610   9.039   2.576   4.706
22516SOL    HW279611   9.124   2.438   4.723
22517SOL     OW79612   8.464   3.151   5.435
22517SOL    HW179613   8.486   3.061   5.397
22517SOL    HW279614   8.399   3.198   5.376
22518SOL     OW79615   8.119   2.993   5.439
22518SOL    HW179616   8.090   3.070   5.496
22518SOL    HW279617   8.129   2.912   5.497
22519SOL     OW79618   8.754   1.857   4.545
22519SOL    HW179619   8.703   1.941   4.527
22519SOL    HW279620   8.840   1.859   4.494
22520SOL     OW79621   9.109   2.063   5.474
22520SOL    HW179622   9.086   2.084   5.569
22520SOL    HW279623   9.085   1.968   5.454
22521SOL     OW79624   7.412   2.467   4.218
22521SOL    HW179625   7.414   2.418   4.305
22521SOL    HW279626   7.414   2.566   4.236
22522SOL     OW79627   7.733   2.055   4.539
22522SOL    HW179628   7.785   2.095   4.614
22522SOL    HW279629   7.786   1.982   4.496
22523SOL     OW79630   7.717   2.103   4.873
22523SOL    HW179631   7.682   2.010   4.873
22523SOL    HW279632   7.804   2.106   4.824
22524SOL     OW79633   8.384   2.725   4.613
22524SOL    HW179634   8.410   2.805   4.559
22524SOL    HW279635   8.378   2.645   4.553
22525SOL     OW79636   7.585   3.352   4.072
22525SOL    HW179637   7.612   3.258   4.092
22525SOL    HW279638   7.610   3.374   3.978
22526SOL     OW79639   8.867   3.221   4.946
22526SOL    HW179640   8.838   3.258   4.857
22526SOL    HW279641   8.789   3.221   5.008
22527SOL     OW79642   7.599   3.495   4.309
22527SOL    HW179643   7.515   3.546   4.327
22527SOL    HW279644   7.590   3.444   4.224
22528SOL     OW79645   9.120   3.292   4.984
22528SOL    HW179646   9.151   3.306   5.078
22528SOL    HW279647   9.021   3.279   4.983
22529SOL     OW79648   7.872   2.792   3.711
22529SOL    HW179649   7.841   2.826   3.623
22529SOL    HW279650   7.876   2.867   3.777
22530SOL     OW79651   8.389   2.979   5.010
22530SOL    HW179652   8.439   2.894   4.994
22530SOL    HW279653   8.343   3.006   4.925
22531SOL     OW79654   7.476   2.684   3.884
22531SOL    HW179655   7.536   2.631   3.944
22531SOL    HW279656   7.382   2.652   3.896
22532SOL     OW79657   8.996   2.682   4.084
22532SOL    HW179658   9.064   2.616   4.051
22532SOL    HW279659   9.011   2.770   4.040
22533SOL     OW79660   8.244   3.669   4.732
22533SOL    HW179661   8.290   3.602   4.674
22533SOL    HW279662   8.170   3.625   4.782
22534SOL     OW79663   8.151   2.738   3.768
22534SOL    HW179664   8.180   2.657   3.819
22534SOL    HW279665   8.051   2.737   3.759
22535SOL     OW79666   8.747   2.270   4.114
22535SOL    HW179667   8.684   2.328   4.062
22535SOL    HW279668   8.840   2.304   4.102
22536SOL     OW79669   7.644   2.471   5.214
22536SOL    HW179670   7.664   2.376   5.189
22536SOL    HW279671   7.607   2.474   5.307
22537SOL     OW79672   7.526   2.126   5.104
22537SOL    HW179673   7.598   2.136   5.035
22537SOL    HW279674   7.437   2.125   5.059
22538SOL     OW79675   8.424   2.747   4.869
22538SOL    HW179676   8.418   2.733   4.770
22538SOL    HW279677   8.343   2.708   4.913
22539SOL     OW79678   9.015   2.281   4.184
22539SOL    HW179679   9.111   2.252   4.181
22539SOL    HW279680   8.976   2.259   4.273
22540SOL     OW79681   8.299   3.356   4.621
22540SOL    HW179682   8.357   3.367   4.540
22540SOL    HW279683   8.205   3.380   4.599
22541SOL     OW79684   8.249   2.222   3.906
22541SOL    HW179685   8.158   2.235   3.944
22541SOL    HW279686   8.309   2.182   3.976
22542SOL     OW79687   8.360   3.167   3.841
22542SOL    HW179688   8.413   3.107   3.901
22542SOL    HW279689   8.399   3.168   3.750
22543SOL     OW79690   9.111   3.462   4.326
22543SOL    HW179691   9.078   3.555   4.345
22543SOL    HW279692   9.109   3.446   4.227
22544SOL     OW79693   8.526   2.735   4.315
22544SOL    HW179694   8.591   2.763   4.386
22544SOL    HW279695   8.447   2.796   4.317
22545SOL     OW79696   8.274   3.461   5.339
22545SOL    HW179697   8.262   3.392   5.268
22545SOL    HW279698   8.237   3.426   5.426
22546SOL     OW79699   8.718   2.775   4.518
22546SOL    HW179700   8.739   2.717   4.596
22546SOL    HW279701   8.727   2.871   4.544
22547SOL     OW79702   7.674   2.904   4.564
22547SOL    HW179703   7.597   2.966   4.557
22547SOL    HW279704   7.711   2.905   4.657
22548SOL     OW79705   8.307   2.852   4.263
22548SOL    HW179706   8.294   2.763   4.220
22548SOL    HW279707   8.238   2.866   4.334
22549SOL     OW79708   8.611   3.240   5.102
22549SOL    HW179709   8.644   3.325   5.143
22549SOL    HW279710   8.512   3.236   5.109
22550SOL     OW79711   7.418   2.157   4.166
22550SOL    HW179712   7.478   2.108   4.104
22550SOL    HW279713   7.473   2.209   4.231
22551SOL     OW79714   9.041   3.655   3.857
22551SOL    HW179715   9.131   3.699   3.859
22551SOL    HW279716   9.040   3.586   3.785
22552SOL     OW79717   8.205   2.622   5.015
22552SOL    HW179718   8.207   2.708   5.066
22552SOL    HW279719   8.262   2.554   5.062
22553SOL     OW79720   7.442   3.649   5.086
22553SOL    HW179721   7.450   3.749   5.084
22553SOL    HW279722   7.418   3.620   5.179
22554SOL     OW79723   8.223   2.668   4.080
22554SOL    HW179724   8.134   2.696   4.045
22554SOL    HW279725   8.264   2.602   4.016
22555SOL     OW79726   7.745   2.386   4.619
22555SOL    HW179727   7.801   2.379   4.536
22555SOL    HW279728   7.802   2.364   4.699
22556SOL     OW79729   7.742   3.584   3.890
22556SOL    HW179730   7.834   3.614   3.865
22556SOL    HW279731   7.717   3.623   3.979
22557SOL     OW79732   8.718   3.606   4.827
22557SOL    HW179733   8.737   3.669   4.753
22557SOL    HW279734   8.726   3.512   4.794
22558SOL     OW79735   7.423   3.001   4.639
22558SOL    HW179736   7.333   3.017   4.600
22558SOL    HW279737   7.421   2.917   4.694
22559SOL     OW79738   8.174   1.906   4.089
22559SOL    HW179739   8.135   1.895   3.998
22559SOL    HW279740   8.130   1.982   4.136
22560SOL     OW79741   7.419   3.042   4.183
22560SOL    HW179742   7.497   3.100   4.207
22560SOL    HW279743   7.438   2.993   4.098
22561SOL     OW79744   8.949   2.170   5.267
22561SOL    HW179745   8.888   2.248   5.264
22561SOL    HW279746   9.004   2.174   5.350
22562SOL     OW79747   8.665   2.116   4.558
22562SOL    HW179748   8.664   2.194   4.495
22562SOL    HW279749   8.708   2.143   4.644
22563SOL     OW79750   8.785   1.922   3.854
22563SOL    HW179751   8.865   1.862   3.851
22563SOL    HW279752   8.711   1.875   3.902
22564SOL     OW79753   8.998   1.894   5.288
22564SOL    HW179754   9.024   1.851   5.202
22564SOL    HW279755   8.948   1.978   5.270
22565SOL     OW79756   8.100   2.153   4.420
22565SOL    HW179757   8.089   2.095   4.501
22565SOL    HW279758   8.185   2.205   4.428
22566SOL     OW79759   8.680   2.504   4.812
22566SOL    HW179760   8.734   2.544   4.738
22566SOL    HW279761   8.718   2.533   4.900
22567SOL     OW79762   8.973   1.910   4.128
22567SOL    HW179763   8.980   1.864   4.040
22567SOL    HW279764   8.877   1.920   4.153
22568SOL     OW79765   7.949   3.225   5.491
22568SOL    HW179766   7.910   3.288   5.424
22568SOL    HW279767   8.032   3.265   5.531
22569SOL     OW79768   7.825   2.957   5.323
22569SOL    HW179769   7.844   2.981   5.228
22569SOL    HW279770   7.818   3.040   5.378
22570SOL     OW79771   7.486   3.247   4.797
22570SOL    HW179772   7.455   3.173   4.738
22570SOL    HW279773   7.418   3.265   4.868
22571SOL     OW79774   8.572   2.448   4.530
22571SOL    HW179775   8.654   2.425   4.478
22571SOL    HW279776   8.567   2.389   4.611
22572SOL     OW79777   9.172   2.475   5.366
22572SOL    HW179778   9.161   2.561   5.315
22572SOL    HW279779   9.266   2.466   5.396
22573SOL     OW79780   8.743   2.248   4.785
22573SOL    HW179781   8.717   2.345   4.791
22573SOL    HW279782   8.743   2.208   4.877
22574SOL     OW79783   8.973   2.380   5.536
22574SOL    HW179784   9.053   2.405   5.480
22574SOL    HW279785   9.004   2.345   5.624
22575SOL     OW79786   8.684   2.683   4.116
22575SOL    HW179787   8.630   2.681   4.200
22575SOL    HW279788   8.761   2.746   4.127
22576SOL     OW79789   8.981   2.779   4.336
22576SOL    HW179790   8.995   2.742   4.243
22576SOL    HW279791   8.892   2.749   4.370
22577SOL     OW79792   9.137   2.716   5.231
22577SOL    HW179793   9.039   2.737   5.233
22577SOL    HW279794   9.186   2.792   5.190
22578SOL     OW79795   8.991   2.136   3.910
22578SOL    HW179796   8.996   2.178   4.001
22578SOL    HW279797   8.924   2.061   3.912
22579SOL     OW79798   8.138   3.351   5.130
22579SOL    HW179799   8.075   3.429   5.137
22579SOL    HW279800   8.106   3.289   5.058
22580SOL     OW79801   7.529   2.146   5.395
22580SOL    HW179802   7.547   2.135   5.297
22580SOL    HW279803   7.431   2.142   5.412
22581SOL     OW79804   7.409   3.560   5.339
22581SOL    HW179805   7.481   3.546   5.407
22581SOL    HW279806   7.320   3.563   5.384
22582SOL     OW79807   7.577   2.216   4.363
22582SOL    HW179808   7.520   2.271   4.424
22582SOL    HW279809   7.647   2.168   4.416
22583SOL     OW79810   8.749   3.448   5.226
22583SOL    HW179811   8.702   3.516   5.281
22583SOL    HW279812   8.816   3.494   5.167
22584SOL     OW79813   7.714   2.407   3.961
22584SOL    HW179814   7.786   2.436   3.898
22584SOL    HW279815   7.670   2.487   4.001
22585SOL     OW79816   9.100   2.069   5.064
22585SOL    HW179817   9.056   2.117   5.140
22585SOL    HW279818   9.078   2.115   4.978
22586SOL     OW79819   7.829   3.670   4.427
22586SOL    HW179820   7.753   3.636   4.372
22586SOL    HW279821   7.915   3.633   4.392
22587SOL     OW79822   7.754   3.179   4.872
22587SOL    HW179823   7.766   3.195   4.969
22587SOL    HW279824   7.667   3.219   4.842
22588SOL     OW79825   8.638   3.383   5.518
22588SOL    HW179826   8.597   3.298   5.484
22588SOL    HW279827   8.618   3.457   5.454
22589SOL     OW79828   8.128   3.103   4.208
22589SOL    HW179829   8.171   3.034   4.150
22589SOL    HW279830   8.092   3.060   4.291
22590SOL     OW79831   7.760   2.654   4.410
22590SOL    HW179832   7.752   2.752   4.428
22590SOL    HW279833   7.844   2.620   4.451
22591SOL     OW79834   7.606   2.134   3.925
22591SOL    HW179835   7.650   2.103   3.842
22591SOL    HW279836   7.607   2.234   3.929
22592SOL     OW79837   7.459   2.386   4.536
22592SOL    HW179838   7.423   2.479   4.528
22592SOL    HW279839   7.542   2.387   4.592
22593SOL     OW79840   7.894   2.973   3.922
22593SOL    HW179841   7.994   2.973   3.933
22593SOL    HW279842   7.863   3.066   3.901
22594SOL     OW79843   8.520   2.565   3.738
22594SOL    HW179844   8.451   2.622   3.694
22594SOL    HW279845   8.601   2.559   3.679
22595SOL     OW79846   8.255   2.484   3.881
22595SOL    HW179847   8.345   2.485   3.836
22595SOL    HW279848   8.232   2.390   3.906
22596SOL     OW79849   8.706   2.001   4.175
22596SOL    HW179850   8.616   1.985   4.216
22596SOL    HW279851   8.714   2.097   4.149
22597SOL     OW79852   8.820   2.401   5.191
22597SOL    HW179853   8.772   2.424   5.275
22597SOL    HW279854   8.754   2.371   5.122
22598SOL     OW79855   7.455   1.916   3.835
22598SOL    HW179856   7.518   1.839   3.843
22598SOL    HW279857   7.475   1.984   3.906
22599SOL     OW79858   7.728   2.891   4.836
22599SOL    HW179859   7.739   2.846   4.925
22599SOL    HW279860   7.755   2.987   4.843
22600SOL     OW79861   9.027   2.903   3.936
22600SOL    HW179862   9.098   2.973   3.938
22600SOL    HW279863   9.014   2.873   3.841
22601SOL     OW79864   8.009   2.504   4.858
22601SOL    HW179865   8.084   2.547   4.907
22601SOL    HW279866   7.942   2.469   4.924
22602SOL     OW79867   8.152   2.873   5.175
22602SOL    HW179868   8.221   2.925   5.125
22602SOL    HW279869   8.147   2.906   5.270
22603SOL     OW79870   8.544   2.894   5.335
22603SOL    HW179871   8.466   2.840   5.368
22603SOL    HW279872   8.625   2.872   5.390
22604SOL     OW79873   8.473   2.076   4.331
22604SOL    HW179874   8.532   2.136   4.386
22604SOL    HW279875   8.400   2.040   4.388
22605SOL     OW79876   8.583   3.608   5.371
22605SOL    HW179877   8.488   3.606   5.339
22605SOL    HW279878   8.604   3.699   5.408
22606SOL     OW79879   8.001   1.953   4.602
22606SOL    HW179880   7.929   1.886   4.588
22606SOL    HW279881   8.083   1.907   4.637
22607SOL     OW79882   7.701   3.618   4.969
22607SOL    HW179883   7.681   3.600   4.873
22607SOL    HW279884   7.628   3.580   5.026
22608SOL     OW79885   8.394   3.082   4.514
22608SOL    HW179886   8.433   3.125   4.433
22608SOL    HW279887   8.467   3.065   4.581
22609SOL     OW79888   8.088   2.810   4.716
22609SOL    HW179889   8.086   2.726   4.661
22609SOL    HW279890   8.037   2.796   4.801
22610SOL     OW79891   7.427   2.820   4.842
22610SOL    HW179892   7.516   2.798   4.882
22610SOL    HW279893   7.372   2.736   4.838
22611SOL     OW79894   7.655   1.865   4.122
22611SOL    HW179895   7.693   1.953   4.149
22611SOL    HW279896   7.578   1.841   4.182
22612SOL     OW79897   7.477   2.952   3.942
22612SOL    HW179898   7.467   2.855   3.921
22612SOL    HW279899   7.530   2.997   3.870
22613SOL     OW79900   9.174   2.064   4.543
22613SOL    HW179901   9.129   2.046   4.630
22613SOL    HW279902   9.272   2.081   4.559
22614SOL     OW79903   8.222   3.040   4.795
22614SOL    HW179904   8.173   2.955   4.776
22614SOL    HW279905   8.292   3.055   4.726
22615SOL     OW79906   8.560   2.463   4.004
22615SOL    HW179907   8.612   2.535   4.050
22615SOL    HW279908   8.573   2.470   3.906
22616SOL     OW79909   8.921   3.278   5.331
22616SOL    HW179910   8.906   3.180   5.345
22616SOL    HW279911   8.838   3.320   5.295
22617SOL     OW79912   7.678   2.720   5.071
22617SOL    HW179913   7.642   2.630   5.097
22617SOL    HW279914   7.639   2.790   5.131
22618SOL     OW79915   8.180   3.346   3.729
22618SOL    HW179916   8.155   3.423   3.788
22618SOL    HW279917   8.244   3.286   3.777
22619SOL     OW79918   7.998   3.553   4.763
22619SOL    HW179919   8.018   3.523   4.670
22619SOL    HW279920   7.923   3.498   4.800
22620SOL     OW79921   8.141   2.964   4.480
22620SOL    HW179922   8.230   3.010   4.480
22620SOL    HW279923   8.134   2.904   4.559
22621SOL     OW79924   8.319   3.311   4.149
22621SOL    HW179925   8.369   3.299   4.064
22621SOL    HW279926   8.265   3.228   4.168
22622SOL     OW79927   7.509   2.658   4.549
22622SOL    HW179928   7.604   2.649   4.517
22622SOL    HW279929   7.475   2.750   4.528
22623SOL     OW79930   7.446   2.775   5.476
22623SOL    HW179931   7.361   2.726   5.457
22623SOL    HW279932   7.473   2.762   5.571
22624SOL     OW79933   8.343   3.684   5.182
22624SOL    HW179934   8.315   3.597   5.223
22624SOL    HW279935   8.287   3.758   5.219
22625SOL     OW79936   8.572   3.031   4.712
22625SOL    HW179937   8.556   3.125   4.743
22625SOL    HW279938   8.575   2.970   4.792
22626SOL     OW79939   7.910   2.719   4.048
22626SOL    HW179940   7.860   2.784   3.992
22626SOL    HW279941   7.852   2.640   4.067
22627SOL     OW79942   8.991   2.750   4.746
22627SOL    HW179943   9.010   2.789   4.655
22627SOL    HW279944   8.945   2.819   4.802
22628SOL     OW79945   8.683   2.193   5.042
22628SOL    HW179946   8.754   2.165   5.106
22628SOL    HW279947   8.630   2.113   5.014
22629SOL     OW79948   7.384   1.892   4.243
22629SOL    HW179949   7.297   1.879   4.196
22629SOL    HW279950   7.392   1.987   4.273
22630SOL     OW79951   8.605   1.993   5.484
22630SOL    HW179952   8.664   2.009   5.564
22630SOL    HW279953   8.552   2.076   5.465
22631SOL     OW79954   7.821   3.412   5.309
22631SOL    HW179955   7.763   3.477   5.358
22631SOL    HW279956   7.883   3.462   5.249
22632SOL     OW79957   9.177   3.299   5.250
22632SOL    HW179958   9.205   3.392   5.272
22632SOL    HW279959   9.084   3.283   5.283
22633SOL     OW79960   8.427   2.412   4.800
22633SOL    HW179961   8.513   2.463   4.799
22633SOL    HW279962   8.433   2.338   4.867
22634SOL     OW79963   7.831   3.358   4.372
22634SOL    HW179964   7.829   3.259   4.385
22634SOL    HW279965   7.740   3.391   4.349
22635SOL     OW79966   8.472   3.475   4.960
22635SOL    HW179967   8.398   3.539   4.978
22635SOL    HW279968   8.551   3.524   4.922
22636SOL     OW79969   7.681   3.605   5.459
22636SOL    HW179970   7.724   3.689   5.425
22636SOL    HW279971   7.706   3.592   5.555
22637SOL     OW79972   7.541   3.141   5.330
22637SOL    HW179973   7.520   3.046   5.303
22637SOL    HW279974   7.472   3.202   5.292
22638SOL     OW79975   7.630   3.506   4.734
22638SOL    HW179976   7.572   3.426   4.748
22638SOL    HW279977   7.654   3.513   4.637
22639SOL     OW79978   8.376   2.027   4.589
22639SOL    HW179979   8.472   2.028   4.617
22639SOL    HW279980   8.321   1.984   4.661
22640SOL     OW79981   8.438   3.033   4.105
22640SOL    HW179982   8.518   3.069   4.153
22640SOL    HW279983   8.396   2.960   4.161
22641SOL     OW79984   9.029   2.300   4.469
22641SOL    HW179985   9.048   2.386   4.516
22641SOL    HW279986   9.097   2.231   4.497
22642SOL     OW79987   8.172   2.972   3.955
22642SOL    HW179988   8.244   3.031   3.920
22642SOL    HW279989   8.212   2.888   3.991
22643SOL     OW79990   8.243   1.948   3.807
22643SOL    HW179991   8.318   1.882   3.819
22643SOL    HW279992   8.274   2.039   3.835
22644SOL     OW79993   7.922   2.377   4.419
22644SOL    HW179994   7.960   2.288   4.445
22644SOL    HW279995   7.989   2.427   4.364
22645SOL     OW79996   7.910   2.935   5.073
22645SOL    HW179997   8.006   2.915   5.093
22645SOL    HW279998   7.899   3.033   5.055
22646SOL     OW79999   9.132   2.978   5.042
22646SOL    HW180000   9.146   3.076   5.056
22646SOL    HW280001   9.189   2.947   4.966
22647SOL     OW80002   7.615   3.087   3.734
22647SOL    HW180003   7.607   3.099   3.635
22647SOL    HW280004   7.674   3.158   3.772
22648SOL     OW80005   8.042   3.526   3.894
22648SOL    HW180006   8.017   3.621   3.878
22648SOL    HW280007   8.009   3.498   3.984
22649SOL     OW80008   8.692   2.949   5.118
22649SOL    HW180009   8.636   2.908   5.189
22649SOL    HW280010   8.672   3.047   5.112
22650SOL     OW80011   7.959   3.565   5.118
22650SOL    HW180012   8.008   3.645   5.082
22650SOL    HW280013   7.867   3.563   5.079
22651SOL     OW80014   7.602   2.446   5.480
22651SOL    HW180015   7.619   2.347   5.485
22651SOL    HW280016   7.666   2.494   5.541
22652SOL     OW80017   9.041   3.407   4.719
22652SOL    HW180018   9.013   3.500   4.743
22652SOL    HW280019   9.091   3.366   4.795
22653SOL     OW80020   7.437   2.780   4.280
22653SOL    HW180021   7.444   2.879   4.267
22653SOL    HW280022   7.346   2.757   4.314
22654SOL     OW80023   7.946   2.578   5.218
22654SOL    HW180024   7.852   2.548   5.199
22654SOL    HW280025   7.955   2.675   5.195
22655SOL     OW80026   9.013   2.954   4.530
22655SOL    HW180027   8.975   3.043   4.503
22655SOL    HW280028   9.013   2.892   4.452
22656SOL     OW80029   8.171   2.360   4.699
22656SOL    HW180030   8.263   2.388   4.726
22656SOL    HW280031   8.103   2.411   4.753
22657SOL     OW80032   8.024   3.211   4.926
22657SOL    HW180033   7.937   3.210   4.877
22657SOL    HW280034   8.090   3.151   4.879
22658SOL     OW80035   7.590   2.553   4.840
22658SOL    HW180036   7.628   2.612   4.911
22658SOL    HW280037   7.573   2.606   4.758
22659SOL     OW80038   7.761   3.199   5.138
22659SOL    HW180039   7.780   3.287   5.182
22659SOL    HW280040   7.666   3.173   5.156
22660SOL     OW80041   9.004   3.515   5.486
22660SOL    HW180042   8.973   3.437   5.431
22660SOL    HW280043   8.973   3.600   5.444
22661SOL     OW80044   8.712   3.053   4.207
22661SOL    HW180045   8.811   3.057   4.223
22661SOL    HW280046   8.695   3.039   4.109
22662SOL     OW80047   8.065   2.219   4.155
22662SOL    HW180048   7.967   2.213   4.135
22662SOL    HW280049   8.084   2.176   4.243
22663SOL     OW80050   8.985   1.902   4.414
22663SOL    HW180051   8.980   1.943   4.323
22663SOL    HW280052   9.066   1.936   4.461
22664SOL     OW80053   8.588   2.658   5.107
22664SOL    HW180054   8.687   2.667   5.097
22664SOL    HW280055   8.544   2.660   5.017
22665SOL     OW80056   8.082   2.618   4.509
22665SOL    HW180057   8.104   2.540   4.567
22665SOL    HW280058   8.091   2.592   4.413
22666SOL     OW80059   8.747   3.325   4.721
22666SOL    HW180060   8.661   3.282   4.750
22666SOL    HW280061   8.736   3.365   4.630
22667SOL     OW80062   8.750   2.310   4.396
22667SOL    HW180063   8.749   2.302   4.297
22667SOL    HW280064   8.839   2.282   4.431
22668SOL     OW80065   8.477   3.326   6.228
22668SOL    HW180066   8.568   3.360   6.251
22668SOL    HW280067   8.449   3.364   6.140
22669SOL     OW80068   8.988   3.122   6.086
22669SOL    HW180069   8.999   3.206   6.140
22669SOL    HW280070   9.078   3.085   6.063
22670SOL     OW80071   9.068   2.404   6.950
22670SOL    HW180072   8.970   2.396   6.972
22670SOL    HW280073   9.121   2.393   7.034
22671SOL     OW80074   7.735   2.041   5.555
22671SOL    HW180075   7.648   2.038   5.506
22671SOL    HW280076   7.786   2.123   5.527
22672SOL     OW80077   8.722   3.430   6.330
22672SOL    HW180078   8.711   3.527   6.353
22672SOL    HW280079   8.815   3.413   6.300
22673SOL     OW80080   8.600   1.941   6.888
22673SOL    HW180081   8.524   1.896   6.935
22673SOL    HW280082   8.629   1.886   6.810
22674SOL     OW80083   8.338   2.721   7.265
22674SOL    HW180084   8.303   2.696   7.175
22674SOL    HW280085   8.262   2.742   7.326
22675SOL     OW80086   7.945   3.395   5.959
22675SOL    HW180087   7.901   3.404   6.048
22675SOL    HW280088   8.016   3.325   5.963
22676SOL     OW80089   7.963   1.928   5.681
22676SOL    HW180090   8.051   1.956   5.642
22676SOL    HW280091   7.891   1.991   5.651
22677SOL     OW80092   8.933   2.913   7.064
22677SOL    HW180093   8.841   2.918   7.026
22677SOL    HW280094   8.998   2.951   6.998
22678SOL     OW80095   8.329   3.175   7.045
22678SOL    HW180096   8.272   3.238   6.991
22678SOL    HW280097   8.362   3.101   6.986
22679SOL     OW80098   7.872   3.068   6.254
22679SOL    HW180099   7.805   3.022   6.313
22679SOL    HW280100   7.964   3.036   6.277
22680SOL     OW80101   8.099   2.474   6.085
22680SOL    HW180102   8.138   2.544   6.026
22680SOL    HW280103   8.073   2.394   6.031
22681SOL     OW80104   8.719   2.382   7.294
22681SOL    HW180105   8.815   2.386   7.320
22681SOL    HW280106   8.675   2.306   7.341
22682SOL     OW80107   7.802   3.237   5.738
22682SOL    HW180108   7.866   3.253   5.663
22682SOL    HW280109   7.826   3.295   5.816
22683SOL     OW80110   7.953   2.193   6.548
22683SOL    HW180111   8.029   2.258   6.544
22683SOL    HW280112   7.983   2.104   6.515
22684SOL     OW80113   7.650   2.619   5.966
22684SOL    HW180114   7.665   2.553   6.040
22684SOL    HW280115   7.600   2.698   6.001
22685SOL     OW80116   8.236   3.564   6.143
22685SOL    HW180117   8.301   3.497   6.107
22685SOL    HW280118   8.226   3.640   6.079
22686SOL     OW80119   9.128   3.446   5.885
22686SOL    HW180120   9.224   3.420   5.878
22686SOL    HW280121   9.104   3.506   5.809
22687SOL     OW80122   9.040   2.139   6.656
22687SOL    HW180123   9.091   2.211   6.609
22687SOL    HW280124   8.945   2.166   6.665
22688SOL     OW80125   8.440   2.168   5.925
22688SOL    HW180126   8.465   2.262   5.946
22688SOL    HW280127   8.441   2.114   6.009
22689SOL     OW80128   7.564   2.881   7.110
22689SOL    HW180129   7.660   2.896   7.128
22689SOL    HW280130   7.526   2.819   7.179
22690SOL     OW80131   8.063   3.450   6.351
22690SOL    HW180132   8.136   3.473   6.287
22690SOL    HW280133   7.992   3.397   6.305
22691SOL     OW80134   8.405   2.482   7.105
22691SOL    HW180135   8.438   2.399   7.152
22691SOL    HW280136   8.478   2.550   7.104
22692SOL     OW80137   9.009   3.282   6.327
22692SOL    HW180138   9.005   3.317   6.420
22692SOL    HW280139   9.068   3.341   6.271
22693SOL     OW80140   7.740   3.103   6.003
22693SOL    HW180141   7.786   3.077   6.088
22693SOL    HW280142   7.760   3.035   5.932
22694SOL     OW80143   8.598   2.158   5.714
22694SOL    HW180144   8.692   2.128   5.732
22694SOL    HW280145   8.546   2.158   5.800
22695SOL     OW80146   7.785   2.135   5.968
22695SOL    HW180147   7.739   2.175   6.047
22695SOL    HW280148   7.733   2.154   5.886
22696SOL     OW80149   8.913   3.662   6.880
22696SOL    HW180150   8.856   3.613   6.814
22696SOL    HW280151   8.999   3.689   6.837
22697SOL     OW80152   9.208   2.380   6.735
22697SOL    HW180153   9.265   2.462   6.737
22697SOL    HW280154   9.149   2.379   6.815
22698SOL     OW80155   9.225   3.606   6.648
22698SOL    HW180156   9.271   3.616   6.736
22698SOL    HW280157   9.292   3.609   6.575
22699SOL     OW80158   8.338   2.346   6.210
22699SOL    HW180159   8.414   2.374   6.269
22699SOL    HW280160   8.294   2.426   6.171
22700SOL     OW80161   8.573   2.810   5.727
22700SOL    HW180162   8.610   2.760   5.805
22700SOL    HW280163   8.503   2.755   5.682
22701SOL     OW80164   8.415   2.232   7.348
22701SOL    HW180165   8.478   2.237   7.425
22701SOL    HW280166   8.323   2.210   7.381
22702SOL     OW80167   9.156   2.479   5.806
22702SOL    HW180168   9.177   2.398   5.752
22702SOL    HW280169   9.173   2.460   5.903
22703SOL     OW80170   8.131   1.884   7.246
22703SOL    HW180171   8.138   1.790   7.213
22703SOL    HW280172   8.188   1.894   7.328
22704SOL     OW80173   9.054   2.485   6.514
22704SOL    HW180174   9.039   2.576   6.551
22704SOL    HW280175   9.124   2.438   6.568
22705SOL     OW80176   8.464   3.151   7.280
22705SOL    HW180177   8.486   3.061   7.242
22705SOL    HW280178   8.399   3.198   7.221
22706SOL     OW80179   8.754   1.857   6.390
22706SOL    HW180180   8.703   1.941   6.372
22706SOL    HW280181   8.840   1.859   6.339
22707SOL     OW80182   9.109   2.063   7.319
22707SOL    HW180183   9.086   2.084   7.414
22707SOL    HW280184   9.085   1.968   7.299
22708SOL     OW80185   7.412   2.467   6.063
22708SOL    HW180186   7.414   2.418   6.150
22708SOL    HW280187   7.414   2.566   6.081
22709SOL     OW80188   7.733   2.055   6.384
22709SOL    HW180189   7.785   2.095   6.459
22709SOL    HW280190   7.786   1.982   6.341
22710SOL     OW80191   8.384   2.725   6.458
22710SOL    HW180192   8.410   2.805   6.404
22710SOL    HW280193   8.378   2.645   6.398
22711SOL     OW80194   7.585   3.352   5.917
22711SOL    HW180195   7.612   3.258   5.937
22711SOL    HW280196   7.610   3.374   5.823
22712SOL     OW80197   8.867   3.221   6.791
22712SOL    HW180198   8.838   3.258   6.702
22712SOL    HW280199   8.789   3.221   6.853
22713SOL     OW80200   7.599   3.495   6.154
22713SOL    HW180201   7.515   3.546   6.172
22713SOL    HW280202   7.590   3.444   6.069
22714SOL     OW80203   9.120   3.292   6.829
22714SOL    HW180204   9.151   3.306   6.923
22714SOL    HW280205   9.021   3.279   6.828
22715SOL     OW80206   7.872   2.792   5.556
22715SOL    HW180207   7.841   2.826   5.468
22715SOL    HW280208   7.876   2.867   5.622
22716SOL     OW80209   7.476   2.684   5.729
22716SOL    HW180210   7.536   2.631   5.789
22716SOL    HW280211   7.382   2.652   5.741
22717SOL     OW80212   8.996   2.682   5.929
22717SOL    HW180213   9.064   2.616   5.896
22717SOL    HW280214   9.011   2.770   5.885
22718SOL     OW80215   8.244   3.669   6.577
22718SOL    HW180216   8.290   3.602   6.519
22718SOL    HW280217   8.170   3.625   6.627
22719SOL     OW80218   8.151   2.738   5.613
22719SOL    HW180219   8.180   2.657   5.664
22719SOL    HW280220   8.051   2.737   5.604
22720SOL     OW80221   8.747   2.270   5.959
22720SOL    HW180222   8.684   2.328   5.907
22720SOL    HW280223   8.840   2.304   5.947
22721SOL     OW80224   7.644   2.471   7.059
22721SOL    HW180225   7.664   2.376   7.034
22721SOL    HW280226   7.607   2.474   7.152
22722SOL     OW80227   9.015   2.281   6.029
22722SOL    HW180228   9.111   2.252   6.026
22722SOL    HW280229   8.976   2.259   6.118
22723SOL     OW80230   8.299   3.356   6.466
22723SOL    HW180231   8.357   3.367   6.385
22723SOL    HW280232   8.205   3.380   6.444
22724SOL     OW80233   9.111   3.462   6.171
22724SOL    HW180234   9.078   3.555   6.190
22724SOL    HW280235   9.109   3.446   6.072
22725SOL     OW80236   8.526   2.735   6.160
22725SOL    HW180237   8.591   2.763   6.231
22725SOL    HW280238   8.447   2.796   6.162
22726SOL     OW80239   8.274   3.461   7.184
22726SOL    HW180240   8.262   3.392   7.113
22726SOL    HW280241   8.237   3.426   7.271
22727SOL     OW80242   7.674   2.904   6.409
22727SOL    HW180243   7.597   2.966   6.402
22727SOL    HW280244   7.711   2.905   6.502
22728SOL     OW80245   8.307   2.852   6.108
22728SOL    HW180246   8.294   2.763   6.065
22728SOL    HW280247   8.238   2.866   6.179
22729SOL     OW80248   8.611   3.240   6.947
22729SOL    HW180249   8.644   3.325   6.988
22729SOL    HW280250   8.512   3.236   6.954
22730SOL     OW80251   7.418   2.157   6.011
22730SOL    HW180252   7.478   2.108   5.949
22730SOL    HW280253   7.473   2.209   6.076
22731SOL     OW80254   9.041   3.655   5.702
22731SOL    HW180255   9.131   3.699   5.704
22731SOL    HW280256   9.040   3.586   5.630
22732SOL     OW80257   7.442   3.649   6.931
22732SOL    HW180258   7.450   3.749   6.929
22732SOL    HW280259   7.418   3.620   7.024
22733SOL     OW80260   7.745   2.386   6.464
22733SOL    HW180261   7.801   2.379   6.381
22733SOL    HW280262   7.802   2.364   6.544
22734SOL     OW80263   7.742   3.584   5.735
22734SOL    HW180264   7.834   3.614   5.710
22734SOL    HW280265   7.717   3.623   5.824
22735SOL     OW80266   8.718   3.606   6.672
22735SOL    HW180267   8.737   3.669   6.598
22735SOL    HW280268   8.726   3.512   6.639
22736SOL     OW80269   7.423   3.001   6.484
22736SOL    HW180270   7.333   3.017   6.445
22736SOL    HW280271   7.421   2.917   6.539
22737SOL     OW80272   8.174   1.906   5.934
22737SOL    HW180273   8.135   1.895   5.843
22737SOL    HW280274   8.130   1.982   5.981
22738SOL     OW80275   7.419   3.042   6.028
22738SOL    HW180276   7.497   3.100   6.052
22738SOL    HW280277   7.438   2.993   5.943
22739SOL     OW80278   8.949   2.170   7.112
22739SOL    HW180279   8.888   2.248   7.109
22739SOL    HW280280   9.004   2.174   7.195
22740SOL     OW80281   8.665   2.116   6.403
22740SOL    HW180282   8.664   2.194   6.340
22740SOL    HW280283   8.708   2.143   6.489
22741SOL     OW80284   8.785   1.922   5.699
22741SOL    HW180285   8.865   1.862   5.696
22741SOL    HW280286   8.711   1.875   5.747
22742SOL     OW80287   8.998   1.894   7.133
22742SOL    HW180288   9.024   1.851   7.047
22742SOL    HW280289   8.948   1.978   7.115
22743SOL     OW80290   8.100   2.153   6.265
22743SOL    HW180291   8.089   2.095   6.346
22743SOL    HW280292   8.185   2.205   6.273
22744SOL     OW80293   8.680   2.504   6.657
22744SOL    HW180294   8.734   2.544   6.583
22744SOL    HW280295   8.718   2.533   6.745
22745SOL     OW80296   8.973   1.910   5.973
22745SOL    HW180297   8.980   1.864   5.885
22745SOL    HW280298   8.877   1.920   5.998
22746SOL     OW80299   7.825   2.957   7.168
22746SOL    HW180300   7.844   2.981   7.073
22746SOL    HW280301   7.818   3.040   7.223
22747SOL     OW80302   7.486   3.247   6.642
22747SOL    HW180303   7.455   3.173   6.583
22747SOL    HW280304   7.418   3.265   6.713
22748SOL     OW80305   8.572   2.448   6.375
22748SOL    HW180306   8.654   2.425   6.323
22748SOL    HW280307   8.567   2.389   6.456
22749SOL     OW80308   9.172   2.475   7.211
22749SOL    HW180309   9.161   2.561   7.160
22749SOL    HW280310   9.266   2.466   7.241
22750SOL     OW80311   8.743   2.248   6.630
22750SOL    HW180312   8.717   2.345   6.636
22750SOL    HW280313   8.743   2.208   6.722
22751SOL     OW80314   8.973   2.380   7.381
22751SOL    HW180315   9.053   2.405   7.325
22751SOL    HW280316   9.004   2.345   7.469
22752SOL     OW80317   8.684   2.683   5.961
22752SOL    HW180318   8.630   2.681   6.045
22752SOL    HW280319   8.761   2.746   5.972
22753SOL     OW80320   8.981   2.779   6.181
22753SOL    HW180321   8.995   2.742   6.088
22753SOL    HW280322   8.892   2.749   6.215
22754SOL     OW80323   9.137   2.716   7.076
22754SOL    HW180324   9.039   2.737   7.078
22754SOL    HW280325   9.186   2.792   7.035
22755SOL     OW80326   8.991   2.136   5.755
22755SOL    HW180327   8.996   2.178   5.846
22755SOL    HW280328   8.924   2.061   5.757
22756SOL     OW80329   8.138   3.351   6.975
22756SOL    HW180330   8.075   3.429   6.982
22756SOL    HW280331   8.106   3.289   6.903
22757SOL     OW80332   7.409   3.560   7.184
22757SOL    HW180333   7.481   3.546   7.252
22757SOL    HW280334   7.320   3.563   7.229
22758SOL     OW80335   7.577   2.216   6.208
22758SOL    HW180336   7.520   2.271   6.269
22758SOL    HW280337   7.647   2.168   6.261
22759SOL     OW80338   7.714   2.407   5.806
22759SOL    HW180339   7.786   2.436   5.743
22759SOL    HW280340   7.670   2.487   5.846
22760SOL     OW80341   9.100   2.069   6.909
22760SOL    HW180342   9.056   2.117   6.985
22760SOL    HW280343   9.078   2.115   6.823
22761SOL     OW80344   7.829   3.670   6.272
22761SOL    HW180345   7.753   3.636   6.217
22761SOL    HW280346   7.915   3.633   6.237
22762SOL     OW80347   7.754   3.179   6.717
22762SOL    HW180348   7.766   3.195   6.814
22762SOL    HW280349   7.667   3.219   6.687
22763SOL     OW80350   8.128   3.103   6.053
22763SOL    HW180351   8.171   3.034   5.995
22763SOL    HW280352   8.092   3.060   6.136
22764SOL     OW80353   7.760   2.654   6.255
22764SOL    HW180354   7.752   2.752   6.273
22764SOL    HW280355   7.844   2.620   6.296
22765SOL     OW80356   7.606   2.134   5.770
22765SOL    HW180357   7.650   2.103   5.687
22765SOL    HW280358   7.607   2.234   5.774
22766SOL     OW80359   7.459   2.386   6.381
22766SOL    HW180360   7.423   2.479   6.373
22766SOL    HW280361   7.542   2.387   6.437
22767SOL     OW80362   7.894   2.973   5.767
22767SOL    HW180363   7.994   2.973   5.778
22767SOL    HW280364   7.863   3.066   5.746
22768SOL     OW80365   8.520   2.565   5.583
22768SOL    HW180366   8.451   2.622   5.539
22768SOL    HW280367   8.601   2.559   5.524
22769SOL     OW80368   8.706   2.001   6.020
22769SOL    HW180369   8.616   1.985   6.061
22769SOL    HW280370   8.714   2.097   5.994
22770SOL     OW80371   8.820   2.401   7.036
22770SOL    HW180372   8.772   2.424   7.120
22770SOL    HW280373   8.754   2.371   6.967
22771SOL     OW80374   7.455   1.916   5.680
22771SOL    HW180375   7.518   1.839   5.688
22771SOL    HW280376   7.475   1.984   5.751
22772SOL     OW80377   7.728   2.891   6.681
22772SOL    HW180378   7.739   2.846   6.770
22772SOL    HW280379   7.755   2.987   6.688
22773SOL     OW80380   9.027   2.903   5.781
22773SOL    HW180381   9.098   2.973   5.783
22773SOL    HW280382   9.014   2.873   5.686
22774SOL     OW80383   8.009   2.504   6.703
22774SOL    HW180384   8.084   2.547   6.752
22774SOL    HW280385   7.942   2.469   6.769
22775SOL     OW80386   8.152   2.873   7.020
22775SOL    HW180387   8.221   2.925   6.970
22775SOL    HW280388   8.147   2.906   7.115
22776SOL     OW80389   8.544   2.894   7.180
22776SOL    HW180390   8.466   2.840   7.213
22776SOL    HW280391   8.625   2.872   7.235
22777SOL     OW80392   8.473   2.076   6.176
22777SOL    HW180393   8.532   2.136   6.231
22777SOL    HW280394   8.400   2.040   6.233
22778SOL     OW80395   8.001   1.953   6.447
22778SOL    HW180396   7.929   1.886   6.433
22778SOL    HW280397   8.083   1.907   6.482
22779SOL     OW80398   7.701   3.618   6.814
22779SOL    HW180399   7.681   3.600   6.718
22779SOL    HW280400   7.628   3.580   6.871
22780SOL     OW80401   8.394   3.082   6.359
22780SOL    HW180402   8.433   3.125   6.278
22780SOL    HW280403   8.467   3.065   6.426
22781SOL     OW80404   8.088   2.810   6.561
22781SOL    HW180405   8.086   2.726   6.506
22781SOL    HW280406   8.037   2.796   6.646
22782SOL     OW80407   7.427   2.820   6.687
22782SOL    HW180408   7.516   2.798   6.727
22782SOL    HW280409   7.372   2.736   6.683
22783SOL     OW80410   7.655   1.865   5.967
22783SOL    HW180411   7.693   1.953   5.994
22783SOL    HW280412   7.578   1.841   6.027
22784SOL     OW80413   8.071   2.482   7.295
22784SOL    HW180414   8.023   2.533   7.224
22784SOL    HW280415   8.164   2.461   7.265
22785SOL     OW80416   7.477   2.952   5.787
22785SOL    HW180417   7.467   2.855   5.766
22785SOL    HW280418   7.530   2.997   5.715
22786SOL     OW80419   8.560   2.463   5.849
22786SOL    HW180420   8.612   2.535   5.895
22786SOL    HW280421   8.573   2.470   5.751
22787SOL     OW80422   7.678   2.720   6.916
22787SOL    HW180423   7.642   2.630   6.942
22787SOL    HW280424   7.639   2.790   6.976
22788SOL     OW80425   7.998   3.553   6.608
22788SOL    HW180426   8.018   3.523   6.515
22788SOL    HW280427   7.923   3.498   6.645
22789SOL     OW80428   8.141   2.964   6.325
22789SOL    HW180429   8.230   3.010   6.325
22789SOL    HW280430   8.134   2.904   6.404
22790SOL     OW80431   7.509   2.658   6.394
22790SOL    HW180432   7.604   2.649   6.362
22790SOL    HW280433   7.475   2.750   6.373
22791SOL     OW80434   7.446   2.775   7.321
22791SOL    HW180435   7.361   2.726   7.302
22791SOL    HW280436   7.473   2.762   7.416
22792SOL     OW80437   8.343   3.684   7.027
22792SOL    HW180438   8.315   3.597   7.068
22792SOL    HW280439   8.287   3.758   7.064
22793SOL     OW80440   8.572   3.031   6.557
22793SOL    HW180441   8.556   3.125   6.588
22793SOL    HW280442   8.575   2.970   6.637
22794SOL     OW80443   7.910   2.719   5.893
22794SOL    HW180444   7.860   2.784   5.837
22794SOL    HW280445   7.852   2.640   5.912
22795SOL     OW80446   8.683   2.193   6.887
22795SOL    HW180447   8.754   2.165   6.951
22795SOL    HW280448   8.630   2.113   6.859
22796SOL     OW80449   7.384   1.892   6.088
22796SOL    HW180450   7.297   1.879   6.041
22796SOL    HW280451   7.392   1.987   6.118
22797SOL     OW80452   8.605   1.993   7.329
22797SOL    HW180453   8.664   2.009   7.409
22797SOL    HW280454   8.552   2.076   7.310
22798SOL     OW80455   7.821   3.412   7.154
22798SOL    HW180456   7.763   3.477   7.203
22798SOL    HW280457   7.883   3.462   7.094
22799SOL     OW80458   9.177   3.299   7.095
22799SOL    HW180459   9.205   3.392   7.117
22799SOL    HW280460   9.084   3.283   7.128
22800SOL     OW80461   8.427   2.412   6.645
22800SOL    HW180462   8.513   2.463   6.644
22800SOL    HW280463   8.433   2.338   6.712
22801SOL     OW80464   7.831   3.358   6.217
22801SOL    HW180465   7.829   3.259   6.230
22801SOL    HW280466   7.740   3.391   6.194
22802SOL     OW80467   8.472   3.475   6.805
22802SOL    HW180468   8.398   3.539   6.823
22802SOL    HW280469   8.551   3.524   6.767
22803SOL     OW80470   7.681   3.605   7.304
22803SOL    HW180471   7.724   3.689   7.270
22803SOL    HW280472   7.706   3.592   7.400
22804SOL     OW80473   7.541   3.141   7.175
22804SOL    HW180474   7.520   3.046   7.148
22804SOL    HW280475   7.472   3.202   7.137
22805SOL     OW80476   7.630   3.506   6.579
22805SOL    HW180477   7.572   3.426   6.593
22805SOL    HW280478   7.654   3.513   6.482
22806SOL     OW80479   8.376   2.027   6.434
22806SOL    HW180480   8.472   2.028   6.462
22806SOL    HW280481   8.321   1.984   6.506
22807SOL     OW80482   8.438   3.033   5.950
22807SOL    HW180483   8.518   3.069   5.998
22807SOL    HW280484   8.396   2.960   6.006
22808SOL     OW80485   9.029   2.300   6.314
22808SOL    HW180486   9.048   2.386   6.361
22808SOL    HW280487   9.097   2.231   6.342
22809SOL     OW80488   8.172   2.972   5.800
22809SOL    HW180489   8.244   3.031   5.765
22809SOL    HW280490   8.212   2.888   5.836
22810SOL     OW80491   8.243   1.948   5.652
22810SOL    HW180492   8.318   1.882   5.664
22810SOL    HW280493   8.274   2.039   5.680
22811SOL     OW80494   7.922   2.377   6.264
22811SOL    HW180495   7.960   2.288   6.290
22811SOL    HW280496   7.989   2.427   6.209
22812SOL     OW80497   7.910   2.935   6.918
22812SOL    HW180498   8.006   2.915   6.938
22812SOL    HW280499   7.899   3.033   6.900
22813SOL     OW80500   9.132   2.978   6.887
22813SOL    HW180501   9.146   3.076   6.901
22813SOL    HW280502   9.189   2.947   6.811
22814SOL     OW80503   7.615   3.087   5.579
22814SOL    HW180504   7.607   3.099   5.480
22814SOL    HW280505   7.674   3.158   5.617
22815SOL     OW80506   8.042   3.526   5.739
22815SOL    HW180507   8.017   3.621   5.723
22815SOL    HW280508   8.009   3.498   5.829
22816SOL     OW80509   8.692   2.949   6.963
22816SOL    HW180510   8.636   2.908   7.034
22816SOL    HW280511   8.672   3.047   6.957
22817SOL     OW80512   7.959   3.565   6.963
22817SOL    HW180513   8.008   3.645   6.927
22817SOL    HW280514   7.867   3.563   6.924
22818SOL     OW80515   7.602   2.446   7.325
22818SOL    HW180516   7.619   2.347   7.330
22818SOL    HW280517   7.666   2.494   7.386
22819SOL     OW80518   9.041   3.407   6.564
22819SOL    HW180519   9.013   3.500   6.588
22819SOL    HW280520   9.091   3.366   6.640
22820SOL     OW80521   7.437   2.780   6.125
22820SOL    HW180522   7.444   2.879   6.112
22820SOL    HW280523   7.346   2.757   6.159
22821SOL     OW80524   7.946   2.578   7.063
22821SOL    HW180525   7.852   2.548   7.044
22821SOL    HW280526   7.955   2.675   7.040
22822SOL     OW80527   8.171   2.360   6.544
22822SOL    HW180528   8.263   2.388   6.571
22822SOL    HW280529   8.103   2.411   6.598
22823SOL     OW80530   8.024   3.211   6.771
22823SOL    HW180531   7.937   3.210   6.722
22823SOL    HW280532   8.090   3.151   6.724
22824SOL     OW80533   7.590   2.553   6.685
22824SOL    HW180534   7.628   2.612   6.756
22824SOL    HW280535   7.573   2.606   6.603
22825SOL     OW80536   7.761   3.199   6.983
22825SOL    HW180537   7.780   3.287   7.027
22825SOL    HW280538   7.666   3.173   7.001
22826SOL     OW80539   8.712   3.053   6.052
22826SOL    HW180540   8.811   3.057   6.068
22826SOL    HW280541   8.695   3.039   5.954
22827SOL     OW80542   8.065   2.219   6.000
22827SOL    HW180543   7.967   2.213   5.980
22827SOL    HW280544   8.084   2.176   6.088
22828SOL     OW80545   8.985   1.902   6.259
22828SOL    HW180546   8.980   1.943   6.168
22828SOL    HW280547   9.066   1.936   6.306
22829SOL     OW80548   8.082   2.618   6.354
22829SOL    HW180549   8.104   2.540   6.412
22829SOL    HW280550   8.091   2.592   6.258
22830SOL     OW80551   8.747   3.325   6.566
22830SOL    HW180552   8.661   3.282   6.595
22830SOL    HW280553   8.736   3.365   6.475
22831SOL     OW80554   8.750   2.310   6.241
22831SOL    HW180555   8.749   2.302   6.142
22831SOL    HW280556   8.839   2.282   6.276
22832SOL     OW80557   8.477   3.326   8.074
22832SOL    HW180558   8.568   3.360   8.097
22832SOL    HW280559   8.449   3.364   7.986
22833SOL     OW80560   8.988   3.122   7.932
22833SOL    HW180561   8.999   3.206   7.986
22833SOL    HW280562   9.078   3.085   7.909
22834SOL     OW80563   9.068   2.404   8.796
22834SOL    HW180564   8.970   2.396   8.818
22834SOL    HW280565   9.121   2.393   8.880
22835SOL     OW80566   8.722   3.430   8.176
22835SOL    HW180567   8.711   3.527   8.199
22835SOL    HW280568   8.815   3.413   8.146
22836SOL     OW80569   8.600   1.941   8.734
22836SOL    HW180570   8.524   1.896   8.781
22836SOL    HW280571   8.629   1.886   8.656
22837SOL     OW80572   8.338   2.721   9.111
22837SOL    HW180573   8.303   2.696   9.021
22837SOL    HW280574   8.262   2.742   9.172
22838SOL     OW80575   7.963   1.928   7.527
22838SOL    HW180576   8.051   1.956   7.488
22838SOL    HW280577   7.891   1.991   7.497
22839SOL     OW80578   8.329   3.175   8.891
22839SOL    HW180579   8.272   3.238   8.837
22839SOL    HW280580   8.362   3.101   8.832
22840SOL     OW80581   7.872   3.068   8.100
22840SOL    HW180582   7.805   3.022   8.159
22840SOL    HW280583   7.964   3.036   8.123
22841SOL     OW80584   8.099   2.474   7.931
22841SOL    HW180585   8.138   2.544   7.872
22841SOL    HW280586   8.073   2.394   7.877
22842SOL     OW80587   8.719   2.382   9.140
22842SOL    HW180588   8.815   2.386   9.166
22842SOL    HW280589   8.675   2.306   9.187
22843SOL     OW80590   7.650   2.619   7.812
22843SOL    HW180591   7.665   2.553   7.886
22843SOL    HW280592   7.600   2.698   7.847
22844SOL     OW80593   8.236   3.564   7.989
22844SOL    HW180594   8.301   3.497   7.953
22844SOL    HW280595   8.226   3.640   7.925
22845SOL     OW80596   9.128   3.446   7.731
22845SOL    HW180597   9.224   3.420   7.724
22845SOL    HW280598   9.104   3.506   7.655
22846SOL     OW80599   9.040   2.139   8.502
22846SOL    HW180600   9.091   2.211   8.455
22846SOL    HW280601   8.945   2.166   8.511
22847SOL     OW80602   8.440   2.168   7.771
22847SOL    HW180603   8.465   2.262   7.792
22847SOL    HW280604   8.441   2.114   7.855
22848SOL     OW80605   7.564   2.881   8.956
22848SOL    HW180606   7.660   2.896   8.974
22848SOL    HW280607   7.526   2.819   9.025
22849SOL     OW80608   7.890   2.526   7.499
22849SOL    HW180609   7.850   2.605   7.452
22849SOL    HW280610   7.979   2.505   7.459
22850SOL     OW80611   8.063   3.450   8.197
22850SOL    HW180612   8.136   3.473   8.133
22850SOL    HW280613   7.992   3.397   8.151
22851SOL     OW80614   9.009   3.282   8.173
22851SOL    HW180615   9.005   3.317   8.266
22851SOL    HW280616   9.068   3.341   8.117
22852SOL     OW80617   7.740   3.103   7.849
22852SOL    HW180618   7.786   3.077   7.934
22852SOL    HW280619   7.760   3.035   7.778
22853SOL     OW80620   8.598   2.158   7.560
22853SOL    HW180621   8.692   2.128   7.578
22853SOL    HW280622   8.546   2.158   7.646
22854SOL     OW80623   7.785   2.135   7.814
22854SOL    HW180624   7.739   2.175   7.893
22854SOL    HW280625   7.733   2.154   7.732
22855SOL     OW80626   9.208   2.380   8.581
22855SOL    HW180627   9.265   2.462   8.583
22855SOL    HW280628   9.149   2.379   8.661
22856SOL     OW80629   9.225   3.606   8.494
22856SOL    HW180630   9.271   3.616   8.582
22856SOL    HW280631   9.292   3.609   8.421
22857SOL     OW80632   8.338   2.346   8.056
22857SOL    HW180633   8.414   2.374   8.115
22857SOL    HW280634   8.294   2.426   8.017
22858SOL     OW80635   8.573   2.810   7.573
22858SOL    HW180636   8.610   2.760   7.651
22858SOL    HW280637   8.503   2.755   7.528
22859SOL     OW80638   8.415   2.232   9.194
22859SOL    HW180639   8.478   2.237   9.271
22859SOL    HW280640   8.323   2.210   9.227
22860SOL     OW80641   9.156   2.479   7.652
22860SOL    HW180642   9.177   2.398   7.598
22860SOL    HW280643   9.173   2.460   7.749
22861SOL     OW80644   8.450   3.617   7.560
22861SOL    HW180645   8.484   3.530   7.525
22861SOL    HW280646   8.418   3.605   7.654
22862SOL     OW80647   8.131   1.884   9.092
22862SOL    HW180648   8.138   1.790   9.059
22862SOL    HW280649   8.188   1.894   9.174
22863SOL     OW80650   9.054   2.485   8.360
22863SOL    HW180651   9.039   2.576   8.397
22863SOL    HW280652   9.124   2.438   8.414
22864SOL     OW80653   8.119   2.993   9.130
22864SOL    HW180654   8.090   3.070   9.187
22864SOL    HW280655   8.129   2.912   9.188
22865SOL     OW80656   8.754   1.857   8.236
22865SOL    HW180657   8.703   1.941   8.218
22865SOL    HW280658   8.840   1.859   8.185
22866SOL     OW80659   9.109   2.063   9.165
22866SOL    HW180660   9.086   2.084   9.260
22866SOL    HW280661   9.085   1.968   9.145
22867SOL     OW80662   7.585   3.352   7.763
22867SOL    HW180663   7.612   3.258   7.783
22867SOL    HW280664   7.610   3.374   7.669
22868SOL     OW80665   7.599   3.495   8.000
22868SOL    HW180666   7.515   3.546   8.018
22868SOL    HW280667   7.590   3.444   7.915
22869SOL     OW80668   7.872   2.792   7.402
22869SOL    HW180669   7.841   2.826   7.314
22869SOL    HW280670   7.876   2.867   7.468
22870SOL     OW80671   8.389   2.979   8.701
22870SOL    HW180672   8.439   2.894   8.685
22870SOL    HW280673   8.343   3.006   8.616
22871SOL     OW80674   7.476   2.684   7.575
22871SOL    HW180675   7.536   2.631   7.635
22871SOL    HW280676   7.382   2.652   7.587
22872SOL     OW80677   8.996   2.682   7.775
22872SOL    HW180678   9.064   2.616   7.742
22872SOL    HW280679   9.011   2.770   7.731
22873SOL     OW80680   8.244   3.669   8.423
22873SOL    HW180681   8.290   3.602   8.365
22873SOL    HW280682   8.170   3.625   8.473
22874SOL     OW80683   8.151   2.738   7.459
22874SOL    HW180684   8.180   2.657   7.510
22874SOL    HW280685   8.051   2.737   7.450
22875SOL     OW80686   8.747   2.270   7.805
22875SOL    HW180687   8.684   2.328   7.753
22875SOL    HW280688   8.840   2.304   7.793
22876SOL     OW80689   7.644   2.471   8.905
22876SOL    HW180690   7.664   2.376   8.880
22876SOL    HW280691   7.607   2.474   8.998
22877SOL     OW80692   7.526   2.126   8.795
22877SOL    HW180693   7.598   2.136   8.726
22877SOL    HW280694   7.437   2.125   8.750
22878SOL     OW80695   9.015   2.281   7.875
22878SOL    HW180696   9.111   2.252   7.872
22878SOL    HW280697   8.976   2.259   7.964
22879SOL     OW80698   8.299   3.356   8.312
22879SOL    HW180699   8.357   3.367   8.231
22879SOL    HW280700   8.205   3.380   8.290
22880SOL     OW80701   8.249   2.222   7.597
22880SOL    HW180702   8.158   2.235   7.635
22880SOL    HW280703   8.309   2.182   7.667
22881SOL     OW80704   9.111   3.462   8.017
22881SOL    HW180705   9.078   3.555   8.036
22881SOL    HW280706   9.109   3.446   7.918
22882SOL     OW80707   8.526   2.735   8.006
22882SOL    HW180708   8.591   2.763   8.077
22882SOL    HW280709   8.447   2.796   8.008
22883SOL     OW80710   8.274   3.461   9.030
22883SOL    HW180711   8.262   3.392   8.959
22883SOL    HW280712   8.237   3.426   9.117
22884SOL     OW80713   8.718   2.775   8.209
22884SOL    HW180714   8.739   2.717   8.287
22884SOL    HW280715   8.727   2.871   8.235
22885SOL     OW80716   7.674   2.904   8.255
22885SOL    HW180717   7.597   2.966   8.248
22885SOL    HW280718   7.711   2.905   8.348
22886SOL     OW80719   8.307   2.852   7.954
22886SOL    HW180720   8.294   2.763   7.911
22886SOL    HW280721   8.238   2.866   8.025
22887SOL     OW80722   7.418   2.157   7.857
22887SOL    HW180723   7.478   2.108   7.795
22887SOL    HW280724   7.473   2.209   7.922
22888SOL     OW80725   8.205   2.622   8.706
22888SOL    HW180726   8.207   2.708   8.757
22888SOL    HW280727   8.262   2.554   8.753
22889SOL     OW80728   7.442   3.649   8.777
22889SOL    HW180729   7.450   3.749   8.775
22889SOL    HW280730   7.418   3.620   8.870
22890SOL     OW80731   8.223   2.668   7.771
22890SOL    HW180732   8.134   2.696   7.736
22890SOL    HW280733   8.264   2.602   7.707
22891SOL     OW80734   7.742   3.584   7.581
22891SOL    HW180735   7.834   3.614   7.556
22891SOL    HW280736   7.717   3.623   7.670
22892SOL     OW80737   7.423   3.001   8.330
22892SOL    HW180738   7.333   3.017   8.291
22892SOL    HW280739   7.421   2.917   8.385
22893SOL     OW80740   8.174   1.906   7.780
22893SOL    HW180741   8.135   1.895   7.689
22893SOL    HW280742   8.130   1.982   7.827
22894SOL     OW80743   7.419   3.042   7.874
22894SOL    HW180744   7.497   3.100   7.898
22894SOL    HW280745   7.438   2.993   7.789
22895SOL     OW80746   8.949   2.170   8.958
22895SOL    HW180747   8.888   2.248   8.955
22895SOL    HW280748   9.004   2.174   9.041
22896SOL     OW80749   8.665   2.116   8.249
22896SOL    HW180750   8.664   2.194   8.186
22896SOL    HW280751   8.708   2.143   8.335
22897SOL     OW80752   8.785   1.922   7.545
22897SOL    HW180753   8.865   1.862   7.542
22897SOL    HW280754   8.711   1.875   7.593
22898SOL     OW80755   8.998   1.894   8.979
22898SOL    HW180756   9.024   1.851   8.893
22898SOL    HW280757   8.948   1.978   8.961
22899SOL     OW80758   8.100   2.153   8.111
22899SOL    HW180759   8.089   2.095   8.192
22899SOL    HW280760   8.185   2.205   8.119
22900SOL     OW80761   8.680   2.504   8.503
22900SOL    HW180762   8.734   2.544   8.429
22900SOL    HW280763   8.718   2.533   8.591
22901SOL     OW80764   8.973   1.910   7.819
22901SOL    HW180765   8.980   1.864   7.731
22901SOL    HW280766   8.877   1.920   7.844
22902SOL     OW80767   7.949   3.225   9.182
22902SOL    HW180768   7.910   3.288   9.115
22902SOL    HW280769   8.032   3.265   9.222
22903SOL     OW80770   7.825   2.957   9.014
22903SOL    HW180771   7.844   2.981   8.919
22903SOL    HW280772   7.818   3.040   9.069
22904SOL     OW80773   7.486   3.247   8.488
22904SOL    HW180774   7.455   3.173   8.429
22904SOL    HW280775   7.418   3.265   8.559
22905SOL     OW80776   8.572   2.448   8.221
22905SOL    HW180777   8.654   2.425   8.169
22905SOL    HW280778   8.567   2.389   8.302
22906SOL     OW80779   9.172   2.475   9.057
22906SOL    HW180780   9.161   2.561   9.006
22906SOL    HW280781   9.266   2.466   9.087
22907SOL     OW80782   8.743   2.248   8.476
22907SOL    HW180783   8.717   2.345   8.482
22907SOL    HW280784   8.743   2.208   8.568
22908SOL     OW80785   8.973   2.380   9.227
22908SOL    HW180786   9.053   2.405   9.171
22908SOL    HW280787   9.004   2.345   9.315
22909SOL     OW80788   8.684   2.683   7.807
22909SOL    HW180789   8.630   2.681   7.891
22909SOL    HW280790   8.761   2.746   7.818
22910SOL     OW80791   8.981   2.779   8.027
22910SOL    HW180792   8.995   2.742   7.934
22910SOL    HW280793   8.892   2.749   8.061
22911SOL     OW80794   9.137   2.716   8.922
22911SOL    HW180795   9.039   2.737   8.924
22911SOL    HW280796   9.186   2.792   8.881
22912SOL     OW80797   8.991   2.136   7.601
22912SOL    HW180798   8.996   2.178   7.692
22912SOL    HW280799   8.924   2.061   7.603
22913SOL     OW80800   8.138   3.351   8.821
22913SOL    HW180801   8.075   3.429   8.828
22913SOL    HW280802   8.106   3.289   8.749
22914SOL     OW80803   7.529   2.146   9.086
22914SOL    HW180804   7.547   2.135   8.988
22914SOL    HW280805   7.431   2.142   9.103
22915SOL     OW80806   7.409   3.560   9.030
22915SOL    HW180807   7.481   3.546   9.098
22915SOL    HW280808   7.320   3.563   9.075
22916SOL     OW80809   7.577   2.216   8.054
22916SOL    HW180810   7.520   2.271   8.115
22916SOL    HW280811   7.647   2.168   8.107
22917SOL     OW80812   7.714   2.407   7.652
22917SOL    HW180813   7.786   2.436   7.589
22917SOL    HW280814   7.670   2.487   7.692
22918SOL     OW80815   9.100   2.069   8.755
22918SOL    HW180816   9.056   2.117   8.831
22918SOL    HW280817   9.078   2.115   8.669
22919SOL     OW80818   7.829   3.670   8.118
22919SOL    HW180819   7.753   3.636   8.063
22919SOL    HW280820   7.915   3.633   8.083
22920SOL     OW80821   7.754   3.179   8.563
22920SOL    HW180822   7.766   3.195   8.660
22920SOL    HW280823   7.667   3.219   8.533
22921SOL     OW80824   7.760   2.654   8.101
22921SOL    HW180825   7.752   2.752   8.119
22921SOL    HW280826   7.844   2.620   8.142
22922SOL     OW80827   7.606   2.134   7.616
22922SOL    HW180828   7.650   2.103   7.533
22922SOL    HW280829   7.607   2.234   7.620
22923SOL     OW80830   8.520   2.565   7.429
22923SOL    HW180831   8.451   2.622   7.385
22923SOL    HW280832   8.601   2.559   7.370
22924SOL     OW80833   8.255   2.484   7.572
22924SOL    HW180834   8.345   2.485   7.527
22924SOL    HW280835   8.232   2.390   7.597
22925SOL     OW80836   8.706   2.001   7.866
22925SOL    HW180837   8.616   1.985   7.907
22925SOL    HW280838   8.714   2.097   7.840
22926SOL     OW80839   8.820   2.401   8.882
22926SOL    HW180840   8.772   2.424   8.966
22926SOL    HW280841   8.754   2.371   8.813
22927SOL     OW80842   7.455   1.916   7.526
22927SOL    HW180843   7.518   1.839   7.534
22927SOL    HW280844   7.475   1.984   7.597
22928SOL     OW80845   7.728   2.891   8.527
22928SOL    HW180846   7.739   2.846   8.616
22928SOL    HW280847   7.755   2.987   8.534
22929SOL     OW80848   9.027   2.903   7.627
22929SOL    HW180849   9.098   2.973   7.629
22929SOL    HW280850   9.014   2.873   7.532
22930SOL     OW80851   8.152   2.873   8.866
22930SOL    HW180852   8.221   2.925   8.816
22930SOL    HW280853   8.147   2.906   8.961
22931SOL     OW80854   8.473   2.076   8.022
22931SOL    HW180855   8.532   2.136   8.077
22931SOL    HW280856   8.400   2.040   8.079
22932SOL     OW80857   8.583   3.608   9.062
22932SOL    HW180858   8.488   3.606   9.030
22932SOL    HW280859   8.604   3.699   9.099
22933SOL     OW80860   7.701   3.618   8.660
22933SOL    HW180861   7.681   3.600   8.564
22933SOL    HW280862   7.628   3.580   8.717
22934SOL     OW80863   8.394   3.082   8.205
22934SOL    HW180864   8.433   3.125   8.124
22934SOL    HW280865   8.467   3.065   8.272
22935SOL     OW80866   8.088   2.810   8.407
22935SOL    HW180867   8.086   2.726   8.352
22935SOL    HW280868   8.037   2.796   8.492
22936SOL     OW80869   7.427   2.820   8.533
22936SOL    HW180870   7.516   2.798   8.573
22936SOL    HW280871   7.372   2.736   8.529
22937SOL     OW80872   7.655   1.865   7.813
22937SOL    HW180873   7.693   1.953   7.840
22937SOL    HW280874   7.578   1.841   7.873
22938SOL     OW80875   8.071   2.482   9.141
22938SOL    HW180876   8.023   2.533   9.070
22938SOL    HW280877   8.164   2.461   9.111
22939SOL     OW80878   7.477   2.952   7.633
22939SOL    HW180879   7.467   2.855   7.612
22939SOL    HW280880   7.530   2.997   7.561
22940SOL     OW80881   9.174   2.064   8.234
22940SOL    HW180882   9.129   2.046   8.321
22940SOL    HW280883   9.272   2.081   8.250
22941SOL     OW80884   8.222   3.040   8.486
22941SOL    HW180885   8.173   2.955   8.467
22941SOL    HW280886   8.292   3.055   8.417
22942SOL     OW80887   8.560   2.463   7.695
22942SOL    HW180888   8.612   2.535   7.741
22942SOL    HW280889   8.573   2.470   7.597
22943SOL     OW80890   7.678   2.720   8.762
22943SOL    HW180891   7.642   2.630   8.788
22943SOL    HW280892   7.639   2.790   8.822
22944SOL     OW80893   8.180   3.346   7.420
22944SOL    HW180894   8.155   3.423   7.479
22944SOL    HW280895   8.244   3.286   7.468
22945SOL     OW80896   7.998   3.553   8.454
22945SOL    HW180897   8.018   3.523   8.361
22945SOL    HW280898   7.923   3.498   8.491
22946SOL     OW80899   8.141   2.964   8.171
22946SOL    HW180900   8.230   3.010   8.171
22946SOL    HW280901   8.134   2.904   8.250
22947SOL     OW80902   8.319   3.311   7.840
22947SOL    HW180903   8.369   3.299   7.755
22947SOL    HW280904   8.265   3.228   7.859
22948SOL     OW80905   7.446   2.775   9.167
22948SOL    HW180906   7.361   2.726   9.148
22948SOL    HW280907   7.473   2.762   9.262
22949SOL     OW80908   8.343   3.684   8.873
22949SOL    HW180909   8.315   3.597   8.914
22949SOL    HW280910   8.287   3.758   8.910
22950SOL     OW80911   7.846   2.302   9.167
22950SOL    HW180912   7.882   2.249   9.090
22950SOL    HW280913   7.907   2.379   9.185
22951SOL     OW80914   7.910   2.719   7.739
22951SOL    HW180915   7.860   2.784   7.683
22951SOL    HW280916   7.852   2.640   7.758
22952SOL     OW80917   8.683   2.193   8.733
22952SOL    HW180918   8.754   2.165   8.797
22952SOL    HW280919   8.630   2.113   8.705
22953SOL     OW80920   7.384   1.892   7.934
22953SOL    HW180921   7.297   1.879   7.887
22953SOL    HW280922   7.392   1.987   7.964
22954SOL     OW80923   8.605   1.993   9.175
22954SOL    HW180924   8.664   2.009   9.255
22954SOL    HW280925   8.552   2.076   9.156
22955SOL     OW80926   7.821   3.412   9.000
22955SOL    HW180927   7.763   3.477   9.049
22955SOL    HW280928   7.883   3.462   8.940
22956SOL     OW80929   9.177   3.299   8.941
22956SOL    HW180930   9.205   3.392   8.963
22956SOL    HW280931   9.084   3.283   8.974
22957SOL     OW80932   7.831   3.358   8.063
22957SOL    HW180933   7.829   3.259   8.076
22957SOL    HW280934   7.740   3.391   8.040
22958SOL     OW80935   7.681   3.605   9.150
22958SOL    HW180936   7.724   3.689   9.116
22958SOL    HW280937   7.706   3.592   9.246
22959SOL     OW80938   7.541   3.141   9.021
22959SOL    HW180939   7.520   3.046   8.994
22959SOL    HW280940   7.472   3.202   8.983
22960SOL     OW80941   7.630   3.506   8.425
22960SOL    HW180942   7.572   3.426   8.439
22960SOL    HW280943   7.654   3.513   8.328
22961SOL     OW80944   8.376   2.027   8.280
22961SOL    HW180945   8.472   2.028   8.308
22961SOL    HW280946   8.321   1.984   8.352
22962SOL     OW80947   8.438   3.033   7.796
22962SOL    HW180948   8.518   3.069   7.844
22962SOL    HW280949   8.396   2.960   7.852
22963SOL     OW80950   9.029   2.300   8.160
22963SOL    HW180951   9.048   2.386   8.207
22963SOL    HW280952   9.097   2.231   8.188
22964SOL     OW80953   8.243   1.948   7.498
22964SOL    HW180954   8.318   1.882   7.510
22964SOL    HW280955   8.274   2.039   7.526
22965SOL     OW80956   7.922   2.377   8.110
22965SOL    HW180957   7.960   2.288   8.136
22965SOL    HW280958   7.989   2.427   8.055
22966SOL     OW80959   7.910   2.935   8.764
22966SOL    HW180960   8.006   2.915   8.784
22966SOL    HW280961   7.899   3.033   8.746
22967SOL     OW80962   9.132   2.978   8.733
22967SOL    HW180963   9.146   3.076   8.747
22967SOL    HW280964   9.189   2.947   8.657
22968SOL     OW80965   7.615   3.087   7.425
22968SOL    HW180966   7.607   3.099   7.326
22968SOL    HW280967   7.674   3.158   7.463
22969SOL     OW80968   7.959   3.565   8.809
22969SOL    HW180969   8.008   3.645   8.773
22969SOL    HW280970   7.867   3.563   8.770
22970SOL     OW80971   7.602   2.446   9.171
22970SOL    HW180972   7.619   2.347   9.176
22970SOL    HW280973   7.666   2.494   9.232
22971SOL     OW80974   7.437   2.780   7.971
22971SOL    HW180975   7.444   2.879   7.958
22971SOL    HW280976   7.346   2.757   8.005
22972SOL     OW80977   7.946   2.578   8.909
22972SOL    HW180978   7.852   2.548   8.890
22972SOL    HW280979   7.955   2.675   8.886
22973SOL     OW80980   9.013   2.954   8.221
22973SOL    HW180981   8.975   3.043   8.194
22973SOL    HW280982   9.013   2.892   8.143
22974SOL     OW80983   8.024   3.211   8.617
22974SOL    HW180984   7.937   3.210   8.568
22974SOL    HW280985   8.090   3.151   8.570
22975SOL     OW80986   7.761   3.199   8.829
22975SOL    HW180987   7.780   3.287   8.873
22975SOL    HW280988   7.666   3.173   8.847
22976SOL     OW80989   9.004   3.515   9.177
22976SOL    HW180990   8.973   3.437   9.122
22976SOL    HW280991   8.973   3.600   9.135
22977SOL     OW80992   8.712   3.053   7.898
22977SOL    HW180993   8.811   3.057   7.914
22977SOL    HW280994   8.695   3.039   7.800
22978SOL     OW80995   8.065   2.219   7.846
22978SOL    HW180996   7.967   2.213   7.826
22978SOL    HW280997   8.084   2.176   7.934
22979SOL     OW80998   8.985   1.902   8.105
22979SOL    HW180999   8.980   1.943   8.014
22979SOL    HW281000   9.066   1.936   8.152
22980SOL     OW81001   8.082   2.618   8.200
22980SOL    HW181002   8.104   2.540   8.258
22980SOL    HW281003   8.091   2.592   8.104
22981SOL     OW81004   8.747   3.325   8.412
22981SOL    HW181005   8.661   3.282   8.441
22981SOL    HW281006   8.736   3.365   8.321
22982SOL     OW81007   8.750   2.310   8.087
22982SOL    HW181008   8.749   2.302   7.988
22982SOL    HW281009   8.839   2.282   8.122
22983SOL     OW81010   8.477   3.326   9.919
22983SOL    HW181011   8.568   3.360   9.942
22983SOL    HW281012   8.449   3.364   9.831
22984SOL     OW81013   7.735   2.041   9.246
22984SOL    HW181014   7.648   2.038   9.197
22984SOL    HW281015   7.786   2.123   9.218
22985SOL     OW81016   7.945   3.395   9.650
22985SOL    HW181017   7.901   3.404   9.739
22985SOL    HW281018   8.016   3.325   9.654
22986SOL     OW81019   7.963   1.928   9.372
22986SOL    HW181020   8.051   1.956   9.333
22986SOL    HW281021   7.891   1.991   9.342
22987SOL     OW81022   7.872   3.068   9.945
22987SOL    HW181023   7.805   3.022  10.004
22987SOL    HW281024   7.964   3.036   9.968
22988SOL     OW81025   8.099   2.474   9.776
22988SOL    HW181026   8.138   2.544   9.717
22988SOL    HW281027   8.073   2.394   9.722
22989SOL     OW81028   7.802   3.237   9.429
22989SOL    HW181029   7.866   3.253   9.354
22989SOL    HW281030   7.826   3.295   9.507
22990SOL     OW81031   7.650   2.619   9.657
22990SOL    HW181032   7.665   2.553   9.731
22990SOL    HW281033   7.600   2.698   9.692
22991SOL     OW81034   8.236   3.564   9.834
22991SOL    HW181035   8.301   3.497   9.798
22991SOL    HW281036   8.226   3.640   9.770
22992SOL     OW81037   9.128   3.446   9.576
22992SOL    HW181038   9.224   3.420   9.569
22992SOL    HW281039   9.104   3.506   9.500
22993SOL     OW81040   8.440   2.168   9.616
22993SOL    HW181041   8.465   2.262   9.637
22993SOL    HW281042   8.441   2.114   9.700
22994SOL     OW81043   7.890   2.526   9.344
22994SOL    HW181044   7.850   2.605   9.297
22994SOL    HW281045   7.979   2.505   9.304
22995SOL     OW81046   7.740   3.103   9.694
22995SOL    HW181047   7.786   3.077   9.779
22995SOL    HW281048   7.760   3.035   9.623
22996SOL     OW81049   8.598   2.158   9.405
22996SOL    HW181050   8.692   2.128   9.423
22996SOL    HW281051   8.546   2.158   9.491
22997SOL     OW81052   7.785   2.135   9.659
22997SOL    HW181053   7.739   2.175   9.738
22997SOL    HW281054   7.733   2.154   9.577
22998SOL     OW81055   9.225   3.606  10.339
22998SOL    HW181056   9.271   3.616  10.427
22998SOL    HW281057   9.292   3.609  10.266
22999SOL     OW81058   8.338   2.346   9.901
22999SOL    HW181059   8.414   2.374   9.960
22999SOL    HW281060   8.294   2.426   9.862
23000SOL     OW81061   8.573   2.810   9.418
23000SOL    HW181062   8.610   2.760   9.496
23000SOL    HW281063   8.503   2.755   9.373
23001SOL     OW81064   9.156   2.479   9.497
23001SOL    HW181065   9.177   2.398   9.443
23001SOL    HW281066   9.173   2.460   9.594
23002SOL     OW81067   8.450   3.617   9.405
23002SOL    HW181068   8.484   3.530   9.370
23002SOL    HW281069   8.418   3.605   9.499
23003SOL     OW81070   7.412   2.467   9.754
23003SOL    HW181071   7.414   2.418   9.841
23003SOL    HW281072   7.414   2.566   9.772
23004SOL     OW81073   7.585   3.352   9.608
23004SOL    HW181074   7.612   3.258   9.628
23004SOL    HW281075   7.610   3.374   9.514
23005SOL     OW81076   7.599   3.495   9.845
23005SOL    HW181077   7.515   3.546   9.863
23005SOL    HW281078   7.590   3.444   9.760
23006SOL     OW81079   7.872   2.792   9.247
23006SOL    HW181080   7.841   2.826   9.159
23006SOL    HW281081   7.876   2.867   9.313
23007SOL     OW81082   7.476   2.684   9.420
23007SOL    HW181083   7.536   2.631   9.480
23007SOL    HW281084   7.382   2.652   9.432
23008SOL     OW81085   8.996   2.682   9.620
23008SOL    HW181086   9.064   2.616   9.587
23008SOL    HW281087   9.011   2.770   9.576
23009SOL     OW81088   8.151   2.738   9.304
23009SOL    HW181089   8.180   2.657   9.355
23009SOL    HW281090   8.051   2.737   9.295
23010SOL     OW81091   8.747   2.270   9.650
23010SOL    HW181092   8.684   2.328   9.598
23010SOL    HW281093   8.840   2.304   9.638
23011SOL     OW81094   9.015   2.281   9.720
23011SOL    HW181095   9.111   2.252   9.717
23011SOL    HW281096   8.976   2.259   9.809
23012SOL     OW81097   8.249   2.222   9.442
23012SOL    HW181098   8.158   2.235   9.480
23012SOL    HW281099   8.309   2.182   9.512
23013SOL     OW81100   8.360   3.167   9.377
23013SOL    HW181101   8.413   3.107   9.437
23013SOL    HW281102   8.399   3.168   9.286
23014SOL     OW81103   8.526   2.735   9.851
23014SOL    HW181104   8.591   2.763   9.922
23014SOL    HW281105   8.447   2.796   9.853
23015SOL     OW81106   8.718   2.775  10.054
23015SOL    HW181107   8.739   2.717  10.132
23015SOL    HW281108   8.727   2.871  10.080
23016SOL     OW81109   8.307   2.852   9.799
23016SOL    HW181110   8.294   2.763   9.756
23016SOL    HW281111   8.238   2.866   9.870
23017SOL     OW81112   7.418   2.157   9.702
23017SOL    HW181113   7.478   2.108   9.640
23017SOL    HW281114   7.473   2.209   9.767
23018SOL     OW81115   9.041   3.655   9.393
23018SOL    HW181116   9.131   3.699   9.395
23018SOL    HW281117   9.040   3.586   9.321
23019SOL     OW81118   8.223   2.668   9.616
23019SOL    HW181119   8.134   2.696   9.581
23019SOL    HW281120   8.264   2.602   9.552
23020SOL     OW81121   7.742   3.584   9.426
23020SOL    HW181122   7.834   3.614   9.401
23020SOL    HW281123   7.717   3.623   9.515
23021SOL     OW81124   8.174   1.906   9.625
23021SOL    HW181125   8.135   1.895   9.534
23021SOL    HW281126   8.130   1.982   9.672
23022SOL     OW81127   7.419   3.042   9.719
23022SOL    HW181128   7.497   3.100   9.743
23022SOL    HW281129   7.438   2.993   9.634
23023SOL     OW81130   8.785   1.922   9.390
23023SOL    HW181131   8.865   1.862   9.387
23023SOL    HW281132   8.711   1.875   9.438
23024SOL     OW81133   8.100   2.153   9.956
23024SOL    HW181134   8.089   2.095  10.037
23024SOL    HW281135   8.185   2.205   9.964
23025SOL     OW81136   8.973   1.910   9.664
23025SOL    HW181137   8.980   1.864   9.576
23025SOL    HW281138   8.877   1.920   9.689
23026SOL     OW81139   8.684   2.683   9.652
23026SOL    HW181140   8.630   2.681   9.736
23026SOL    HW281141   8.761   2.746   9.663
23027SOL     OW81142   8.981   2.779   9.872
23027SOL    HW181143   8.995   2.742   9.779
23027SOL    HW281144   8.892   2.749   9.906
23028SOL     OW81145   8.991   2.136   9.446
23028SOL    HW181146   8.996   2.178   9.537
23028SOL    HW281147   8.924   2.061   9.448
23029SOL     OW81148   7.714   2.407   9.497
23029SOL    HW181149   7.786   2.436   9.434
23029SOL    HW281150   7.670   2.487   9.537
23030SOL     OW81151   7.829   3.670   9.963
23030SOL    HW181152   7.753   3.636   9.908
23030SOL    HW281153   7.915   3.633   9.928
23031SOL     OW81154   8.128   3.103   9.744
23031SOL    HW181155   8.171   3.034   9.686
23031SOL    HW281156   8.092   3.060   9.827
23032SOL     OW81157   7.606   2.134   9.461
23032SOL    HW181158   7.650   2.103   9.378
23032SOL    HW281159   7.607   2.234   9.465
23033SOL     OW81160   7.459   2.386  10.072
23033SOL    HW181161   7.423   2.479  10.064
23033SOL    HW281162   7.542   2.387  10.128
23034SOL     OW81163   7.894   2.973   9.458
23034SOL    HW181164   7.994   2.973   9.469
23034SOL    HW281165   7.863   3.066   9.437
23035SOL     OW81166   8.520   2.565   9.274
23035SOL    HW181167   8.451   2.622   9.230
23035SOL    HW281168   8.601   2.559   9.215
23036SOL     OW81169   8.255   2.484   9.417
23036SOL    HW181170   8.345   2.485   9.372
23036SOL    HW281171   8.232   2.390   9.442
23037SOL     OW81172   8.706   2.001   9.711
23037SOL    HW181173   8.616   1.985   9.752
23037SOL    HW281174   8.714   2.097   9.685
23038SOL     OW81175   7.455   1.916   9.371
23038SOL    HW181176   7.518   1.839   9.379
23038SOL    HW281177   7.475   1.984   9.442
23039SOL     OW81178   9.027   2.903   9.472
23039SOL    HW181179   9.098   2.973   9.474
23039SOL    HW281180   9.014   2.873   9.377
23040SOL     OW81181   8.473   2.076   9.867
23040SOL    HW181182   8.532   2.136   9.922
23040SOL    HW281183   8.400   2.040   9.924
23041SOL     OW81184   7.655   1.865   9.658
23041SOL    HW181185   7.693   1.953   9.685
23041SOL    HW281186   7.578   1.841   9.718
23042SOL     OW81187   7.477   2.952   9.478
23042SOL    HW181188   7.467   2.855   9.457
23042SOL    HW281189   7.530   2.997   9.406
23043SOL     OW81190   9.174   2.064  10.079
23043SOL    HW181191   9.129   2.046  10.166
23043SOL    HW281192   9.272   2.081  10.095
23044SOL     OW81193   8.560   2.463   9.540
23044SOL    HW181194   8.612   2.535   9.586
23044SOL    HW281195   8.573   2.470   9.442
23045SOL     OW81196   8.180   3.346   9.265
23045SOL    HW181197   8.155   3.423   9.324
23045SOL    HW281198   8.244   3.286   9.313
23046SOL     OW81199   8.141   2.964  10.016
23046SOL    HW181200   8.230   3.010  10.016
23046SOL    HW281201   8.134   2.904  10.095
23047SOL     OW81202   8.319   3.311   9.685
23047SOL    HW181203   8.369   3.299   9.600
23047SOL    HW281204   8.265   3.228   9.704
23048SOL     OW81205   7.910   2.719   9.584
23048SOL    HW181206   7.860   2.784   9.528
23048SOL    HW281207   7.852   2.640   9.603
23049SOL     OW81208   7.384   1.892   9.779
23049SOL    HW181209   7.297   1.879   9.732
23049SOL    HW281210   7.392   1.987   9.809
23050SOL     OW81211   7.831   3.358   9.908
23050SOL    HW181212   7.829   3.259   9.921
23050SOL    HW281213   7.740   3.391   9.885
23051SOL     OW81214   8.438   3.033   9.641
23051SOL    HW181215   8.518   3.069   9.689
23051SOL    HW281216   8.396   2.960   9.697
23052SOL     OW81217   9.029   2.300  10.005
23052SOL    HW181218   9.048   2.386  10.052
23052SOL    HW281219   9.097   2.231  10.033
23053SOL     OW81220   8.172   2.972   9.491
23053SOL    HW181221   8.244   3.031   9.456
23053SOL    HW281222   8.212   2.888   9.527
23054SOL     OW81223   8.243   1.948   9.343
23054SOL    HW181224   8.318   1.882   9.355
23054SOL    HW281225   8.274   2.039   9.371
23055SOL     OW81226   7.922   2.377   9.955
23055SOL    HW181227   7.960   2.288   9.981
23055SOL    HW281228   7.989   2.427   9.900
23056SOL     OW81229   7.615   3.087   9.270
23056SOL    HW181230   7.607   3.099   9.171
23056SOL    HW281231   7.674   3.158   9.308
23057SOL     OW81232   8.042   3.526   9.430
23057SOL    HW181233   8.017   3.621   9.414
23057SOL    HW281234   8.009   3.498   9.520
23058SOL     OW81235   7.437   2.780   9.816
23058SOL    HW181236   7.444   2.879   9.803
23058SOL    HW281237   7.346   2.757   9.850
23059SOL     OW81238   8.712   3.053   9.743
23059SOL    HW181239   8.811   3.057   9.759
23059SOL    HW281240   8.695   3.039   9.645
23060SOL     OW81241   8.065   2.219   9.691
23060SOL    HW181242   7.967   2.213   9.671
23060SOL    HW281243   8.084   2.176   9.779
23061SOL     OW81244   8.985   1.902   9.950
23061SOL    HW181245   8.980   1.943   9.859
23061SOL    HW281246   9.066   1.936   9.997
23062SOL     OW81247   8.750   2.310   9.932
23062SOL    HW181248   8.749   2.302   9.833
23062SOL    HW281249   8.839   2.282   9.967
23063SOL     OW81250   8.477   5.172   0.692
23063SOL    HW181251   8.568   5.206   0.715
23063SOL    HW281252   8.449   5.210   0.604
23064SOL     OW81253   8.988   4.968   0.550
23064SOL    HW181254   8.999   5.052   0.604
23064SOL    HW281255   9.078   4.931   0.527
23065SOL     OW81256   9.068   4.250   1.414
23065SOL    HW181257   8.970   4.242   1.436
23065SOL    HW281258   9.121   4.239   1.498
23066SOL     OW81259   7.735   3.887   0.019
23066SOL    HW181260   7.648   3.884  -0.030
23066SOL    HW281261   7.786   3.969  -0.009
23067SOL     OW81262   8.722   5.276   0.794
23067SOL    HW181263   8.711   5.373   0.817
23067SOL    HW281264   8.815   5.259   0.764
23068SOL     OW81265   8.338   4.567   1.729
23068SOL    HW181266   8.303   4.542   1.639
23068SOL    HW281267   8.262   4.588   1.790
23069SOL     OW81268   7.945   5.241   0.423
23069SOL    HW181269   7.901   5.250   0.512
23069SOL    HW281270   8.016   5.171   0.427
23070SOL     OW81271   7.963   3.774   0.145
23070SOL    HW181272   8.051   3.802   0.106
23070SOL    HW281273   7.891   3.837   0.115
23071SOL     OW81274   8.933   4.759   1.528
23071SOL    HW181275   8.841   4.764   1.490
23071SOL    HW281276   8.998   4.797   1.462
23072SOL     OW81277   8.833   4.766   1.209
23072SOL    HW181278   8.758   4.755   1.274
23072SOL    HW281279   8.870   4.859   1.215
23073SOL     OW81280   8.329   5.021   1.509
23073SOL    HW181281   8.272   5.084   1.455
23073SOL    HW281282   8.362   4.947   1.450
23074SOL     OW81283   7.872   4.914   0.718
23074SOL    HW181284   7.805   4.868   0.777
23074SOL    HW281285   7.964   4.882   0.741
23075SOL     OW81286   8.099   4.320   0.549
23075SOL    HW181287   8.138   4.390   0.490
23075SOL    HW281288   8.073   4.240   0.495
23076SOL     OW81289   7.802   5.083   0.202
23076SOL    HW181290   7.866   5.099   0.127
23076SOL    HW281291   7.826   5.141   0.280
23077SOL     OW81292   7.953   4.039   1.012
23077SOL    HW181293   8.029   4.104   1.008
23077SOL    HW281294   7.983   3.950   0.979
23078SOL     OW81295   7.650   4.465   0.430
23078SOL    HW181296   7.665   4.399   0.504
23078SOL    HW281297   7.600   4.544   0.465
23079SOL     OW81298   8.236   5.410   0.607
23079SOL    HW181299   8.301   5.343   0.571
23079SOL    HW281300   8.226   5.486   0.543
23080SOL     OW81301   9.128   5.292   0.349
23080SOL    HW181302   9.224   5.266   0.342
23080SOL    HW281303   9.104   5.352   0.273
23081SOL     OW81304   9.040   3.985   1.120
23081SOL    HW181305   9.091   4.057   1.073
23081SOL    HW281306   8.945   4.012   1.129
23082SOL     OW81307   8.440   4.014   0.389
23082SOL    HW181308   8.465   4.108   0.410
23082SOL    HW281309   8.441   3.960   0.473
23083SOL     OW81310   7.564   4.727   1.574
23083SOL    HW181311   7.660   4.742   1.592
23083SOL    HW281312   7.526   4.665   1.643
23084SOL     OW81313   7.890   4.372   0.117
23084SOL    HW181314   7.850   4.451   0.070
23084SOL    HW281315   7.979   4.351   0.077
23085SOL     OW81316   8.063   5.296   0.815
23085SOL    HW181317   8.136   5.319   0.751
23085SOL    HW281318   7.992   5.243   0.769
23086SOL     OW81319   9.009   5.128   0.791
23086SOL    HW181320   9.005   5.163   0.884
23086SOL    HW281321   9.068   5.187   0.735
23087SOL     OW81322   7.740   4.949   0.467
23087SOL    HW181323   7.786   4.923   0.552
23087SOL    HW281324   7.760   4.881   0.396
23088SOL     OW81325   8.598   4.004   0.178
23088SOL    HW181326   8.692   3.974   0.196
23088SOL    HW281327   8.546   4.004   0.264
23089SOL     OW81328   7.750   4.209   1.273
23089SOL    HW181329   7.740   4.122   1.225
23089SOL    HW281330   7.686   4.276   1.236
23090SOL     OW81331   8.832   4.489   1.311
23090SOL    HW181332   8.836   4.583   1.276
23090SOL    HW281333   8.925   4.458   1.333
23091SOL     OW81334   7.785   3.981   0.432
23091SOL    HW181335   7.739   4.021   0.511
23091SOL    HW281336   7.733   4.000   0.350
23092SOL     OW81337   8.913   5.508   1.344
23092SOL    HW181338   8.856   5.459   1.278
23092SOL    HW281339   8.999   5.535   1.301
23093SOL     OW81340   9.208   4.226   1.199
23093SOL    HW181341   9.265   4.308   1.201
23093SOL    HW281342   9.149   4.225   1.279
23094SOL     OW81343   9.225   5.452   1.112
23094SOL    HW181344   9.271   5.462   1.200
23094SOL    HW281345   9.292   5.455   1.039
23095SOL     OW81346   9.156   4.325   0.270
23095SOL    HW181347   9.177   4.244   0.216
23095SOL    HW281348   9.173   4.306   0.367
23096SOL     OW81349   8.450   5.463   0.178
23096SOL    HW181350   8.484   5.376   0.143
23096SOL    HW281351   8.418   5.451   0.272
23097SOL     OW81352   9.054   4.331   0.978
23097SOL    HW181353   9.039   4.422   1.015
23097SOL    HW281354   9.124   4.284   1.032
23098SOL     OW81355   8.464   4.997   1.744
23098SOL    HW181356   8.486   4.907   1.706
23098SOL    HW281357   8.399   5.044   1.685
23099SOL     OW81358   8.119   4.839   1.748
23099SOL    HW181359   8.090   4.916   1.805
23099SOL    HW281360   8.129   4.758   1.806
23100SOL     OW81361   8.754   3.703   0.854
23100SOL    HW181362   8.703   3.787   0.836
23100SOL    HW281363   8.840   3.705   0.803
23101SOL     OW81364   9.109   3.909   1.783
23101SOL    HW181365   9.086   3.930   1.878
23101SOL    HW281366   9.085   3.814   1.763
23102SOL     OW81367   7.412   4.313   0.527
23102SOL    HW181368   7.414   4.264   0.614
23102SOL    HW281369   7.414   4.412   0.545
23103SOL     OW81370   7.733   3.901   0.848
23103SOL    HW181371   7.785   3.941   0.923
23103SOL    HW281372   7.786   3.828   0.805
23104SOL     OW81373   7.717   3.949   1.182
23104SOL    HW181374   7.682   3.856   1.182
23104SOL    HW281375   7.804   3.952   1.133
23105SOL     OW81376   7.585   5.198   0.381
23105SOL    HW181377   7.612   5.104   0.401
23105SOL    HW281378   7.610   5.220   0.287
23106SOL     OW81379   8.867   5.067   1.255
23106SOL    HW181380   8.838   5.104   1.166
23106SOL    HW281381   8.789   5.067   1.317
23107SOL     OW81382   7.599   5.341   0.618
23107SOL    HW181383   7.515   5.392   0.636
23107SOL    HW281384   7.590   5.290   0.533
23108SOL     OW81385   9.120   5.138   1.293
23108SOL    HW181386   9.151   5.152   1.387
23108SOL    HW281387   9.021   5.125   1.292
23109SOL     OW81388   7.872   4.638   0.020
23109SOL    HW181389   7.841   4.672  -0.068
23109SOL    HW281390   7.876   4.713   0.086
23110SOL     OW81391   8.389   4.825   1.319
23110SOL    HW181392   8.439   4.740   1.303
23110SOL    HW281393   8.343   4.852   1.234
23111SOL     OW81394   7.476   4.530   0.193
23111SOL    HW181395   7.536   4.477   0.253
23111SOL    HW281396   7.382   4.498   0.205
23112SOL     OW81397   8.996   4.528   0.393
23112SOL    HW181398   9.064   4.462   0.360
23112SOL    HW281399   9.011   4.616   0.349
23113SOL     OW81400   8.244   5.515   1.041
23113SOL    HW181401   8.290   5.448   0.983
23113SOL    HW281402   8.170   5.471   1.091
23114SOL     OW81403   8.151   4.584   0.077
23114SOL    HW181404   8.180   4.503   0.128
23114SOL    HW281405   8.051   4.583   0.068
23115SOL     OW81406   8.747   4.116   0.423
23115SOL    HW181407   8.684   4.174   0.371
23115SOL    HW281408   8.840   4.150   0.411
23116SOL     OW81409   7.526   3.972   1.413
23116SOL    HW181410   7.598   3.982   1.344
23116SOL    HW281411   7.437   3.971   1.368
23117SOL     OW81412   8.424   4.593   1.178
23117SOL    HW181413   8.418   4.579   1.079
23117SOL    HW281414   8.343   4.554   1.222
23118SOL     OW81415   9.015   4.127   0.493
23118SOL    HW181416   9.111   4.098   0.490
23118SOL    HW281417   8.976   4.105   0.582
23119SOL     OW81418   8.299   5.202   0.930
23119SOL    HW181419   8.357   5.213   0.849
23119SOL    HW281420   8.205   5.226   0.908
23120SOL     OW81421   8.249   4.068   0.215
23120SOL    HW181422   8.158   4.081   0.253
23120SOL    HW281423   8.309   4.028   0.285
23121SOL     OW81424   9.111   5.308   0.635
23121SOL    HW181425   9.078   5.401   0.654
23121SOL    HW281426   9.109   5.292   0.536
23122SOL     OW81427   8.274   5.307   1.648
23122SOL    HW181428   8.262   5.238   1.577
23122SOL    HW281429   8.237   5.272   1.735
23123SOL     OW81430   8.718   4.621   0.827
23123SOL    HW181431   8.739   4.563   0.905
23123SOL    HW281432   8.727   4.717   0.853
23124SOL     OW81433   7.674   4.750   0.873
23124SOL    HW181434   7.597   4.812   0.866
23124SOL    HW281435   7.711   4.751   0.966
23125SOL     OW81436   8.611   5.086   1.411
23125SOL    HW181437   8.644   5.171   1.452
23125SOL    HW281438   8.512   5.082   1.418
23126SOL     OW81439   7.418   4.003   0.475
23126SOL    HW181440   7.478   3.954   0.413
23126SOL    HW281441   7.473   4.055   0.540
23127SOL     OW81442   9.041   5.501   0.166
23127SOL    HW181443   9.131   5.545   0.168
23127SOL    HW281444   9.040   5.432   0.094
23128SOL     OW81445   7.442   5.495   1.395
23128SOL    HW181446   7.450   5.595   1.393
23128SOL    HW281447   7.418   5.466   1.488
23129SOL     OW81448   7.745   4.232   0.928
23129SOL    HW181449   7.801   4.225   0.845
23129SOL    HW281450   7.802   4.210   1.008
23130SOL     OW81451   7.742   5.430   0.199
23130SOL    HW181452   7.834   5.460   0.174
23130SOL    HW281453   7.717   5.469   0.288
23131SOL     OW81454   8.718   5.452   1.136
23131SOL    HW181455   8.737   5.515   1.062
23131SOL    HW281456   8.726   5.358   1.103
23132SOL     OW81457   7.423   4.847   0.948
23132SOL    HW181458   7.333   4.863   0.909
23132SOL    HW281459   7.421   4.763   1.003
23133SOL     OW81460   8.174   3.752   0.398
23133SOL    HW181461   8.135   3.741   0.307
23133SOL    HW281462   8.130   3.828   0.445
23134SOL     OW81463   7.419   4.888   0.492
23134SOL    HW181464   7.497   4.946   0.516
23134SOL    HW281465   7.438   4.839   0.407
23135SOL     OW81466   8.949   4.016   1.576
23135SOL    HW181467   8.888   4.094   1.573
23135SOL    HW281468   9.004   4.020   1.659
23136SOL     OW81469   8.785   3.768   0.163
23136SOL    HW181470   8.865   3.708   0.160
23136SOL    HW281471   8.711   3.721   0.211
23137SOL     OW81472   8.998   3.740   1.597
23137SOL    HW181473   9.024   3.697   1.511
23137SOL    HW281474   8.948   3.824   1.579
23138SOL     OW81475   8.100   3.999   0.729
23138SOL    HW181476   8.089   3.941   0.810
23138SOL    HW281477   8.185   4.051   0.737
23139SOL     OW81478   8.973   3.756   0.437
23139SOL    HW181479   8.980   3.710   0.349
23139SOL    HW281480   8.877   3.766   0.462
23140SOL     OW81481   7.949   5.071   1.800
23140SOL    HW181482   7.910   5.134   1.733
23140SOL    HW281483   8.032   5.111   1.840
23141SOL     OW81484   7.825   4.803   1.632
23141SOL    HW181485   7.844   4.827   1.537
23141SOL    HW281486   7.818   4.886   1.687
23142SOL     OW81487   7.486   5.093   1.106
23142SOL    HW181488   7.455   5.019   1.047
23142SOL    HW281489   7.418   5.111   1.177
23143SOL     OW81490   9.172   4.321   1.675
23143SOL    HW181491   9.161   4.407   1.624
23143SOL    HW281492   9.266   4.312   1.705
23144SOL     OW81493   8.973   4.226   1.845
23144SOL    HW181494   9.053   4.251   1.789
23144SOL    HW281495   9.004   4.191   1.933
23145SOL     OW81496   8.981   4.625   0.645
23145SOL    HW181497   8.995   4.588   0.552
23145SOL    HW281498   8.892   4.595   0.679
23146SOL     OW81499   9.137   4.562   1.540
23146SOL    HW181500   9.039   4.583   1.542
23146SOL    HW281501   9.186   4.638   1.499
23147SOL     OW81502   8.991   3.982   0.219
23147SOL    HW181503   8.996   4.024   0.310
23147SOL    HW281504   8.924   3.907   0.221
23148SOL     OW81505   8.138   5.197   1.439
23148SOL    HW181506   8.075   5.275   1.446
23148SOL    HW281507   8.106   5.135   1.367
23149SOL     OW81508   7.409   5.406   1.648
23149SOL    HW181509   7.481   5.392   1.716
23149SOL    HW281510   7.320   5.409   1.693
23150SOL     OW81511   7.577   4.062   0.672
23150SOL    HW181512   7.520   4.117   0.733
23150SOL    HW281513   7.647   4.014   0.725
23151SOL     OW81514   8.749   5.294   1.535
23151SOL    HW181515   8.702   5.362   1.590
23151SOL    HW281516   8.816   5.340   1.476
23152SOL     OW81517   7.714   4.253   0.270
23152SOL    HW181518   7.786   4.282   0.207
23152SOL    HW281519   7.670   4.333   0.310
23153SOL     OW81520   9.100   3.915   1.373
23153SOL    HW181521   9.056   3.963   1.449
23153SOL    HW281522   9.078   3.961   1.287
23154SOL     OW81523   7.829   5.516   0.736
23154SOL    HW181524   7.753   5.482   0.681
23154SOL    HW281525   7.915   5.479   0.701
23155SOL     OW81526   7.754   5.025   1.181
23155SOL    HW181527   7.766   5.041   1.278
23155SOL    HW281528   7.667   5.065   1.151
23156SOL     OW81529   8.638   5.229   1.827
23156SOL    HW181530   8.597   5.144   1.793
23156SOL    HW281531   8.618   5.303   1.763
23157SOL     OW81532   8.128   4.949   0.517
23157SOL    HW181533   8.171   4.880   0.459
23157SOL    HW281534   8.092   4.906   0.600
23158SOL     OW81535   7.760   4.500   0.719
23158SOL    HW181536   7.752   4.598   0.737
23158SOL    HW281537   7.844   4.466   0.760
23159SOL     OW81538   7.606   3.980   0.234
23159SOL    HW181539   7.650   3.949   0.151
23159SOL    HW281540   7.607   4.080   0.238
23160SOL     OW81541   7.459   4.232   0.845
23160SOL    HW181542   7.423   4.325   0.837
23160SOL    HW281543   7.542   4.233   0.901
23161SOL     OW81544   7.894   4.819   0.231
23161SOL    HW181545   7.994   4.819   0.242
23161SOL    HW281546   7.863   4.912   0.210
23162SOL     OW81547   8.520   4.411   0.047
23162SOL    HW181548   8.451   4.468   0.003
23162SOL    HW281549   8.601   4.405  -0.012
23163SOL     OW81550   8.255   4.330   0.190
23163SOL    HW181551   8.345   4.331   0.145
23163SOL    HW281552   8.232   4.236   0.215
23164SOL     OW81553   8.706   3.847   0.484
23164SOL    HW181554   8.616   3.831   0.525
23164SOL    HW281555   8.714   3.943   0.458
23165SOL     OW81556   7.455   3.762   0.144
23165SOL    HW181557   7.518   3.685   0.152
23165SOL    HW281558   7.475   3.830   0.215
23166SOL     OW81559   7.728   4.737   1.145
23166SOL    HW181560   7.739   4.692   1.234
23166SOL    HW281561   7.755   4.833   1.152
23167SOL     OW81562   9.027   4.749   0.245
23167SOL    HW181563   9.098   4.819   0.247
23167SOL    HW281564   9.014   4.719   0.150
23168SOL     OW81565   8.152   4.719   1.484
23168SOL    HW181566   8.221   4.771   1.434
23168SOL    HW281567   8.147   4.752   1.579
23169SOL     OW81568   8.544   4.740   1.644
23169SOL    HW181569   8.466   4.686   1.677
23169SOL    HW281570   8.625   4.718   1.699
23170SOL     OW81571   8.583   5.454   1.680
23170SOL    HW181572   8.488   5.452   1.648
23170SOL    HW281573   8.604   5.545   1.717
23171SOL     OW81574   8.001   3.799   0.911
23171SOL    HW181575   7.929   3.732   0.897
23171SOL    HW281576   8.083   3.753   0.946
23172SOL     OW81577   7.701   5.464   1.278
23172SOL    HW181578   7.681   5.446   1.182
23172SOL    HW281579   7.628   5.426   1.335
23173SOL     OW81580   8.088   4.656   1.025
23173SOL    HW181581   8.086   4.572   0.970
23173SOL    HW281582   8.037   4.642   1.110
23174SOL     OW81583   7.427   4.666   1.151
23174SOL    HW181584   7.516   4.644   1.191
23174SOL    HW281585   7.372   4.582   1.147
23175SOL     OW81586   7.655   3.711   0.431
23175SOL    HW181587   7.693   3.799   0.458
23175SOL    HW281588   7.578   3.687   0.491
23176SOL     OW81589   8.071   4.328   1.759
23176SOL    HW181590   8.023   4.379   1.688
23176SOL    HW281591   8.164   4.307   1.729
23177SOL     OW81592   7.477   4.798   0.251
23177SOL    HW181593   7.467   4.701   0.230
23177SOL    HW281594   7.530   4.843   0.179
23178SOL     OW81595   9.174   3.910   0.852
23178SOL    HW181596   9.129   3.892   0.939
23178SOL    HW281597   9.272   3.927   0.868
23179SOL     OW81598   8.560   4.309   0.313
23179SOL    HW181599   8.612   4.381   0.359
23179SOL    HW281600   8.573   4.316   0.215
23180SOL     OW81601   8.921   5.124   1.640
23180SOL    HW181602   8.906   5.026   1.654
23180SOL    HW281603   8.838   5.166   1.604
23181SOL     OW81604   7.678   4.566   1.380
23181SOL    HW181605   7.642   4.476   1.406
23181SOL    HW281606   7.639   4.636   1.440
23182SOL     OW81607   8.180   5.192   0.038
23182SOL    HW181608   8.155   5.269   0.097
23182SOL    HW281609   8.244   5.132   0.086
23183SOL     OW81610   7.998   5.399   1.072
23183SOL    HW181611   8.018   5.369   0.979
23183SOL    HW281612   7.923   5.344   1.109
23184SOL     OW81613   8.141   4.810   0.789
23184SOL    HW181614   8.230   4.856   0.789
23184SOL    HW281615   8.134   4.750   0.868
23185SOL     OW81616   8.319   5.157   0.458
23185SOL    HW181617   8.369   5.145   0.373
23185SOL    HW281618   8.265   5.074   0.477
23186SOL     OW81619   7.509   4.504   0.858
23186SOL    HW181620   7.604   4.495   0.826
23186SOL    HW281621   7.475   4.596   0.837
23187SOL     OW81622   8.343   5.530   1.491
23187SOL    HW181623   8.315   5.443   1.532
23187SOL    HW281624   8.287   5.604   1.528
23188SOL     OW81625   8.572   4.877   1.021
23188SOL    HW181626   8.556   4.971   1.052
23188SOL    HW281627   8.575   4.816   1.101
23189SOL     OW81628   7.910   4.565   0.357
23189SOL    HW181629   7.860   4.630   0.301
23189SOL    HW281630   7.852   4.486   0.376
23190SOL     OW81631   8.991   4.596   1.055
23190SOL    HW181632   9.010   4.635   0.964
23190SOL    HW281633   8.945   4.665   1.111
23191SOL     OW81634   7.384   3.738   0.552
23191SOL    HW181635   7.297   3.725   0.505
23191SOL    HW281636   7.392   3.833   0.582
23192SOL     OW81637   7.821   5.258   1.618
23192SOL    HW181638   7.763   5.323   1.667
23192SOL    HW281639   7.883   5.308   1.558
23193SOL     OW81640   9.177   5.145   1.559
23193SOL    HW181641   9.205   5.238   1.581
23193SOL    HW281642   9.084   5.129   1.592
23194SOL     OW81643   7.831   5.204   0.681
23194SOL    HW181644   7.829   5.105   0.694
23194SOL    HW281645   7.740   5.237   0.658
23195SOL     OW81646   8.472   5.321   1.269
23195SOL    HW181647   8.398   5.385   1.287
23195SOL    HW281648   8.551   5.370   1.231
23196SOL     OW81649   7.681   5.451   1.768
23196SOL    HW181650   7.724   5.535   1.734
23196SOL    HW281651   7.706   5.438   1.864
23197SOL     OW81652   7.541   4.987   1.639
23197SOL    HW181653   7.520   4.892   1.612
23197SOL    HW281654   7.472   5.048   1.601
23198SOL     OW81655   7.630   5.352   1.043
23198SOL    HW181656   7.572   5.272   1.057
23198SOL    HW281657   7.654   5.359   0.946
23199SOL     OW81658   9.029   4.146   0.778
23199SOL    HW181659   9.048   4.232   0.825
23199SOL    HW281660   9.097   4.077   0.806
23200SOL     OW81661   8.243   3.794   0.116
23200SOL    HW181662   8.318   3.728   0.128
23200SOL    HW281663   8.274   3.885   0.144
23201SOL     OW81664   7.922   4.223   0.728
23201SOL    HW181665   7.960   4.134   0.754
23201SOL    HW281666   7.989   4.273   0.673
23202SOL     OW81667   7.910   4.781   1.382
23202SOL    HW181668   8.006   4.761   1.402
23202SOL    HW281669   7.899   4.879   1.364
23203SOL     OW81670   9.132   4.824   1.351
23203SOL    HW181671   9.146   4.922   1.365
23203SOL    HW281672   9.189   4.793   1.275
23204SOL     OW81673   7.615   4.933   0.043
23204SOL    HW181674   7.607   4.945  -0.056
23204SOL    HW281675   7.674   5.004   0.081
23205SOL     OW81676   8.042   5.372   0.203
23205SOL    HW181677   8.017   5.467   0.187
23205SOL    HW281678   8.009   5.344   0.293
23206SOL     OW81679   8.692   4.795   1.427
23206SOL    HW181680   8.636   4.754   1.498
23206SOL    HW281681   8.672   4.893   1.421
23207SOL     OW81682   7.959   5.411   1.427
23207SOL    HW181683   8.008   5.491   1.391
23207SOL    HW281684   7.867   5.409   1.388
23208SOL     OW81685   9.041   5.253   1.028
23208SOL    HW181686   9.013   5.346   1.052
23208SOL    HW281687   9.091   5.212   1.104
23209SOL     OW81688   7.437   4.626   0.589
23209SOL    HW181689   7.444   4.725   0.576
23209SOL    HW281690   7.346   4.603   0.623
23210SOL     OW81691   7.946   4.424   1.527
23210SOL    HW181692   7.852   4.394   1.508
23210SOL    HW281693   7.955   4.521   1.504
23211SOL     OW81694   9.013   4.800   0.839
23211SOL    HW181695   8.975   4.889   0.812
23211SOL    HW281696   9.013   4.738   0.761
23212SOL     OW81697   8.024   5.057   1.235
23212SOL    HW181698   7.937   5.056   1.186
23212SOL    HW281699   8.090   4.997   1.188
23213SOL     OW81700   7.590   4.399   1.149
23213SOL    HW181701   7.628   4.458   1.220
23213SOL    HW281702   7.573   4.452   1.067
23214SOL     OW81703   7.761   5.045   1.447
23214SOL    HW181704   7.780   5.133   1.491
23214SOL    HW281705   7.666   5.019   1.465
23215SOL     OW81706   9.004   5.361   1.795
23215SOL    HW181707   8.973   5.283   1.740
23215SOL    HW281708   8.973   5.446   1.753
23216SOL     OW81709   8.065   4.065   0.464
23216SOL    HW181710   7.967   4.059   0.444
23216SOL    HW281711   8.084   4.022   0.552
23217SOL     OW81712   8.985   3.748   0.723
23217SOL    HW181713   8.980   3.789   0.632
23217SOL    HW281714   9.066   3.782   0.770
23218SOL     OW81715   8.588   4.504   1.416
23218SOL    HW181716   8.687   4.513   1.406
23218SOL    HW281717   8.544   4.506   1.326
23219SOL     OW81718   8.747   5.171   1.030
23219SOL    HW181719   8.661   5.128   1.059
23219SOL    HW281720   8.736   5.211   0.939
23220SOL     OW81721   8.477   5.172   2.537
23220SOL    HW181722   8.568   5.206   2.560
23220SOL    HW281723   8.449   5.210   2.449
23221SOL     OW81724   8.988   4.968   2.395
23221SOL    HW181725   8.999   5.052   2.449
23221SOL    HW281726   9.078   4.931   2.372
23222SOL     OW81727   9.068   4.250   3.259
23222SOL    HW181728   8.970   4.242   3.281
23222SOL    HW281729   9.121   4.239   3.343
23223SOL     OW81730   7.735   3.887   1.864
23223SOL    HW181731   7.648   3.884   1.815
23223SOL    HW281732   7.786   3.969   1.836
23224SOL     OW81733   8.722   5.276   2.639
23224SOL    HW181734   8.711   5.373   2.662
23224SOL    HW281735   8.815   5.259   2.609
23225SOL     OW81736   8.600   3.787   3.197
23225SOL    HW181737   8.524   3.742   3.244
23225SOL    HW281738   8.629   3.732   3.119
23226SOL     OW81739   8.338   4.567   3.574
23226SOL    HW181740   8.303   4.542   3.484
23226SOL    HW281741   8.262   4.588   3.635
23227SOL     OW81742   7.945   5.241   2.268
23227SOL    HW181743   7.901   5.250   2.357
23227SOL    HW281744   8.016   5.171   2.272
23228SOL     OW81745   7.963   3.774   1.990
23228SOL    HW181746   8.051   3.802   1.951
23228SOL    HW281747   7.891   3.837   1.960
23229SOL     OW81748   8.933   4.759   3.373
23229SOL    HW181749   8.841   4.764   3.335
23229SOL    HW281750   8.998   4.797   3.307
23230SOL     OW81751   8.833   4.766   3.054
23230SOL    HW181752   8.758   4.755   3.119
23230SOL    HW281753   8.870   4.859   3.060
23231SOL     OW81754   7.872   4.914   2.563
23231SOL    HW181755   7.805   4.868   2.622
23231SOL    HW281756   7.964   4.882   2.586
23232SOL     OW81757   8.099   4.320   2.394
23232SOL    HW181758   8.138   4.390   2.335
23232SOL    HW281759   8.073   4.240   2.340
23233SOL     OW81760   8.719   4.228   3.603
23233SOL    HW181761   8.815   4.232   3.629
23233SOL    HW281762   8.675   4.152   3.650
23234SOL     OW81763   7.802   5.083   2.047
23234SOL    HW181764   7.866   5.099   1.972
23234SOL    HW281765   7.826   5.141   2.125
23235SOL     OW81766   7.953   4.039   2.857
23235SOL    HW181767   8.029   4.104   2.853
23235SOL    HW281768   7.983   3.950   2.824
23236SOL     OW81769   9.128   5.292   2.194
23236SOL    HW181770   9.224   5.266   2.187
23236SOL    HW281771   9.104   5.352   2.118
23237SOL     OW81772   9.040   3.985   2.965
23237SOL    HW181773   9.091   4.057   2.918
23237SOL    HW281774   8.945   4.012   2.974
23238SOL     OW81775   8.440   4.014   2.234
23238SOL    HW181776   8.465   4.108   2.255
23238SOL    HW281777   8.441   3.960   2.318
23239SOL     OW81778   7.564   4.727   3.419
23239SOL    HW181779   7.660   4.742   3.437
23239SOL    HW281780   7.526   4.665   3.488
23240SOL     OW81781   7.890   4.372   1.962
23240SOL    HW181782   7.850   4.451   1.915
23240SOL    HW281783   7.979   4.351   1.922
23241SOL     OW81784   8.405   4.328   3.414
23241SOL    HW181785   8.438   4.245   3.461
23241SOL    HW281786   8.478   4.396   3.413
23242SOL     OW81787   9.009   5.128   2.636
23242SOL    HW181788   9.005   5.163   2.729
23242SOL    HW281789   9.068   5.187   2.580
23243SOL     OW81790   7.750   4.209   3.118
23243SOL    HW181791   7.740   4.122   3.070
23243SOL    HW281792   7.686   4.276   3.081
23244SOL     OW81793   8.832   4.489   3.156
23244SOL    HW181794   8.836   4.583   3.121
23244SOL    HW281795   8.925   4.458   3.178
23245SOL     OW81796   8.913   5.508   3.189
23245SOL    HW181797   8.856   5.459   3.123
23245SOL    HW281798   8.999   5.535   3.146
23246SOL     OW81799   9.208   4.226   3.044
23246SOL    HW181800   9.265   4.308   3.046
23246SOL    HW281801   9.149   4.225   3.124
23247SOL     OW81802   9.225   5.452   2.957
23247SOL    HW181803   9.271   5.462   3.045
23247SOL    HW281804   9.292   5.455   2.884
23248SOL     OW81805   8.338   4.192   2.519
23248SOL    HW181806   8.414   4.220   2.578
23248SOL    HW281807   8.294   4.272   2.480
23249SOL     OW81808   8.573   4.656   2.036
23249SOL    HW181809   8.610   4.606   2.114
23249SOL    HW281810   8.503   4.601   1.991
23250SOL     OW81811   8.415   4.078   3.657
23250SOL    HW181812   8.478   4.083   3.734
23250SOL    HW281813   8.323   4.056   3.690
23251SOL     OW81814   9.156   4.325   2.115
23251SOL    HW181815   9.177   4.244   2.061
23251SOL    HW281816   9.173   4.306   2.212
23252SOL     OW81817   8.450   5.463   2.023
23252SOL    HW181818   8.484   5.376   1.988
23252SOL    HW281819   8.418   5.451   2.117
23253SOL     OW81820   8.131   3.730   3.555
23253SOL    HW181821   8.138   3.636   3.522
23253SOL    HW281822   8.188   3.740   3.637
23254SOL     OW81823   9.054   4.331   2.823
23254SOL    HW181824   9.039   4.422   2.860
23254SOL    HW281825   9.124   4.284   2.877
23255SOL     OW81826   8.754   3.703   2.699
23255SOL    HW181827   8.703   3.787   2.681
23255SOL    HW281828   8.840   3.705   2.648
23256SOL     OW81829   9.109   3.909   3.628
23256SOL    HW181830   9.086   3.930   3.723
23256SOL    HW281831   9.085   3.814   3.608
23257SOL     OW81832   7.412   4.313   2.372
23257SOL    HW181833   7.414   4.264   2.459
23257SOL    HW281834   7.414   4.412   2.390
23258SOL     OW81835   7.717   3.949   3.027
23258SOL    HW181836   7.682   3.856   3.027
23258SOL    HW281837   7.804   3.952   2.978
23259SOL     OW81838   8.384   4.571   2.767
23259SOL    HW181839   8.410   4.651   2.713
23259SOL    HW281840   8.378   4.491   2.707
23260SOL     OW81841   7.585   5.198   2.226
23260SOL    HW181842   7.612   5.104   2.246
23260SOL    HW281843   7.610   5.220   2.132
23261SOL     OW81844   8.867   5.067   3.100
23261SOL    HW181845   8.838   5.104   3.011
23261SOL    HW281846   8.789   5.067   3.162
23262SOL     OW81847   9.120   5.138   3.138
23262SOL    HW181848   9.151   5.152   3.232
23262SOL    HW281849   9.021   5.125   3.137
23263SOL     OW81850   7.872   4.638   1.865
23263SOL    HW181851   7.841   4.672   1.777
23263SOL    HW281852   7.876   4.713   1.931
23264SOL     OW81853   8.389   4.825   3.164
23264SOL    HW181854   8.439   4.740   3.148
23264SOL    HW281855   8.343   4.852   3.079
23265SOL     OW81856   8.996   4.528   2.238
23265SOL    HW181857   9.064   4.462   2.205
23265SOL    HW281858   9.011   4.616   2.194
23266SOL     OW81859   8.151   4.584   1.922
23266SOL    HW181860   8.180   4.503   1.973
23266SOL    HW281861   8.051   4.583   1.913
23267SOL     OW81862   7.644   4.317   3.368
23267SOL    HW181863   7.664   4.222   3.343
23267SOL    HW281864   7.607   4.320   3.461
23268SOL     OW81865   7.526   3.972   3.258
23268SOL    HW181866   7.598   3.982   3.189
23268SOL    HW281867   7.437   3.971   3.213
23269SOL     OW81868   8.424   4.593   3.023
23269SOL    HW181869   8.418   4.579   2.924
23269SOL    HW281870   8.343   4.554   3.067
23270SOL     OW81871   9.015   4.127   2.338
23270SOL    HW181872   9.111   4.098   2.335
23270SOL    HW281873   8.976   4.105   2.427
23271SOL     OW81874   8.360   5.013   1.995
23271SOL    HW181875   8.413   4.953   2.055
23271SOL    HW281876   8.399   5.014   1.904
23272SOL     OW81877   9.111   5.308   2.480
23272SOL    HW181878   9.078   5.401   2.499
23272SOL    HW281879   9.109   5.292   2.381
23273SOL     OW81880   8.526   4.581   2.469
23273SOL    HW181881   8.591   4.609   2.540
23273SOL    HW281882   8.447   4.642   2.471
23274SOL     OW81883   8.718   4.621   2.672
23274SOL    HW181884   8.739   4.563   2.750
23274SOL    HW281885   8.727   4.717   2.698
23275SOL     OW81886   7.674   4.750   2.718
23275SOL    HW181887   7.597   4.812   2.711
23275SOL    HW281888   7.711   4.751   2.811
23276SOL     OW81889   8.307   4.698   2.417
23276SOL    HW181890   8.294   4.609   2.374
23276SOL    HW281891   8.238   4.712   2.488
23277SOL     OW81892   8.611   5.086   3.256
23277SOL    HW181893   8.644   5.171   3.297
23277SOL    HW281894   8.512   5.082   3.263
23278SOL     OW81895   9.041   5.501   2.011
23278SOL    HW181896   9.131   5.545   2.013
23278SOL    HW281897   9.040   5.432   1.939
23279SOL     OW81898   8.205   4.468   3.169
23279SOL    HW181899   8.207   4.554   3.220
23279SOL    HW281900   8.262   4.400   3.216
23280SOL     OW81901   7.442   5.495   3.240
23280SOL    HW181902   7.450   5.595   3.238
23280SOL    HW281903   7.418   5.466   3.333
23281SOL     OW81904   8.223   4.514   2.234
23281SOL    HW181905   8.134   4.542   2.199
23281SOL    HW281906   8.264   4.448   2.170
23282SOL     OW81907   7.745   4.232   2.773
23282SOL    HW181908   7.801   4.225   2.690
23282SOL    HW281909   7.802   4.210   2.853
23283SOL     OW81910   7.742   5.430   2.044
23283SOL    HW181911   7.834   5.460   2.019
23283SOL    HW281912   7.717   5.469   2.133
23284SOL     OW81913   8.718   5.452   2.981
23284SOL    HW181914   8.737   5.515   2.907
23284SOL    HW281915   8.726   5.358   2.948
23285SOL     OW81916   7.423   4.847   2.793
23285SOL    HW181917   7.333   4.863   2.754
23285SOL    HW281918   7.421   4.763   2.848
23286SOL     OW81919   8.174   3.752   2.243
23286SOL    HW181920   8.135   3.741   2.152
23286SOL    HW281921   8.130   3.828   2.290
23287SOL     OW81922   7.419   4.888   2.337
23287SOL    HW181923   7.497   4.946   2.361
23287SOL    HW281924   7.438   4.839   2.252
23288SOL     OW81925   8.949   4.016   3.421
23288SOL    HW181926   8.888   4.094   3.418
23288SOL    HW281927   9.004   4.020   3.504
23289SOL     OW81928   8.665   3.962   2.712
23289SOL    HW181929   8.664   4.040   2.649
23289SOL    HW281930   8.708   3.989   2.798
23290SOL     OW81931   8.998   3.740   3.442
23290SOL    HW181932   9.024   3.697   3.356
23290SOL    HW281933   8.948   3.824   3.424
23291SOL     OW81934   8.100   3.999   2.574
23291SOL    HW181935   8.089   3.941   2.655
23291SOL    HW281936   8.185   4.051   2.582
23292SOL     OW81937   8.680   4.350   2.966
23292SOL    HW181938   8.734   4.390   2.892
23292SOL    HW281939   8.718   4.379   3.054
23293SOL     OW81940   7.486   5.093   2.951
23293SOL    HW181941   7.455   5.019   2.892
23293SOL    HW281942   7.418   5.111   3.022
23294SOL     OW81943   8.572   4.294   2.684
23294SOL    HW181944   8.654   4.271   2.632
23294SOL    HW281945   8.567   4.235   2.765
23295SOL     OW81946   9.172   4.321   3.520
23295SOL    HW181947   9.161   4.407   3.469
23295SOL    HW281948   9.266   4.312   3.550
23296SOL     OW81949   8.743   4.094   2.939
23296SOL    HW181950   8.717   4.191   2.945
23296SOL    HW281951   8.743   4.054   3.031
23297SOL     OW81952   8.973   4.226   3.690
23297SOL    HW181953   9.053   4.251   3.634
23297SOL    HW281954   9.004   4.191   3.778
23298SOL     OW81955   8.684   4.529   2.270
23298SOL    HW181956   8.630   4.527   2.354
23298SOL    HW281957   8.761   4.592   2.281
23299SOL     OW81958   8.981   4.625   2.490
23299SOL    HW181959   8.995   4.588   2.397
23299SOL    HW281960   8.892   4.595   2.524
23300SOL     OW81961   9.137   4.562   3.385
23300SOL    HW181962   9.039   4.583   3.387
23300SOL    HW281963   9.186   4.638   3.344
23301SOL     OW81964   7.529   3.992   3.549
23301SOL    HW181965   7.547   3.981   3.451
23301SOL    HW281966   7.431   3.988   3.566
23302SOL     OW81967   7.409   5.406   3.493
23302SOL    HW181968   7.481   5.392   3.561
23302SOL    HW281969   7.320   5.409   3.538
23303SOL     OW81970   8.749   5.294   3.380
23303SOL    HW181971   8.702   5.362   3.435
23303SOL    HW281972   8.816   5.340   3.321
23304SOL     OW81973   9.100   3.915   3.218
23304SOL    HW181974   9.056   3.963   3.294
23304SOL    HW281975   9.078   3.961   3.132
23305SOL     OW81976   7.754   5.025   3.026
23305SOL    HW181977   7.766   5.041   3.123
23305SOL    HW281978   7.667   5.065   2.996
23306SOL     OW81979   8.638   5.229   3.672
23306SOL    HW181980   8.597   5.144   3.638
23306SOL    HW281981   8.618   5.303   3.608
23307SOL     OW81982   8.128   4.949   2.362
23307SOL    HW181983   8.171   4.880   2.304
23307SOL    HW281984   8.092   4.906   2.445
23308SOL     OW81985   7.760   4.500   2.564
23308SOL    HW181986   7.752   4.598   2.582
23308SOL    HW281987   7.844   4.466   2.605
23309SOL     OW81988   7.459   4.232   2.690
23309SOL    HW181989   7.423   4.325   2.682
23309SOL    HW281990   7.542   4.233   2.746
23310SOL     OW81991   8.520   4.411   1.892
23310SOL    HW181992   8.451   4.468   1.848
23310SOL    HW281993   8.601   4.405   1.833
23311SOL     OW81994   8.706   3.847   2.329
23311SOL    HW181995   8.616   3.831   2.370
23311SOL    HW281996   8.714   3.943   2.303
23312SOL     OW81997   8.820   4.247   3.345
23312SOL    HW181998   8.772   4.270   3.429
23312SOL    HW281999   8.754   4.217   3.276
23313SOL     OW82000   7.728   4.737   2.990
23313SOL    HW182001   7.739   4.692   3.079
23313SOL    HW282002   7.755   4.833   2.997
23314SOL     OW82003   9.027   4.749   2.090
23314SOL    HW182004   9.098   4.819   2.092
23314SOL    HW282005   9.014   4.719   1.995
23315SOL     OW82006   8.009   4.350   3.012
23315SOL    HW182007   8.084   4.393   3.061
23315SOL    HW282008   7.942   4.315   3.078
23316SOL     OW82009   8.152   4.719   3.329
23316SOL    HW182010   8.221   4.771   3.279
23316SOL    HW282011   8.147   4.752   3.424
23317SOL     OW82012   8.544   4.740   3.489
23317SOL    HW182013   8.466   4.686   3.522
23317SOL    HW282014   8.625   4.718   3.544
23318SOL     OW82015   8.473   3.922   2.485
23318SOL    HW182016   8.532   3.982   2.540
23318SOL    HW282017   8.400   3.886   2.542
23319SOL     OW82018   8.583   5.454   3.525
23319SOL    HW182019   8.488   5.452   3.493
23319SOL    HW282020   8.604   5.545   3.562
23320SOL     OW82021   8.001   3.799   2.756
23320SOL    HW182022   7.929   3.732   2.742
23320SOL    HW282023   8.083   3.753   2.791
23321SOL     OW82024   8.394   4.928   2.668
23321SOL    HW182025   8.433   4.971   2.587
23321SOL    HW282026   8.467   4.911   2.735
23322SOL     OW82027   8.088   4.656   2.870
23322SOL    HW182028   8.086   4.572   2.815
23322SOL    HW282029   8.037   4.642   2.955
23323SOL     OW82030   7.427   4.666   2.996
23323SOL    HW182031   7.516   4.644   3.036
23323SOL    HW282032   7.372   4.582   2.992
23324SOL     OW82033   8.071   4.328   3.604
23324SOL    HW182034   8.023   4.379   3.533
23324SOL    HW282035   8.164   4.307   3.574
23325SOL     OW82036   9.174   3.910   2.697
23325SOL    HW182037   9.129   3.892   2.784
23325SOL    HW282038   9.272   3.927   2.713
23326SOL     OW82039   8.222   4.886   2.949
23326SOL    HW182040   8.173   4.801   2.930
23326SOL    HW282041   8.292   4.901   2.880
23327SOL     OW82042   8.560   4.309   2.158
23327SOL    HW182043   8.612   4.381   2.204
23327SOL    HW282044   8.573   4.316   2.060
23328SOL     OW82045   8.921   5.124   3.485
23328SOL    HW182046   8.906   5.026   3.499
23328SOL    HW282047   8.838   5.166   3.449
23329SOL     OW82048   7.678   4.566   3.225
23329SOL    HW182049   7.642   4.476   3.251
23329SOL    HW282050   7.639   4.636   3.285
23330SOL     OW82051   8.180   5.192   1.883
23330SOL    HW182052   8.155   5.269   1.942
23330SOL    HW282053   8.244   5.132   1.931
23331SOL     OW82054   8.141   4.810   2.634
23331SOL    HW182055   8.230   4.856   2.634
23331SOL    HW282056   8.134   4.750   2.713
23332SOL     OW82057   8.319   5.157   2.303
23332SOL    HW182058   8.369   5.145   2.218
23332SOL    HW282059   8.265   5.074   2.322
23333SOL     OW82060   7.509   4.504   2.703
23333SOL    HW182061   7.604   4.495   2.671
23333SOL    HW282062   7.475   4.596   2.682
23334SOL     OW82063   7.446   4.621   3.630
23334SOL    HW182064   7.361   4.572   3.611
23334SOL    HW282065   7.473   4.608   3.725
23335SOL     OW82066   8.572   4.877   2.866
23335SOL    HW182067   8.556   4.971   2.897
23335SOL    HW282068   8.575   4.816   2.946
23336SOL     OW82069   7.846   4.148   3.630
23336SOL    HW182070   7.882   4.095   3.553
23336SOL    HW282071   7.907   4.225   3.648
23337SOL     OW82072   8.991   4.596   2.900
23337SOL    HW182073   9.010   4.635   2.809
23337SOL    HW282074   8.945   4.665   2.956
23338SOL     OW82075   8.683   4.039   3.196
23338SOL    HW182076   8.754   4.011   3.260
23338SOL    HW282077   8.630   3.959   3.168
23339SOL     OW82078   8.605   3.839   3.638
23339SOL    HW182079   8.664   3.855   3.718
23339SOL    HW282080   8.552   3.922   3.619
23340SOL     OW82081   7.821   5.258   3.463
23340SOL    HW182082   7.763   5.323   3.512
23340SOL    HW282083   7.883   5.308   3.403
23341SOL     OW82084   9.177   5.145   3.404
23341SOL    HW182085   9.205   5.238   3.426
23341SOL    HW282086   9.084   5.129   3.437
23342SOL     OW82087   8.427   4.258   2.954
23342SOL    HW182088   8.513   4.309   2.953
23342SOL    HW282089   8.433   4.184   3.021
23343SOL     OW82090   7.831   5.204   2.526
23343SOL    HW182091   7.829   5.105   2.539
23343SOL    HW282092   7.740   5.237   2.503
23344SOL     OW82093   7.681   5.451   3.613
23344SOL    HW182094   7.724   5.535   3.579
23344SOL    HW282095   7.706   5.438   3.709
23345SOL     OW82096   7.541   4.987   3.484
23345SOL    HW182097   7.520   4.892   3.457
23345SOL    HW282098   7.472   5.048   3.446
23346SOL     OW82099   8.376   3.873   2.743
23346SOL    HW182100   8.472   3.874   2.771
23346SOL    HW282101   8.321   3.830   2.815
23347SOL     OW82102   8.438   4.879   2.259
23347SOL    HW182103   8.518   4.915   2.307
23347SOL    HW282104   8.396   4.806   2.315
23348SOL     OW82105   9.029   4.146   2.623
23348SOL    HW182106   9.048   4.232   2.670
23348SOL    HW282107   9.097   4.077   2.651
23349SOL     OW82108   8.172   4.818   2.109
23349SOL    HW182109   8.244   4.877   2.074
23349SOL    HW282110   8.212   4.734   2.145
23350SOL     OW82111   7.922   4.223   2.573
23350SOL    HW182112   7.960   4.134   2.599
23350SOL    HW282113   7.989   4.273   2.518
23351SOL     OW82114   9.132   4.824   3.196
23351SOL    HW182115   9.146   4.922   3.210
23351SOL    HW282116   9.189   4.793   3.120
23352SOL     OW82117   7.615   4.933   1.888
23352SOL    HW182118   7.607   4.945   1.789
23352SOL    HW282119   7.674   5.004   1.926
23353SOL     OW82120   8.042   5.372   2.048
23353SOL    HW182121   8.017   5.467   2.032
23353SOL    HW282122   8.009   5.344   2.138
23354SOL     OW82123   8.692   4.795   3.272
23354SOL    HW182124   8.636   4.754   3.343
23354SOL    HW282125   8.672   4.893   3.266
23355SOL     OW82126   7.602   4.292   3.634
23355SOL    HW182127   7.619   4.193   3.639
23355SOL    HW282128   7.666   4.340   3.695
23356SOL     OW82129   9.041   5.253   2.873
23356SOL    HW182130   9.013   5.346   2.897
23356SOL    HW282131   9.091   5.212   2.949
23357SOL     OW82132   7.437   4.626   2.434
23357SOL    HW182133   7.444   4.725   2.421
23357SOL    HW282134   7.346   4.603   2.468
23358SOL     OW82135   7.946   4.424   3.372
23358SOL    HW182136   7.852   4.394   3.353
23358SOL    HW282137   7.955   4.521   3.349
23359SOL     OW82138   9.013   4.800   2.684
23359SOL    HW182139   8.975   4.889   2.657
23359SOL    HW282140   9.013   4.738   2.606
23360SOL     OW82141   8.171   4.206   2.853
23360SOL    HW182142   8.263   4.234   2.880
23360SOL    HW282143   8.103   4.257   2.907
23361SOL     OW82144   8.024   5.057   3.080
23361SOL    HW182145   7.937   5.056   3.031
23361SOL    HW282146   8.090   4.997   3.033
23362SOL     OW82147   7.590   4.399   2.994
23362SOL    HW182148   7.628   4.458   3.065
23362SOL    HW282149   7.573   4.452   2.912
23363SOL     OW82150   7.761   5.045   3.292
23363SOL    HW182151   7.780   5.133   3.336
23363SOL    HW282152   7.666   5.019   3.310
23364SOL     OW82153   9.004   5.361   3.640
23364SOL    HW182154   8.973   5.283   3.585
23364SOL    HW282155   8.973   5.446   3.598
23365SOL     OW82156   8.712   4.899   2.361
23365SOL    HW182157   8.811   4.903   2.377
23365SOL    HW282158   8.695   4.885   2.263
23366SOL     OW82159   8.065   4.065   2.309
23366SOL    HW182160   7.967   4.059   2.289
23366SOL    HW282161   8.084   4.022   2.397
23367SOL     OW82162   8.985   3.748   2.568
23367SOL    HW182163   8.980   3.789   2.477
23367SOL    HW282164   9.066   3.782   2.615
23368SOL     OW82165   8.588   4.504   3.261
23368SOL    HW182166   8.687   4.513   3.251
23368SOL    HW282167   8.544   4.506   3.171
23369SOL     OW82168   8.082   4.464   2.663
23369SOL    HW182169   8.104   4.386   2.721
23369SOL    HW282170   8.091   4.438   2.567
23370SOL     OW82171   8.747   5.171   2.875
23370SOL    HW182172   8.661   5.128   2.904
23370SOL    HW282173   8.736   5.211   2.784
23371SOL     OW82174   8.750   4.156   2.550
23371SOL    HW182175   8.749   4.148   2.451
23371SOL    HW282176   8.839   4.128   2.585
23372SOL     OW82177   8.477   5.172   4.383
23372SOL    HW182178   8.568   5.206   4.406
23372SOL    HW282179   8.449   5.210   4.295
23373SOL     OW82180   8.988   4.968   4.241
23373SOL    HW182181   8.999   5.052   4.295
23373SOL    HW282182   9.078   4.931   4.218
23374SOL     OW82183   9.068   4.250   5.105
23374SOL    HW182184   8.970   4.242   5.127
23374SOL    HW282185   9.121   4.239   5.189
23375SOL     OW82186   7.735   3.887   3.710
23375SOL    HW182187   7.648   3.884   3.661
23375SOL    HW282188   7.786   3.969   3.682
23376SOL     OW82189   8.722   5.276   4.485
23376SOL    HW182190   8.711   5.373   4.508
23376SOL    HW282191   8.815   5.259   4.455
23377SOL     OW82192   8.600   3.787   5.043
23377SOL    HW182193   8.524   3.742   5.090
23377SOL    HW282194   8.629   3.732   4.965
23378SOL     OW82195   8.338   4.567   5.420
23378SOL    HW182196   8.303   4.542   5.330
23378SOL    HW282197   8.262   4.588   5.481
23379SOL     OW82198   7.963   3.774   3.836
23379SOL    HW182199   8.051   3.802   3.797
23379SOL    HW282200   7.891   3.837   3.806
23380SOL     OW82201   8.933   4.759   5.219
23380SOL    HW182202   8.841   4.764   5.181
23380SOL    HW282203   8.998   4.797   5.153
23381SOL     OW82204   8.833   4.766   4.900
23381SOL    HW182205   8.758   4.755   4.965
23381SOL    HW282206   8.870   4.859   4.906
23382SOL     OW82207   8.329   5.021   5.200
23382SOL    HW182208   8.272   5.084   5.146
23382SOL    HW282209   8.362   4.947   5.141
23383SOL     OW82210   8.099   4.320   4.240
23383SOL    HW182211   8.138   4.390   4.181
23383SOL    HW282212   8.073   4.240   4.186
23384SOL     OW82213   8.719   4.228   5.449
23384SOL    HW182214   8.815   4.232   5.475
23384SOL    HW282215   8.675   4.152   5.496
23385SOL     OW82216   7.953   4.039   4.703
23385SOL    HW182217   8.029   4.104   4.699
23385SOL    HW282218   7.983   3.950   4.670
23386SOL     OW82219   7.650   4.465   4.121
23386SOL    HW182220   7.665   4.399   4.195
23386SOL    HW282221   7.600   4.544   4.156
23387SOL     OW82222   8.236   5.410   4.298
23387SOL    HW182223   8.301   5.343   4.262
23387SOL    HW282224   8.226   5.486   4.234
23388SOL     OW82225   9.128   5.292   4.040
23388SOL    HW182226   9.224   5.266   4.033
23388SOL    HW282227   9.104   5.352   3.964
23389SOL     OW82228   9.040   3.985   4.811
23389SOL    HW182229   9.091   4.057   4.764
23389SOL    HW282230   8.945   4.012   4.820
23390SOL     OW82231   8.440   4.014   4.080
23390SOL    HW182232   8.465   4.108   4.101
23390SOL    HW282233   8.441   3.960   4.164
23391SOL     OW82234   7.890   4.372   3.808
23391SOL    HW182235   7.850   4.451   3.761
23391SOL    HW282236   7.979   4.351   3.768
23392SOL     OW82237   8.405   4.328   5.260
23392SOL    HW182238   8.438   4.245   5.307
23392SOL    HW282239   8.478   4.396   5.259
23393SOL     OW82240   9.009   5.128   4.482
23393SOL    HW182241   9.005   5.163   4.575
23393SOL    HW282242   9.068   5.187   4.426
23394SOL     OW82243   8.598   4.004   3.869
23394SOL    HW182244   8.692   3.974   3.887
23394SOL    HW282245   8.546   4.004   3.955
23395SOL     OW82246   7.750   4.209   4.964
23395SOL    HW182247   7.740   4.122   4.916
23395SOL    HW282248   7.686   4.276   4.927
23396SOL     OW82249   8.832   4.489   5.002
23396SOL    HW182250   8.836   4.583   4.967
23396SOL    HW282251   8.925   4.458   5.024
23397SOL     OW82252   7.785   3.981   4.123
23397SOL    HW182253   7.739   4.021   4.202
23397SOL    HW282254   7.733   4.000   4.041
23398SOL     OW82255   8.913   5.508   5.035
23398SOL    HW182256   8.856   5.459   4.969
23398SOL    HW282257   8.999   5.535   4.992
23399SOL     OW82258   9.208   4.226   4.890
23399SOL    HW182259   9.265   4.308   4.892
23399SOL    HW282260   9.149   4.225   4.970
23400SOL     OW82261   9.225   5.452   4.803
23400SOL    HW182262   9.271   5.462   4.891
23400SOL    HW282263   9.292   5.455   4.730
23401SOL     OW82264   8.338   4.192   4.365
23401SOL    HW182265   8.414   4.220   4.424
23401SOL    HW282266   8.294   4.272   4.326
23402SOL     OW82267   8.573   4.656   3.882
23402SOL    HW182268   8.610   4.606   3.960
23402SOL    HW282269   8.503   4.601   3.837
23403SOL     OW82270   8.415   4.078   5.503
23403SOL    HW182271   8.478   4.083   5.580
23403SOL    HW282272   8.323   4.056   5.536
23404SOL     OW82273   9.156   4.325   3.961
23404SOL    HW182274   9.177   4.244   3.907
23404SOL    HW282275   9.173   4.306   4.058
23405SOL     OW82276   8.450   5.463   3.869
23405SOL    HW182277   8.484   5.376   3.834
23405SOL    HW282278   8.418   5.451   3.963
23406SOL     OW82279   8.131   3.730   5.401
23406SOL    HW182280   8.138   3.636   5.368
23406SOL    HW282281   8.188   3.740   5.483
23407SOL     OW82282   9.054   4.331   4.669
23407SOL    HW182283   9.039   4.422   4.706
23407SOL    HW282284   9.124   4.284   4.723
23408SOL     OW82285   8.464   4.997   5.435
23408SOL    HW182286   8.486   4.907   5.397
23408SOL    HW282287   8.399   5.044   5.376
23409SOL     OW82288   8.119   4.839   5.439
23409SOL    HW182289   8.090   4.916   5.496
23409SOL    HW282290   8.129   4.758   5.497
23410SOL     OW82291   8.754   3.703   4.545
23410SOL    HW182292   8.703   3.787   4.527
23410SOL    HW282293   8.840   3.705   4.494
23411SOL     OW82294   9.109   3.909   5.474
23411SOL    HW182295   9.086   3.930   5.569
23411SOL    HW282296   9.085   3.814   5.454
23412SOL     OW82297   7.412   4.313   4.218
23412SOL    HW182298   7.414   4.264   4.305
23412SOL    HW282299   7.414   4.412   4.236
23413SOL     OW82300   7.733   3.901   4.539
23413SOL    HW182301   7.785   3.941   4.614
23413SOL    HW282302   7.786   3.828   4.496
23414SOL     OW82303   7.717   3.949   4.873
23414SOL    HW182304   7.682   3.856   4.873
23414SOL    HW282305   7.804   3.952   4.824
23415SOL     OW82306   8.384   4.571   4.613
23415SOL    HW182307   8.410   4.651   4.559
23415SOL    HW282308   8.378   4.491   4.553
23416SOL     OW82309   8.867   5.067   4.946
23416SOL    HW182310   8.838   5.104   4.857
23416SOL    HW282311   8.789   5.067   5.008
23417SOL     OW82312   7.599   5.341   4.309
23417SOL    HW182313   7.515   5.392   4.327
23417SOL    HW282314   7.590   5.290   4.224
23418SOL     OW82315   9.120   5.138   4.984
23418SOL    HW182316   9.151   5.152   5.078
23418SOL    HW282317   9.021   5.125   4.983
23419SOL     OW82318   7.872   4.638   3.711
23419SOL    HW182319   7.841   4.672   3.623
23419SOL    HW282320   7.876   4.713   3.777
23420SOL     OW82321   8.389   4.825   5.010
23420SOL    HW182322   8.439   4.740   4.994
23420SOL    HW282323   8.343   4.852   4.925
23421SOL     OW82324   7.476   4.530   3.884
23421SOL    HW182325   7.536   4.477   3.944
23421SOL    HW282326   7.382   4.498   3.896
23422SOL     OW82327   8.996   4.528   4.084
23422SOL    HW182328   9.064   4.462   4.051
23422SOL    HW282329   9.011   4.616   4.040
23423SOL     OW82330   8.244   5.515   4.732
23423SOL    HW182331   8.290   5.448   4.674
23423SOL    HW282332   8.170   5.471   4.782
23424SOL     OW82333   8.151   4.584   3.768
23424SOL    HW182334   8.180   4.503   3.819
23424SOL    HW282335   8.051   4.583   3.759
23425SOL     OW82336   8.747   4.116   4.114
23425SOL    HW182337   8.684   4.174   4.062
23425SOL    HW282338   8.840   4.150   4.102
23426SOL     OW82339   7.526   3.972   5.104
23426SOL    HW182340   7.598   3.982   5.035
23426SOL    HW282341   7.437   3.971   5.059
23427SOL     OW82342   8.424   4.593   4.869
23427SOL    HW182343   8.418   4.579   4.770
23427SOL    HW282344   8.343   4.554   4.913
23428SOL     OW82345   9.015   4.127   4.184
23428SOL    HW182346   9.111   4.098   4.181
23428SOL    HW282347   8.976   4.105   4.273
23429SOL     OW82348   8.299   5.202   4.621
23429SOL    HW182349   8.357   5.213   4.540
23429SOL    HW282350   8.205   5.226   4.599
23430SOL     OW82351   8.249   4.068   3.906
23430SOL    HW182352   8.158   4.081   3.944
23430SOL    HW282353   8.309   4.028   3.976
23431SOL     OW82354   8.360   5.013   3.841
23431SOL    HW182355   8.413   4.953   3.901
23431SOL    HW282356   8.399   5.014   3.750
23432SOL     OW82357   9.111   5.308   4.326
23432SOL    HW182358   9.078   5.401   4.345
23432SOL    HW282359   9.109   5.292   4.227
23433SOL     OW82360   8.526   4.581   4.315
23433SOL    HW182361   8.591   4.609   4.386
23433SOL    HW282362   8.447   4.642   4.317
23434SOL     OW82363   8.274   5.307   5.339
23434SOL    HW182364   8.262   5.238   5.268
23434SOL    HW282365   8.237   5.272   5.426
23435SOL     OW82366   8.718   4.621   4.518
23435SOL    HW182367   8.739   4.563   4.596
23435SOL    HW282368   8.727   4.717   4.544
23436SOL     OW82369   8.307   4.698   4.263
23436SOL    HW182370   8.294   4.609   4.220
23436SOL    HW282371   8.238   4.712   4.334
23437SOL     OW82372   8.611   5.086   5.102
23437SOL    HW182373   8.644   5.171   5.143
23437SOL    HW282374   8.512   5.082   5.109
23438SOL     OW82375   7.418   4.003   4.166
23438SOL    HW182376   7.478   3.954   4.104
23438SOL    HW282377   7.473   4.055   4.231
23439SOL     OW82378   9.041   5.501   3.857
23439SOL    HW182379   9.131   5.545   3.859
23439SOL    HW282380   9.040   5.432   3.785
23440SOL     OW82381   8.205   4.468   5.015
23440SOL    HW182382   8.207   4.554   5.066
23440SOL    HW282383   8.262   4.400   5.062
23441SOL     OW82384   7.442   5.495   5.086
23441SOL    HW182385   7.450   5.595   5.084
23441SOL    HW282386   7.418   5.466   5.179
23442SOL     OW82387   8.223   4.514   4.080
23442SOL    HW182388   8.134   4.542   4.045
23442SOL    HW282389   8.264   4.448   4.016
23443SOL     OW82390   7.745   4.232   4.619
23443SOL    HW182391   7.801   4.225   4.536
23443SOL    HW282392   7.802   4.210   4.699
23444SOL     OW82393   7.742   5.430   3.890
23444SOL    HW182394   7.834   5.460   3.865
23444SOL    HW282395   7.717   5.469   3.979
23445SOL     OW82396   8.718   5.452   4.827
23445SOL    HW182397   8.737   5.515   4.753
23445SOL    HW282398   8.726   5.358   4.794
23446SOL     OW82399   8.174   3.752   4.089
23446SOL    HW182400   8.135   3.741   3.998
23446SOL    HW282401   8.130   3.828   4.136
23447SOL     OW82402   7.419   4.888   4.183
23447SOL    HW182403   7.497   4.946   4.207
23447SOL    HW282404   7.438   4.839   4.098
23448SOL     OW82405   8.949   4.016   5.267
23448SOL    HW182406   8.888   4.094   5.264
23448SOL    HW282407   9.004   4.020   5.350
23449SOL     OW82408   8.665   3.962   4.558
23449SOL    HW182409   8.664   4.040   4.495
23449SOL    HW282410   8.708   3.989   4.644
23450SOL     OW82411   8.785   3.768   3.854
23450SOL    HW182412   8.865   3.708   3.851
23450SOL    HW282413   8.711   3.721   3.902
23451SOL     OW82414   8.998   3.740   5.288
23451SOL    HW182415   9.024   3.697   5.202
23451SOL    HW282416   8.948   3.824   5.270
23452SOL     OW82417   8.100   3.999   4.420
23452SOL    HW182418   8.089   3.941   4.501
23452SOL    HW282419   8.185   4.051   4.428
23453SOL     OW82420   8.680   4.350   4.812
23453SOL    HW182421   8.734   4.390   4.738
23453SOL    HW282422   8.718   4.379   4.900
23454SOL     OW82423   8.973   3.756   4.128
23454SOL    HW182424   8.980   3.710   4.040
23454SOL    HW282425   8.877   3.766   4.153
23455SOL     OW82426   7.949   5.071   5.491
23455SOL    HW182427   7.910   5.134   5.424
23455SOL    HW282428   8.032   5.111   5.531
23456SOL     OW82429   7.486   5.093   4.797
23456SOL    HW182430   7.455   5.019   4.738
23456SOL    HW282431   7.418   5.111   4.868
23457SOL     OW82432   8.572   4.294   4.530
23457SOL    HW182433   8.654   4.271   4.478
23457SOL    HW282434   8.567   4.235   4.611
23458SOL     OW82435   9.172   4.321   5.366
23458SOL    HW182436   9.161   4.407   5.315
23458SOL    HW282437   9.266   4.312   5.396
23459SOL     OW82438   8.743   4.094   4.785
23459SOL    HW182439   8.717   4.191   4.791
23459SOL    HW282440   8.743   4.054   4.877
23460SOL     OW82441   8.973   4.226   5.536
23460SOL    HW182442   9.053   4.251   5.480
23460SOL    HW282443   9.004   4.191   5.624
23461SOL     OW82444   8.684   4.529   4.116
23461SOL    HW182445   8.630   4.527   4.200
23461SOL    HW282446   8.761   4.592   4.127
23462SOL     OW82447   8.981   4.625   4.336
23462SOL    HW182448   8.995   4.588   4.243
23462SOL    HW282449   8.892   4.595   4.370
23463SOL     OW82450   9.137   4.562   5.231
23463SOL    HW182451   9.039   4.583   5.233
23463SOL    HW282452   9.186   4.638   5.190
23464SOL     OW82453   8.991   3.982   3.910
23464SOL    HW182454   8.996   4.024   4.001
23464SOL    HW282455   8.924   3.907   3.912
23465SOL     OW82456   8.138   5.197   5.130
23465SOL    HW182457   8.075   5.275   5.137
23465SOL    HW282458   8.106   5.135   5.058
23466SOL     OW82459   7.529   3.992   5.395
23466SOL    HW182460   7.547   3.981   5.297
23466SOL    HW282461   7.431   3.988   5.412
23467SOL     OW82462   7.409   5.406   5.339
23467SOL    HW182463   7.481   5.392   5.407
23467SOL    HW282464   7.320   5.409   5.384
23468SOL     OW82465   7.577   4.062   4.363
23468SOL    HW182466   7.520   4.117   4.424
23468SOL    HW282467   7.647   4.014   4.416
23469SOL     OW82468   8.749   5.294   5.226
23469SOL    HW182469   8.702   5.362   5.281
23469SOL    HW282470   8.816   5.340   5.167
23470SOL     OW82471   7.714   4.253   3.961
23470SOL    HW182472   7.786   4.282   3.898
23470SOL    HW282473   7.670   4.333   4.001
23471SOL     OW82474   9.100   3.915   5.064
23471SOL    HW182475   9.056   3.963   5.140
23471SOL    HW282476   9.078   3.961   4.978
23472SOL     OW82477   7.829   5.516   4.427
23472SOL    HW182478   7.753   5.482   4.372
23472SOL    HW282479   7.915   5.479   4.392
23473SOL     OW82480   7.754   5.025   4.872
23473SOL    HW182481   7.766   5.041   4.969
23473SOL    HW282482   7.667   5.065   4.842
23474SOL     OW82483   8.638   5.229   5.518
23474SOL    HW182484   8.597   5.144   5.484
23474SOL    HW282485   8.618   5.303   5.454
23475SOL     OW82486   8.128   4.949   4.208
23475SOL    HW182487   8.171   4.880   4.150
23475SOL    HW282488   8.092   4.906   4.291
23476SOL     OW82489   7.606   3.980   3.925
23476SOL    HW182490   7.650   3.949   3.842
23476SOL    HW282491   7.607   4.080   3.929
23477SOL     OW82492   7.459   4.232   4.536
23477SOL    HW182493   7.423   4.325   4.528
23477SOL    HW282494   7.542   4.233   4.592
23478SOL     OW82495   8.520   4.411   3.738
23478SOL    HW182496   8.451   4.468   3.694
23478SOL    HW282497   8.601   4.405   3.679
23479SOL     OW82498   8.255   4.330   3.881
23479SOL    HW182499   8.345   4.331   3.836
23479SOL    HW282500   8.232   4.236   3.906
23480SOL     OW82501   8.706   3.847   4.175
23480SOL    HW182502   8.616   3.831   4.216
23480SOL    HW282503   8.714   3.943   4.149
23481SOL     OW82504   8.820   4.247   5.191
23481SOL    HW182505   8.772   4.270   5.275
23481SOL    HW282506   8.754   4.217   5.122
23482SOL     OW82507   7.455   3.762   3.835
23482SOL    HW182508   7.518   3.685   3.843
23482SOL    HW282509   7.475   3.830   3.906
23483SOL     OW82510   9.027   4.749   3.936
23483SOL    HW182511   9.098   4.819   3.938
23483SOL    HW282512   9.014   4.719   3.841
23484SOL     OW82513   8.009   4.350   4.858
23484SOL    HW182514   8.084   4.393   4.907
23484SOL    HW282515   7.942   4.315   4.924
23485SOL     OW82516   8.152   4.719   5.175
23485SOL    HW182517   8.221   4.771   5.125
23485SOL    HW282518   8.147   4.752   5.270
23486SOL     OW82519   8.544   4.740   5.335
23486SOL    HW182520   8.466   4.686   5.368
23486SOL    HW282521   8.625   4.718   5.390
23487SOL     OW82522   8.473   3.922   4.331
23487SOL    HW182523   8.532   3.982   4.386
23487SOL    HW282524   8.400   3.886   4.388
23488SOL     OW82525   8.583   5.454   5.371
23488SOL    HW182526   8.488   5.452   5.339
23488SOL    HW282527   8.604   5.545   5.408
23489SOL     OW82528   8.001   3.799   4.602
23489SOL    HW182529   7.929   3.732   4.588
23489SOL    HW282530   8.083   3.753   4.637
23490SOL     OW82531   7.701   5.464   4.969
23490SOL    HW182532   7.681   5.446   4.873
23490SOL    HW282533   7.628   5.426   5.026
23491SOL     OW82534   8.394   4.928   4.514
23491SOL    HW182535   8.433   4.971   4.433
23491SOL    HW282536   8.467   4.911   4.581
23492SOL     OW82537   7.655   3.711   4.122
23492SOL    HW182538   7.693   3.799   4.149
23492SOL    HW282539   7.578   3.687   4.182
23493SOL     OW82540   8.071   4.328   5.450
23493SOL    HW182541   8.023   4.379   5.379
23493SOL    HW282542   8.164   4.307   5.420
23494SOL     OW82543   7.477   4.798   3.942
23494SOL    HW182544   7.467   4.701   3.921
23494SOL    HW282545   7.530   4.843   3.870
23495SOL     OW82546   9.174   3.910   4.543
23495SOL    HW182547   9.129   3.892   4.630
23495SOL    HW282548   9.272   3.927   4.559
23496SOL     OW82549   8.222   4.886   4.795
23496SOL    HW182550   8.173   4.801   4.776
23496SOL    HW282551   8.292   4.901   4.726
23497SOL     OW82552   8.560   4.309   4.004
23497SOL    HW182553   8.612   4.381   4.050
23497SOL    HW282554   8.573   4.316   3.906
23498SOL     OW82555   8.921   5.124   5.331
23498SOL    HW182556   8.906   5.026   5.345
23498SOL    HW282557   8.838   5.166   5.295
23499SOL     OW82558   8.319   5.157   4.149
23499SOL    HW182559   8.369   5.145   4.064
23499SOL    HW282560   8.265   5.074   4.168
23500SOL     OW82561   8.343   5.530   5.182
23500SOL    HW182562   8.315   5.443   5.223
23500SOL    HW282563   8.287   5.604   5.219
23501SOL     OW82564   8.572   4.877   4.712
23501SOL    HW182565   8.556   4.971   4.743
23501SOL    HW282566   8.575   4.816   4.792
23502SOL     OW82567   7.846   4.148   5.476
23502SOL    HW182568   7.882   4.095   5.399
23502SOL    HW282569   7.907   4.225   5.494
23503SOL     OW82570   7.910   4.565   4.048
23503SOL    HW182571   7.860   4.630   3.992
23503SOL    HW282572   7.852   4.486   4.067
23504SOL     OW82573   8.991   4.596   4.746
23504SOL    HW182574   9.010   4.635   4.655
23504SOL    HW282575   8.945   4.665   4.802
23505SOL     OW82576   8.683   4.039   5.042
23505SOL    HW182577   8.754   4.011   5.106
23505SOL    HW282578   8.630   3.959   5.014
23506SOL     OW82579   7.384   3.738   4.243
23506SOL    HW182580   7.297   3.725   4.196
23506SOL    HW282581   7.392   3.833   4.273
23507SOL     OW82582   8.605   3.839   5.484
23507SOL    HW182583   8.664   3.855   5.564
23507SOL    HW282584   8.552   3.922   5.465
23508SOL     OW82585   7.821   5.258   5.309
23508SOL    HW182586   7.763   5.323   5.358
23508SOL    HW282587   7.883   5.308   5.249
23509SOL     OW82588   9.177   5.145   5.250
23509SOL    HW182589   9.205   5.238   5.272
23509SOL    HW282590   9.084   5.129   5.283
23510SOL     OW82591   8.427   4.258   4.800
23510SOL    HW182592   8.513   4.309   4.799
23510SOL    HW282593   8.433   4.184   4.867
23511SOL     OW82594   8.472   5.321   4.960
23511SOL    HW182595   8.398   5.385   4.978
23511SOL    HW282596   8.551   5.370   4.922
23512SOL     OW82597   7.681   5.451   5.459
23512SOL    HW182598   7.724   5.535   5.425
23512SOL    HW282599   7.706   5.438   5.555
23513SOL     OW82600   7.630   5.352   4.734
23513SOL    HW182601   7.572   5.272   4.748
23513SOL    HW282602   7.654   5.359   4.637
23514SOL     OW82603   8.376   3.873   4.589
23514SOL    HW182604   8.472   3.874   4.617
23514SOL    HW282605   8.321   3.830   4.661
23515SOL     OW82606   8.438   4.879   4.105
23515SOL    HW182607   8.518   4.915   4.153
23515SOL    HW282608   8.396   4.806   4.161
23516SOL     OW82609   9.029   4.146   4.469
23516SOL    HW182610   9.048   4.232   4.516
23516SOL    HW282611   9.097   4.077   4.497
23517SOL     OW82612   8.243   3.794   3.807
23517SOL    HW182613   8.318   3.728   3.819
23517SOL    HW282614   8.274   3.885   3.835
23518SOL     OW82615   7.922   4.223   4.419
23518SOL    HW182616   7.960   4.134   4.445
23518SOL    HW282617   7.989   4.273   4.364
23519SOL     OW82618   7.910   4.781   5.073
23519SOL    HW182619   8.006   4.761   5.093
23519SOL    HW282620   7.899   4.879   5.055
23520SOL     OW82621   9.132   4.824   5.042
23520SOL    HW182622   9.146   4.922   5.056
23520SOL    HW282623   9.189   4.793   4.966
23521SOL     OW82624   8.042   5.372   3.894
23521SOL    HW182625   8.017   5.467   3.878
23521SOL    HW282626   8.009   5.344   3.984
23522SOL     OW82627   8.692   4.795   5.118
23522SOL    HW182628   8.636   4.754   5.189
23522SOL    HW282629   8.672   4.893   5.112
23523SOL     OW82630   7.959   5.411   5.118
23523SOL    HW182631   8.008   5.491   5.082
23523SOL    HW282632   7.867   5.409   5.079
23524SOL     OW82633   7.602   4.292   5.480
23524SOL    HW182634   7.619   4.193   5.485
23524SOL    HW282635   7.666   4.340   5.541
23525SOL     OW82636   9.041   5.253   4.719
23525SOL    HW182637   9.013   5.346   4.743
23525SOL    HW282638   9.091   5.212   4.795
23526SOL     OW82639   7.437   4.626   4.280
23526SOL    HW182640   7.444   4.725   4.267
23526SOL    HW282641   7.346   4.603   4.314
23527SOL     OW82642   9.013   4.800   4.530
23527SOL    HW182643   8.975   4.889   4.503
23527SOL    HW282644   9.013   4.738   4.452
23528SOL     OW82645   8.171   4.206   4.699
23528SOL    HW182646   8.263   4.234   4.726
23528SOL    HW282647   8.103   4.257   4.753
23529SOL     OW82648   8.024   5.057   4.926
23529SOL    HW182649   7.937   5.056   4.877
23529SOL    HW282650   8.090   4.997   4.879
23530SOL     OW82651   9.004   5.361   5.486
23530SOL    HW182652   8.973   5.283   5.431
23530SOL    HW282653   8.973   5.446   5.444
23531SOL     OW82654   8.712   4.899   4.207
23531SOL    HW182655   8.811   4.903   4.223
23531SOL    HW282656   8.695   4.885   4.109
23532SOL     OW82657   8.065   4.065   4.155
23532SOL    HW182658   7.967   4.059   4.135
23532SOL    HW282659   8.084   4.022   4.243
23533SOL     OW82660   8.985   3.748   4.414
23533SOL    HW182661   8.980   3.789   4.323
23533SOL    HW282662   9.066   3.782   4.461
23534SOL     OW82663   8.588   4.504   5.107
23534SOL    HW182664   8.687   4.513   5.097
23534SOL    HW282665   8.544   4.506   5.017
23535SOL     OW82666   8.082   4.464   4.509
23535SOL    HW182667   8.104   4.386   4.567
23535SOL    HW282668   8.091   4.438   4.413
23536SOL     OW82669   8.747   5.171   4.721
23536SOL    HW182670   8.661   5.128   4.750
23536SOL    HW282671   8.736   5.211   4.630
23537SOL     OW82672   8.750   4.156   4.396
23537SOL    HW182673   8.749   4.148   4.297
23537SOL    HW282674   8.839   4.128   4.431
23538SOL     OW82675   8.988   4.968   6.086
23538SOL    HW182676   8.999   5.052   6.140
23538SOL    HW282677   9.078   4.931   6.063
23539SOL     OW82678   9.068   4.250   6.950
23539SOL    HW182679   8.970   4.242   6.972
23539SOL    HW282680   9.121   4.239   7.034
23540SOL     OW82681   7.735   3.887   5.555
23540SOL    HW182682   7.648   3.884   5.506
23540SOL    HW282683   7.786   3.969   5.527
23541SOL     OW82684   8.722   5.276   6.330
23541SOL    HW182685   8.711   5.373   6.353
23541SOL    HW282686   8.815   5.259   6.300
23542SOL     OW82687   8.338   4.567   7.265
23542SOL    HW182688   8.303   4.542   7.175
23542SOL    HW282689   8.262   4.588   7.326
23543SOL     OW82690   7.945   5.241   5.959
23543SOL    HW182691   7.901   5.250   6.048
23543SOL    HW282692   8.016   5.171   5.963
23544SOL     OW82693   7.963   3.774   5.681
23544SOL    HW182694   8.051   3.802   5.642
23544SOL    HW282695   7.891   3.837   5.651
23545SOL     OW82696   8.933   4.759   7.064
23545SOL    HW182697   8.841   4.764   7.026
23545SOL    HW282698   8.998   4.797   6.998
23546SOL     OW82699   8.833   4.766   6.745
23546SOL    HW182700   8.758   4.755   6.810
23546SOL    HW282701   8.870   4.859   6.751
23547SOL     OW82702   8.329   5.021   7.045
23547SOL    HW182703   8.272   5.084   6.991
23547SOL    HW282704   8.362   4.947   6.986
23548SOL     OW82705   7.872   4.914   6.254
23548SOL    HW182706   7.805   4.868   6.313
23548SOL    HW282707   7.964   4.882   6.277
23549SOL     OW82708   8.236   5.410   6.143
23549SOL    HW182709   8.301   5.343   6.107
23549SOL    HW282710   8.226   5.486   6.079
23550SOL     OW82711   9.128   5.292   5.885
23550SOL    HW182712   9.224   5.266   5.878
23550SOL    HW282713   9.104   5.352   5.809
23551SOL     OW82714   9.040   3.985   6.656
23551SOL    HW182715   9.091   4.057   6.609
23551SOL    HW282716   8.945   4.012   6.665
23552SOL     OW82717   8.440   4.014   5.925
23552SOL    HW182718   8.465   4.108   5.946
23552SOL    HW282719   8.441   3.960   6.009
23553SOL     OW82720   8.063   5.296   6.351
23553SOL    HW182721   8.136   5.319   6.287
23553SOL    HW282722   7.992   5.243   6.305
23554SOL     OW82723   9.009   5.128   6.327
23554SOL    HW182724   9.005   5.163   6.420
23554SOL    HW282725   9.068   5.187   6.271
23555SOL     OW82726   7.740   4.949   6.003
23555SOL    HW182727   7.786   4.923   6.088
23555SOL    HW282728   7.760   4.881   5.932
23556SOL     OW82729   8.598   4.004   5.714
23556SOL    HW182730   8.692   3.974   5.732
23556SOL    HW282731   8.546   4.004   5.800
23557SOL     OW82732   7.750   4.209   6.809
23557SOL    HW182733   7.740   4.122   6.761
23557SOL    HW282734   7.686   4.276   6.772
23558SOL     OW82735   8.832   4.489   6.847
23558SOL    HW182736   8.836   4.583   6.812
23558SOL    HW282737   8.925   4.458   6.869
23559SOL     OW82738   8.913   5.508   6.880
23559SOL    HW182739   8.856   5.459   6.814
23559SOL    HW282740   8.999   5.535   6.837
23560SOL     OW82741   9.208   4.226   6.735
23560SOL    HW182742   9.265   4.308   6.737
23560SOL    HW282743   9.149   4.225   6.815
23561SOL     OW82744   9.225   5.452   6.648
23561SOL    HW182745   9.271   5.462   6.736
23561SOL    HW282746   9.292   5.455   6.575
23562SOL     OW82747   8.338   4.192   6.210
23562SOL    HW182748   8.414   4.220   6.269
23562SOL    HW282749   8.294   4.272   6.171
23563SOL     OW82750   8.573   4.656   5.727
23563SOL    HW182751   8.610   4.606   5.805
23563SOL    HW282752   8.503   4.601   5.682
23564SOL     OW82753   9.156   4.325   5.806
23564SOL    HW182754   9.177   4.244   5.752
23564SOL    HW282755   9.173   4.306   5.903
23565SOL     OW82756   8.450   5.463   5.714
23565SOL    HW182757   8.484   5.376   5.679
23565SOL    HW282758   8.418   5.451   5.808
23566SOL     OW82759   8.131   3.730   7.246
23566SOL    HW182760   8.138   3.636   7.213
23566SOL    HW282761   8.188   3.740   7.328
23567SOL     OW82762   9.054   4.331   6.514
23567SOL    HW182763   9.039   4.422   6.551
23567SOL    HW282764   9.124   4.284   6.568
23568SOL     OW82765   8.464   4.997   7.280
23568SOL    HW182766   8.486   4.907   7.242
23568SOL    HW282767   8.399   5.044   7.221
23569SOL     OW82768   8.119   4.839   7.284
23569SOL    HW182769   8.090   4.916   7.341
23569SOL    HW282770   8.129   4.758   7.342
23570SOL     OW82771   8.754   3.703   6.390
23570SOL    HW182772   8.703   3.787   6.372
23570SOL    HW282773   8.840   3.705   6.339
23571SOL     OW82774   9.109   3.909   7.319
23571SOL    HW182775   9.086   3.930   7.414
23571SOL    HW282776   9.085   3.814   7.299
23572SOL     OW82777   7.412   4.313   6.063
23572SOL    HW182778   7.414   4.264   6.150
23572SOL    HW282779   7.414   4.412   6.081
23573SOL     OW82780   7.717   3.949   6.718
23573SOL    HW182781   7.682   3.856   6.718
23573SOL    HW282782   7.804   3.952   6.669
23574SOL     OW82783   8.384   4.571   6.458
23574SOL    HW182784   8.410   4.651   6.404
23574SOL    HW282785   8.378   4.491   6.398
23575SOL     OW82786   7.585   5.198   5.917
23575SOL    HW182787   7.612   5.104   5.937
23575SOL    HW282788   7.610   5.220   5.823
23576SOL     OW82789   8.867   5.067   6.791
23576SOL    HW182790   8.838   5.104   6.702
23576SOL    HW282791   8.789   5.067   6.853
23577SOL     OW82792   7.599   5.341   6.154
23577SOL    HW182793   7.515   5.392   6.172
23577SOL    HW282794   7.590   5.290   6.069
23578SOL     OW82795   9.120   5.138   6.829
23578SOL    HW182796   9.151   5.152   6.923
23578SOL    HW282797   9.021   5.125   6.828
23579SOL     OW82798   8.389   4.825   6.855
23579SOL    HW182799   8.439   4.740   6.839
23579SOL    HW282800   8.343   4.852   6.770
23580SOL     OW82801   8.996   4.528   5.929
23580SOL    HW182802   9.064   4.462   5.896
23580SOL    HW282803   9.011   4.616   5.885
23581SOL     OW82804   8.244   5.515   6.577
23581SOL    HW182805   8.290   5.448   6.519
23581SOL    HW282806   8.170   5.471   6.627
23582SOL     OW82807   8.151   4.584   5.613
23582SOL    HW182808   8.180   4.503   5.664
23582SOL    HW282809   8.051   4.583   5.604
23583SOL     OW82810   8.747   4.116   5.959
23583SOL    HW182811   8.684   4.174   5.907
23583SOL    HW282812   8.840   4.150   5.947
23584SOL     OW82813   7.644   4.317   7.059
23584SOL    HW182814   7.664   4.222   7.034
23584SOL    HW282815   7.607   4.320   7.152
23585SOL     OW82816   7.526   3.972   6.949
23585SOL    HW182817   7.598   3.982   6.880
23585SOL    HW282818   7.437   3.971   6.904
23586SOL     OW82819   8.424   4.593   6.714
23586SOL    HW182820   8.418   4.579   6.615
23586SOL    HW282821   8.343   4.554   6.758
23587SOL     OW82822   9.015   4.127   6.029
23587SOL    HW182823   9.111   4.098   6.026
23587SOL    HW282824   8.976   4.105   6.118
23588SOL     OW82825   8.299   5.202   6.466
23588SOL    HW182826   8.357   5.213   6.385
23588SOL    HW282827   8.205   5.226   6.444
23589SOL     OW82828   8.360   5.013   5.686
23589SOL    HW182829   8.413   4.953   5.746
23589SOL    HW282830   8.399   5.014   5.595
23590SOL     OW82831   9.111   5.308   6.171
23590SOL    HW182832   9.078   5.401   6.190
23590SOL    HW282833   9.109   5.292   6.072
23591SOL     OW82834   8.526   4.581   6.160
23591SOL    HW182835   8.591   4.609   6.231
23591SOL    HW282836   8.447   4.642   6.162
23592SOL     OW82837   8.274   5.307   7.184
23592SOL    HW182838   8.262   5.238   7.113
23592SOL    HW282839   8.237   5.272   7.271
23593SOL     OW82840   8.718   4.621   6.363
23593SOL    HW182841   8.739   4.563   6.441
23593SOL    HW282842   8.727   4.717   6.389
23594SOL     OW82843   7.674   4.750   6.409
23594SOL    HW182844   7.597   4.812   6.402
23594SOL    HW282845   7.711   4.751   6.502
23595SOL     OW82846   8.307   4.698   6.108
23595SOL    HW182847   8.294   4.609   6.065
23595SOL    HW282848   8.238   4.712   6.179
23596SOL     OW82849   8.611   5.086   6.947
23596SOL    HW182850   8.644   5.171   6.988
23596SOL    HW282851   8.512   5.082   6.954
23597SOL     OW82852   7.418   4.003   6.011
23597SOL    HW182853   7.478   3.954   5.949
23597SOL    HW282854   7.473   4.055   6.076
23598SOL     OW82855   9.041   5.501   5.702
23598SOL    HW182856   9.131   5.545   5.704
23598SOL    HW282857   9.040   5.432   5.630
23599SOL     OW82858   8.205   4.468   6.860
23599SOL    HW182859   8.207   4.554   6.911
23599SOL    HW282860   8.262   4.400   6.907
23600SOL     OW82861   7.442   5.495   6.931
23600SOL    HW182862   7.450   5.595   6.929
23600SOL    HW282863   7.418   5.466   7.024
23601SOL     OW82864   7.742   5.430   5.735
23601SOL    HW182865   7.834   5.460   5.710
23601SOL    HW282866   7.717   5.469   5.824
23602SOL     OW82867   8.718   5.452   6.672
23602SOL    HW182868   8.737   5.515   6.598
23602SOL    HW282869   8.726   5.358   6.639
23603SOL     OW82870   7.423   4.847   6.484
23603SOL    HW182871   7.333   4.863   6.445
23603SOL    HW282872   7.421   4.763   6.539
23604SOL     OW82873   7.419   4.888   6.028
23604SOL    HW182874   7.497   4.946   6.052
23604SOL    HW282875   7.438   4.839   5.943
23605SOL     OW82876   8.949   4.016   7.112
23605SOL    HW182877   8.888   4.094   7.109
23605SOL    HW282878   9.004   4.020   7.195
23606SOL     OW82879   8.665   3.962   6.403
23606SOL    HW182880   8.664   4.040   6.340
23606SOL    HW282881   8.708   3.989   6.489
23607SOL     OW82882   8.785   3.768   5.699
23607SOL    HW182883   8.865   3.708   5.696
23607SOL    HW282884   8.711   3.721   5.747
23608SOL     OW82885   8.998   3.740   7.133
23608SOL    HW182886   9.024   3.697   7.047
23608SOL    HW282887   8.948   3.824   7.115
23609SOL     OW82888   8.680   4.350   6.657
23609SOL    HW182889   8.734   4.390   6.583
23609SOL    HW282890   8.718   4.379   6.745
23610SOL     OW82891   8.973   3.756   5.973
23610SOL    HW182892   8.980   3.710   5.885
23610SOL    HW282893   8.877   3.766   5.998
23611SOL     OW82894   7.949   5.071   7.336
23611SOL    HW182895   7.910   5.134   7.269
23611SOL    HW282896   8.032   5.111   7.376
23612SOL     OW82897   7.825   4.803   7.168
23612SOL    HW182898   7.844   4.827   7.073
23612SOL    HW282899   7.818   4.886   7.223
23613SOL     OW82900   7.486   5.093   6.642
23613SOL    HW182901   7.455   5.019   6.583
23613SOL    HW282902   7.418   5.111   6.713
23614SOL     OW82903   8.572   4.294   6.375
23614SOL    HW182904   8.654   4.271   6.323
23614SOL    HW282905   8.567   4.235   6.456
23615SOL     OW82906   9.172   4.321   7.211
23615SOL    HW182907   9.161   4.407   7.160
23615SOL    HW282908   9.266   4.312   7.241
23616SOL     OW82909   8.743   4.094   6.630
23616SOL    HW182910   8.717   4.191   6.636
23616SOL    HW282911   8.743   4.054   6.722
23617SOL     OW82912   8.973   4.226   7.381
23617SOL    HW182913   9.053   4.251   7.325
23617SOL    HW282914   9.004   4.191   7.469
23618SOL     OW82915   8.684   4.529   5.961
23618SOL    HW182916   8.630   4.527   6.045
23618SOL    HW282917   8.761   4.592   5.972
23619SOL     OW82918   8.981   4.625   6.181
23619SOL    HW182919   8.995   4.588   6.088
23619SOL    HW282920   8.892   4.595   6.215
23620SOL     OW82921   9.137   4.562   7.076
23620SOL    HW182922   9.039   4.583   7.078
23620SOL    HW282923   9.186   4.638   7.035
23621SOL     OW82924   8.991   3.982   5.755
23621SOL    HW182925   8.996   4.024   5.846
23621SOL    HW282926   8.924   3.907   5.757
23622SOL     OW82927   8.138   5.197   6.975
23622SOL    HW182928   8.075   5.275   6.982
23622SOL    HW282929   8.106   5.135   6.903
23623SOL     OW82930   7.529   3.992   7.240
23623SOL    HW182931   7.547   3.981   7.142
23623SOL    HW282932   7.431   3.988   7.257
23624SOL     OW82933   7.409   5.406   7.184
23624SOL    HW182934   7.481   5.392   7.252
23624SOL    HW282935   7.320   5.409   7.229
23625SOL     OW82936   7.577   4.062   6.208
23625SOL    HW182937   7.520   4.117   6.269
23625SOL    HW282938   7.647   4.014   6.261
23626SOL     OW82939   8.749   5.294   7.071
23626SOL    HW182940   8.702   5.362   7.126
23626SOL    HW282941   8.816   5.340   7.012
23627SOL     OW82942   9.100   3.915   6.909
23627SOL    HW182943   9.056   3.963   6.985
23627SOL    HW282944   9.078   3.961   6.823
23628SOL     OW82945   7.829   5.516   6.272
23628SOL    HW182946   7.753   5.482   6.217
23628SOL    HW282947   7.915   5.479   6.237
23629SOL     OW82948   7.754   5.025   6.717
23629SOL    HW182949   7.766   5.041   6.814
23629SOL    HW282950   7.667   5.065   6.687
23630SOL     OW82951   8.638   5.229   7.363
23630SOL    HW182952   8.597   5.144   7.329
23630SOL    HW282953   8.618   5.303   7.299
23631SOL     OW82954   8.128   4.949   6.053
23631SOL    HW182955   8.171   4.880   5.995
23631SOL    HW282956   8.092   4.906   6.136
23632SOL     OW82957   7.760   4.500   6.255
23632SOL    HW182958   7.752   4.598   6.273
23632SOL    HW282959   7.844   4.466   6.296
23633SOL     OW82960   7.459   4.232   6.381
23633SOL    HW182961   7.423   4.325   6.373
23633SOL    HW282962   7.542   4.233   6.437
23634SOL     OW82963   8.520   4.411   5.583
23634SOL    HW182964   8.451   4.468   5.539
23634SOL    HW282965   8.601   4.405   5.524
23635SOL     OW82966   8.255   4.330   5.726
23635SOL    HW182967   8.345   4.331   5.681
23635SOL    HW282968   8.232   4.236   5.751
23636SOL     OW82969   8.706   3.847   6.020
23636SOL    HW182970   8.616   3.831   6.061
23636SOL    HW282971   8.714   3.943   5.994
23637SOL     OW82972   8.820   4.247   7.036
23637SOL    HW182973   8.772   4.270   7.120
23637SOL    HW282974   8.754   4.217   6.967
23638SOL     OW82975   7.455   3.762   5.680
23638SOL    HW182976   7.518   3.685   5.688
23638SOL    HW282977   7.475   3.830   5.751
23639SOL     OW82978   7.728   4.737   6.681
23639SOL    HW182979   7.739   4.692   6.770
23639SOL    HW282980   7.755   4.833   6.688
23640SOL     OW82981   9.027   4.749   5.781
23640SOL    HW182982   9.098   4.819   5.783
23640SOL    HW282983   9.014   4.719   5.686
23641SOL     OW82984   8.009   4.350   6.703
23641SOL    HW182985   8.084   4.393   6.752
23641SOL    HW282986   7.942   4.315   6.769
23642SOL     OW82987   8.152   4.719   7.020
23642SOL    HW182988   8.221   4.771   6.970
23642SOL    HW282989   8.147   4.752   7.115
23643SOL     OW82990   8.473   3.922   6.176
23643SOL    HW182991   8.532   3.982   6.231
23643SOL    HW282992   8.400   3.886   6.233
23644SOL     OW82993   8.583   5.454   7.216
23644SOL    HW182994   8.488   5.452   7.184
23644SOL    HW282995   8.604   5.545   7.253
23645SOL     OW82996   8.001   3.799   6.447
23645SOL    HW182997   7.929   3.732   6.433
23645SOL    HW282998   8.083   3.753   6.482
23646SOL     OW82999   7.701   5.464   6.814
23646SOL    HW183000   7.681   5.446   6.718
23646SOL    HW283001   7.628   5.426   6.871
23647SOL     OW83002   8.394   4.928   6.359
23647SOL    HW183003   8.433   4.971   6.278
23647SOL    HW283004   8.467   4.911   6.426
23648SOL     OW83005   8.088   4.656   6.561
23648SOL    HW183006   8.086   4.572   6.506
23648SOL    HW283007   8.037   4.642   6.646
23649SOL     OW83008   7.427   4.666   6.687
23649SOL    HW183009   7.516   4.644   6.727
23649SOL    HW283010   7.372   4.582   6.683
23650SOL     OW83011   7.655   3.711   5.967
23650SOL    HW183012   7.693   3.799   5.994
23650SOL    HW283013   7.578   3.687   6.027
23651SOL     OW83014   8.071   4.328   7.295
23651SOL    HW183015   8.023   4.379   7.224
23651SOL    HW283016   8.164   4.307   7.265
23652SOL     OW83017   9.174   3.910   6.388
23652SOL    HW183018   9.129   3.892   6.475
23652SOL    HW283019   9.272   3.927   6.404
23653SOL     OW83020   8.222   4.886   6.640
23653SOL    HW183021   8.173   4.801   6.621
23653SOL    HW283022   8.292   4.901   6.571
23654SOL     OW83023   8.560   4.309   5.849
23654SOL    HW183024   8.612   4.381   5.895
23654SOL    HW283025   8.573   4.316   5.751
23655SOL     OW83026   8.921   5.124   7.176
23655SOL    HW183027   8.906   5.026   7.190
23655SOL    HW283028   8.838   5.166   7.140
23656SOL     OW83029   7.678   4.566   6.916
23656SOL    HW183030   7.642   4.476   6.942
23656SOL    HW283031   7.639   4.636   6.976
23657SOL     OW83032   8.180   5.192   5.574
23657SOL    HW183033   8.155   5.269   5.633
23657SOL    HW283034   8.244   5.132   5.622
23658SOL     OW83035   7.998   5.399   6.608
23658SOL    HW183036   8.018   5.369   6.515
23658SOL    HW283037   7.923   5.344   6.645
23659SOL     OW83038   8.141   4.810   6.325
23659SOL    HW183039   8.230   4.856   6.325
23659SOL    HW283040   8.134   4.750   6.404
23660SOL     OW83041   8.319   5.157   5.994
23660SOL    HW183042   8.369   5.145   5.909
23660SOL    HW283043   8.265   5.074   6.013
23661SOL     OW83044   7.509   4.504   6.394
23661SOL    HW183045   7.604   4.495   6.362
23661SOL    HW283046   7.475   4.596   6.373
23662SOL     OW83047   8.343   5.530   7.027
23662SOL    HW183048   8.315   5.443   7.068
23662SOL    HW283049   8.287   5.604   7.064
23663SOL     OW83050   8.572   4.877   6.557
23663SOL    HW183051   8.556   4.971   6.588
23663SOL    HW283052   8.575   4.816   6.637
23664SOL     OW83053   7.846   4.148   7.321
23664SOL    HW183054   7.882   4.095   7.244
23664SOL    HW283055   7.907   4.225   7.339
23665SOL     OW83056   8.991   4.596   6.591
23665SOL    HW183057   9.010   4.635   6.500
23665SOL    HW283058   8.945   4.665   6.647
23666SOL     OW83059   7.384   3.738   6.088
23666SOL    HW183060   7.297   3.725   6.041
23666SOL    HW283061   7.392   3.833   6.118
23667SOL     OW83062   7.821   5.258   7.154
23667SOL    HW183063   7.763   5.323   7.203
23667SOL    HW283064   7.883   5.308   7.094
23668SOL     OW83065   9.177   5.145   7.095
23668SOL    HW183066   9.205   5.238   7.117
23668SOL    HW283067   9.084   5.129   7.128
23669SOL     OW83068   8.427   4.258   6.645
23669SOL    HW183069   8.513   4.309   6.644
23669SOL    HW283070   8.433   4.184   6.712
23670SOL     OW83071   7.831   5.204   6.217
23670SOL    HW183072   7.829   5.105   6.230
23670SOL    HW283073   7.740   5.237   6.194
23671SOL     OW83074   8.472   5.321   6.805
23671SOL    HW183075   8.398   5.385   6.823
23671SOL    HW283076   8.551   5.370   6.767
23672SOL     OW83077   7.681   5.451   7.304
23672SOL    HW183078   7.724   5.535   7.270
23672SOL    HW283079   7.706   5.438   7.400
23673SOL     OW83080   7.630   5.352   6.579
23673SOL    HW183081   7.572   5.272   6.593
23673SOL    HW283082   7.654   5.359   6.482
23674SOL     OW83083   8.376   3.873   6.434
23674SOL    HW183084   8.472   3.874   6.462
23674SOL    HW283085   8.321   3.830   6.506
23675SOL     OW83086   8.438   4.879   5.950
23675SOL    HW183087   8.518   4.915   5.998
23675SOL    HW283088   8.396   4.806   6.006
23676SOL     OW83089   9.029   4.146   6.314
23676SOL    HW183090   9.048   4.232   6.361
23676SOL    HW283091   9.097   4.077   6.342
23677SOL     OW83092   8.172   4.818   5.800
23677SOL    HW183093   8.244   4.877   5.765
23677SOL    HW283094   8.212   4.734   5.836
23678SOL     OW83095   8.243   3.794   5.652
23678SOL    HW183096   8.318   3.728   5.664
23678SOL    HW283097   8.274   3.885   5.680
23679SOL     OW83098   7.910   4.781   6.918
23679SOL    HW183099   8.006   4.761   6.938
23679SOL    HW283100   7.899   4.879   6.900
23680SOL     OW83101   9.132   4.824   6.887
23680SOL    HW183102   9.146   4.922   6.901
23680SOL    HW283103   9.189   4.793   6.811
23681SOL     OW83104   8.042   5.372   5.739
23681SOL    HW183105   8.017   5.467   5.723
23681SOL    HW283106   8.009   5.344   5.829
23682SOL     OW83107   8.692   4.795   6.963
23682SOL    HW183108   8.636   4.754   7.034
23682SOL    HW283109   8.672   4.893   6.957
23683SOL     OW83110   7.959   5.411   6.963
23683SOL    HW183111   8.008   5.491   6.927
23683SOL    HW283112   7.867   5.409   6.924
23684SOL     OW83113   7.602   4.292   7.325
23684SOL    HW183114   7.619   4.193   7.330
23684SOL    HW283115   7.666   4.340   7.386
23685SOL     OW83116   9.041   5.253   6.564
23685SOL    HW183117   9.013   5.346   6.588
23685SOL    HW283118   9.091   5.212   6.640
23686SOL     OW83119   7.437   4.626   6.125
23686SOL    HW183120   7.444   4.725   6.112
23686SOL    HW283121   7.346   4.603   6.159
23687SOL     OW83122   7.946   4.424   7.063
23687SOL    HW183123   7.852   4.394   7.044
23687SOL    HW283124   7.955   4.521   7.040
23688SOL     OW83125   9.013   4.800   6.375
23688SOL    HW183126   8.975   4.889   6.348
23688SOL    HW283127   9.013   4.738   6.297
23689SOL     OW83128   8.171   4.206   6.544
23689SOL    HW183129   8.263   4.234   6.571
23689SOL    HW283130   8.103   4.257   6.598
23690SOL     OW83131   8.024   5.057   6.771
23690SOL    HW183132   7.937   5.056   6.722
23690SOL    HW283133   8.090   4.997   6.724
23691SOL     OW83134   7.590   4.399   6.685
23691SOL    HW183135   7.628   4.458   6.756
23691SOL    HW283136   7.573   4.452   6.603
23692SOL     OW83137   7.761   5.045   6.983
23692SOL    HW183138   7.780   5.133   7.027
23692SOL    HW283139   7.666   5.019   7.001
23693SOL     OW83140   9.004   5.361   7.331
23693SOL    HW183141   8.973   5.283   7.276
23693SOL    HW283142   8.973   5.446   7.289
23694SOL     OW83143   8.712   4.899   6.052
23694SOL    HW183144   8.811   4.903   6.068
23694SOL    HW283145   8.695   4.885   5.954
23695SOL     OW83146   8.985   3.748   6.259
23695SOL    HW183147   8.980   3.789   6.168
23695SOL    HW283148   9.066   3.782   6.306
23696SOL     OW83149   8.588   4.504   6.952
23696SOL    HW183150   8.687   4.513   6.942
23696SOL    HW283151   8.544   4.506   6.862
23697SOL     OW83152   8.082   4.464   6.354
23697SOL    HW183153   8.104   4.386   6.412
23697SOL    HW283154   8.091   4.438   6.258
23698SOL     OW83155   8.747   5.171   6.566
23698SOL    HW183156   8.661   5.128   6.595
23698SOL    HW283157   8.736   5.211   6.475
23699SOL     OW83158   8.750   4.156   6.241
23699SOL    HW183159   8.749   4.148   6.142
23699SOL    HW283160   8.839   4.128   6.276
23700SOL     OW83161   8.477   5.172   8.074
23700SOL    HW183162   8.568   5.206   8.097
23700SOL    HW283163   8.449   5.210   7.986
23701SOL     OW83164   8.988   4.968   7.932
23701SOL    HW183165   8.999   5.052   7.986
23701SOL    HW283166   9.078   4.931   7.909
23702SOL     OW83167   9.068   4.250   8.796
23702SOL    HW183168   8.970   4.242   8.818
23702SOL    HW283169   9.121   4.239   8.880
23703SOL     OW83170   7.735   3.887   7.401
23703SOL    HW183171   7.648   3.884   7.352
23703SOL    HW283172   7.786   3.969   7.373
23704SOL     OW83173   8.722   5.276   8.176
23704SOL    HW183174   8.711   5.373   8.199
23704SOL    HW283175   8.815   5.259   8.146
23705SOL     OW83176   8.338   4.567   9.111
23705SOL    HW183177   8.303   4.542   9.021
23705SOL    HW283178   8.262   4.588   9.172
23706SOL     OW83179   7.945   5.241   7.805
23706SOL    HW183180   7.901   5.250   7.894
23706SOL    HW283181   8.016   5.171   7.809
23707SOL     OW83182   7.963   3.774   7.527
23707SOL    HW183183   8.051   3.802   7.488
23707SOL    HW283184   7.891   3.837   7.497
23708SOL     OW83185   8.933   4.759   8.910
23708SOL    HW183186   8.841   4.764   8.872
23708SOL    HW283187   8.998   4.797   8.844
23709SOL     OW83188   8.833   4.766   8.591
23709SOL    HW183189   8.758   4.755   8.656
23709SOL    HW283190   8.870   4.859   8.597
23710SOL     OW83191   8.329   5.021   8.891
23710SOL    HW183192   8.272   5.084   8.837
23710SOL    HW283193   8.362   4.947   8.832
23711SOL     OW83194   7.872   4.914   8.100
23711SOL    HW183195   7.805   4.868   8.159
23711SOL    HW283196   7.964   4.882   8.123
23712SOL     OW83197   8.719   4.228   9.140
23712SOL    HW183198   8.815   4.232   9.166
23712SOL    HW283199   8.675   4.152   9.187
23713SOL     OW83200   7.802   5.083   7.584
23713SOL    HW183201   7.866   5.099   7.509
23713SOL    HW283202   7.826   5.141   7.662
23714SOL     OW83203   7.650   4.465   7.812
23714SOL    HW183204   7.665   4.399   7.886
23714SOL    HW283205   7.600   4.544   7.847
23715SOL     OW83206   8.236   5.410   7.989
23715SOL    HW183207   8.301   5.343   7.953
23715SOL    HW283208   8.226   5.486   7.925
23716SOL     OW83209   9.128   5.292   7.731
23716SOL    HW183210   9.224   5.266   7.724
23716SOL    HW283211   9.104   5.352   7.655
23717SOL     OW83212   8.440   4.014   7.771
23717SOL    HW183213   8.465   4.108   7.792
23717SOL    HW283214   8.441   3.960   7.855
23718SOL     OW83215   7.890   4.372   7.499
23718SOL    HW183216   7.850   4.451   7.452
23718SOL    HW283217   7.979   4.351   7.459
23719SOL     OW83218   8.063   5.296   8.197
23719SOL    HW183219   8.136   5.319   8.133
23719SOL    HW283220   7.992   5.243   8.151
23720SOL     OW83221   8.405   4.328   8.951
23720SOL    HW183222   8.438   4.245   8.998
23720SOL    HW283223   8.478   4.396   8.950
23721SOL     OW83224   9.009   5.128   8.173
23721SOL    HW183225   9.005   5.163   8.266
23721SOL    HW283226   9.068   5.187   8.117
23722SOL     OW83227   7.740   4.949   7.849
23722SOL    HW183228   7.786   4.923   7.934
23722SOL    HW283229   7.760   4.881   7.778
23723SOL     OW83230   8.598   4.004   7.560
23723SOL    HW183231   8.692   3.974   7.578
23723SOL    HW283232   8.546   4.004   7.646
23724SOL     OW83233   8.832   4.489   8.693
23724SOL    HW183234   8.836   4.583   8.658
23724SOL    HW283235   8.925   4.458   8.715
23725SOL     OW83236   7.785   3.981   7.814
23725SOL    HW183237   7.739   4.021   7.893
23725SOL    HW283238   7.733   4.000   7.732
23726SOL     OW83239   8.913   5.508   8.726
23726SOL    HW183240   8.856   5.459   8.660
23726SOL    HW283241   8.999   5.535   8.683
23727SOL     OW83242   9.208   4.226   8.581
23727SOL    HW183243   9.265   4.308   8.583
23727SOL    HW283244   9.149   4.225   8.661
23728SOL     OW83245   9.225   5.452   8.494
23728SOL    HW183246   9.271   5.462   8.582
23728SOL    HW283247   9.292   5.455   8.421
23729SOL     OW83248   8.415   4.078   9.194
23729SOL    HW183249   8.478   4.083   9.271
23729SOL    HW283250   8.323   4.056   9.227
23730SOL     OW83251   9.156   4.325   7.652
23730SOL    HW183252   9.177   4.244   7.598
23730SOL    HW283253   9.173   4.306   7.749
23731SOL     OW83254   8.131   3.730   9.092
23731SOL    HW183255   8.138   3.636   9.059
23731SOL    HW283256   8.188   3.740   9.174
23732SOL     OW83257   9.054   4.331   8.360
23732SOL    HW183258   9.039   4.422   8.397
23732SOL    HW283259   9.124   4.284   8.414
23733SOL     OW83260   8.464   4.997   9.126
23733SOL    HW183261   8.486   4.907   9.088
23733SOL    HW283262   8.399   5.044   9.067
23734SOL     OW83263   9.109   3.909   9.165
23734SOL    HW183264   9.086   3.930   9.260
23734SOL    HW283265   9.085   3.814   9.145
23735SOL     OW83266   7.412   4.313   7.909
23735SOL    HW183267   7.414   4.264   7.996
23735SOL    HW283268   7.414   4.412   7.927
23736SOL     OW83269   7.717   3.949   8.564
23736SOL    HW183270   7.682   3.856   8.564
23736SOL    HW283271   7.804   3.952   8.515
23737SOL     OW83272   7.585   5.198   7.763
23737SOL    HW183273   7.612   5.104   7.783
23737SOL    HW283274   7.610   5.220   7.669
23738SOL     OW83275   8.867   5.067   8.637
23738SOL    HW183276   8.838   5.104   8.548
23738SOL    HW283277   8.789   5.067   8.699
23739SOL     OW83278   7.599   5.341   8.000
23739SOL    HW183279   7.515   5.392   8.018
23739SOL    HW283280   7.590   5.290   7.915
23740SOL     OW83281   9.120   5.138   8.675
23740SOL    HW183282   9.151   5.152   8.769
23740SOL    HW283283   9.021   5.125   8.674
23741SOL     OW83284   7.872   4.638   7.402
23741SOL    HW183285   7.841   4.672   7.314
23741SOL    HW283286   7.876   4.713   7.468
23742SOL     OW83287   8.389   4.825   8.701
23742SOL    HW183288   8.439   4.740   8.685
23742SOL    HW283289   8.343   4.852   8.616
23743SOL     OW83290   7.476   4.530   7.575
23743SOL    HW183291   7.536   4.477   7.635
23743SOL    HW283292   7.382   4.498   7.587
23744SOL     OW83293   8.996   4.528   7.775
23744SOL    HW183294   9.064   4.462   7.742
23744SOL    HW283295   9.011   4.616   7.731
23745SOL     OW83296   8.244   5.515   8.423
23745SOL    HW183297   8.290   5.448   8.365
23745SOL    HW283298   8.170   5.471   8.473
23746SOL     OW83299   8.151   4.584   7.459
23746SOL    HW183300   8.180   4.503   7.510
23746SOL    HW283301   8.051   4.583   7.450
23747SOL     OW83302   8.747   4.116   7.805
23747SOL    HW183303   8.684   4.174   7.753
23747SOL    HW283304   8.840   4.150   7.793
23748SOL     OW83305   7.526   3.972   8.795
23748SOL    HW183306   7.598   3.982   8.726
23748SOL    HW283307   7.437   3.971   8.750
23749SOL     OW83308   8.424   4.593   8.560
23749SOL    HW183309   8.418   4.579   8.461
23749SOL    HW283310   8.343   4.554   8.604
23750SOL     OW83311   9.015   4.127   7.875
23750SOL    HW183312   9.111   4.098   7.872
23750SOL    HW283313   8.976   4.105   7.964
23751SOL     OW83314   8.299   5.202   8.312
23751SOL    HW183315   8.357   5.213   8.231
23751SOL    HW283316   8.205   5.226   8.290
23752SOL     OW83317   8.249   4.068   7.597
23752SOL    HW183318   8.158   4.081   7.635
23752SOL    HW283319   8.309   4.028   7.667
23753SOL     OW83320   8.360   5.013   7.532
23753SOL    HW183321   8.413   4.953   7.592
23753SOL    HW283322   8.399   5.014   7.441
23754SOL     OW83323   8.526   4.581   8.006
23754SOL    HW183324   8.591   4.609   8.077
23754SOL    HW283325   8.447   4.642   8.008
23755SOL     OW83326   8.718   4.621   8.209
23755SOL    HW183327   8.739   4.563   8.287
23755SOL    HW283328   8.727   4.717   8.235
23756SOL     OW83329   7.674   4.750   8.255
23756SOL    HW183330   7.597   4.812   8.248
23756SOL    HW283331   7.711   4.751   8.348
23757SOL     OW83332   8.307   4.698   7.954
23757SOL    HW183333   8.294   4.609   7.911
23757SOL    HW283334   8.238   4.712   8.025
23758SOL     OW83335   7.418   4.003   7.857
23758SOL    HW183336   7.478   3.954   7.795
23758SOL    HW283337   7.473   4.055   7.922
23759SOL     OW83338   8.205   4.468   8.706
23759SOL    HW183339   8.207   4.554   8.757
23759SOL    HW283340   8.262   4.400   8.753
23760SOL     OW83341   7.442   5.495   8.777
23760SOL    HW183342   7.450   5.595   8.775
23760SOL    HW283343   7.418   5.466   8.870
23761SOL     OW83344   8.223   4.514   7.771
23761SOL    HW183345   8.134   4.542   7.736
23761SOL    HW283346   8.264   4.448   7.707
23762SOL     OW83347   7.742   5.430   7.581
23762SOL    HW183348   7.834   5.460   7.556
23762SOL    HW283349   7.717   5.469   7.670
23763SOL     OW83350   8.718   5.452   8.518
23763SOL    HW183351   8.737   5.515   8.444
23763SOL    HW283352   8.726   5.358   8.485
23764SOL     OW83353   7.423   4.847   8.330
23764SOL    HW183354   7.333   4.863   8.291
23764SOL    HW283355   7.421   4.763   8.385
23765SOL     OW83356   8.174   3.752   7.780
23765SOL    HW183357   8.135   3.741   7.689
23765SOL    HW283358   8.130   3.828   7.827
23766SOL     OW83359   7.419   4.888   7.874
23766SOL    HW183360   7.497   4.946   7.898
23766SOL    HW283361   7.438   4.839   7.789
23767SOL     OW83362   8.949   4.016   8.958
23767SOL    HW183363   8.888   4.094   8.955
23767SOL    HW283364   9.004   4.020   9.041
23768SOL     OW83365   8.998   3.740   8.979
23768SOL    HW183366   9.024   3.697   8.893
23768SOL    HW283367   8.948   3.824   8.961
23769SOL     OW83368   8.680   4.350   8.503
23769SOL    HW183369   8.734   4.390   8.429
23769SOL    HW283370   8.718   4.379   8.591
23770SOL     OW83371   8.973   3.756   7.819
23770SOL    HW183372   8.980   3.710   7.731
23770SOL    HW283373   8.877   3.766   7.844
23771SOL     OW83374   7.486   5.093   8.488
23771SOL    HW183375   7.455   5.019   8.429
23771SOL    HW283376   7.418   5.111   8.559
23772SOL     OW83377   9.172   4.321   9.057
23772SOL    HW183378   9.161   4.407   9.006
23772SOL    HW283379   9.266   4.312   9.087
23773SOL     OW83380   8.973   4.226   9.227
23773SOL    HW183381   9.053   4.251   9.171
23773SOL    HW283382   9.004   4.191   9.315
23774SOL     OW83383   8.981   4.625   8.027
23774SOL    HW183384   8.995   4.588   7.934
23774SOL    HW283385   8.892   4.595   8.061
23775SOL     OW83386   9.137   4.562   8.922
23775SOL    HW183387   9.039   4.583   8.924
23775SOL    HW283388   9.186   4.638   8.881
23776SOL     OW83389   8.991   3.982   7.601
23776SOL    HW183390   8.996   4.024   7.692
23776SOL    HW283391   8.924   3.907   7.603
23777SOL     OW83392   7.529   3.992   9.086
23777SOL    HW183393   7.547   3.981   8.988
23777SOL    HW283394   7.431   3.988   9.103
23778SOL     OW83395   7.409   5.406   9.030
23778SOL    HW183396   7.481   5.392   9.098
23778SOL    HW283397   7.320   5.409   9.075
23779SOL     OW83398   7.577   4.062   8.054
23779SOL    HW183399   7.520   4.117   8.115
23779SOL    HW283400   7.647   4.014   8.107
23780SOL     OW83401   7.714   4.253   7.652
23780SOL    HW183402   7.786   4.282   7.589
23780SOL    HW283403   7.670   4.333   7.692
23781SOL     OW83404   7.829   5.516   8.118
23781SOL    HW183405   7.753   5.482   8.063
23781SOL    HW283406   7.915   5.479   8.083
23782SOL     OW83407   8.128   4.949   7.899
23782SOL    HW183408   8.171   4.880   7.841
23782SOL    HW283409   8.092   4.906   7.982
23783SOL     OW83410   7.760   4.500   8.101
23783SOL    HW183411   7.752   4.598   8.119
23783SOL    HW283412   7.844   4.466   8.142
23784SOL     OW83413   7.606   3.980   7.616
23784SOL    HW183414   7.650   3.949   7.533
23784SOL    HW283415   7.607   4.080   7.620
23785SOL     OW83416   7.459   4.232   8.227
23785SOL    HW183417   7.423   4.325   8.219
23785SOL    HW283418   7.542   4.233   8.283
23786SOL     OW83419   7.894   4.819   7.613
23786SOL    HW183420   7.994   4.819   7.624
23786SOL    HW283421   7.863   4.912   7.592
23787SOL     OW83422   8.706   3.847   7.866
23787SOL    HW183423   8.616   3.831   7.907
23787SOL    HW283424   8.714   3.943   7.840
23788SOL     OW83425   8.820   4.247   8.882
23788SOL    HW183426   8.772   4.270   8.966
23788SOL    HW283427   8.754   4.217   8.813
23789SOL     OW83428   7.455   3.762   7.526
23789SOL    HW183429   7.518   3.685   7.534
23789SOL    HW283430   7.475   3.830   7.597
23790SOL     OW83431   8.152   4.719   8.866
23790SOL    HW183432   8.221   4.771   8.816
23790SOL    HW283433   8.147   4.752   8.961
23791SOL     OW83434   8.544   4.740   9.026
23791SOL    HW183435   8.466   4.686   9.059
23791SOL    HW283436   8.625   4.718   9.081
23792SOL     OW83437   8.001   3.799   8.293
23792SOL    HW183438   7.929   3.732   8.279
23792SOL    HW283439   8.083   3.753   8.328
23793SOL     OW83440   7.701   5.464   8.660
23793SOL    HW183441   7.681   5.446   8.564
23793SOL    HW283442   7.628   5.426   8.717
23794SOL     OW83443   8.394   4.928   8.205
23794SOL    HW183444   8.433   4.971   8.124
23794SOL    HW283445   8.467   4.911   8.272
23795SOL     OW83446   7.655   3.711   7.813
23795SOL    HW183447   7.693   3.799   7.840
23795SOL    HW283448   7.578   3.687   7.873
23796SOL     OW83449   8.071   4.328   9.141
23796SOL    HW183450   8.023   4.379   9.070
23796SOL    HW283451   8.164   4.307   9.111
23797SOL     OW83452   8.222   4.886   8.486
23797SOL    HW183453   8.173   4.801   8.467
23797SOL    HW283454   8.292   4.901   8.417
23798SOL     OW83455   8.921   5.124   9.022
23798SOL    HW183456   8.906   5.026   9.036
23798SOL    HW283457   8.838   5.166   8.986
23799SOL     OW83458   8.180   5.192   7.420
23799SOL    HW183459   8.155   5.269   7.479
23799SOL    HW283460   8.244   5.132   7.468
23800SOL     OW83461   7.998   5.399   8.454
23800SOL    HW183462   8.018   5.369   8.361
23800SOL    HW283463   7.923   5.344   8.491
23801SOL     OW83464   7.509   4.504   8.240
23801SOL    HW183465   7.604   4.495   8.208
23801SOL    HW283466   7.475   4.596   8.219
23802SOL     OW83467   8.572   4.877   8.403
23802SOL    HW183468   8.556   4.971   8.434
23802SOL    HW283469   8.575   4.816   8.483
23803SOL     OW83470   7.846   4.148   9.167
23803SOL    HW183471   7.882   4.095   9.090
23803SOL    HW283472   7.907   4.225   9.185
23804SOL     OW83473   7.910   4.565   7.739
23804SOL    HW183474   7.860   4.630   7.683
23804SOL    HW283475   7.852   4.486   7.758
23805SOL     OW83476   8.991   4.596   8.437
23805SOL    HW183477   9.010   4.635   8.346
23805SOL    HW283478   8.945   4.665   8.493
23806SOL     OW83479   7.384   3.738   7.934
23806SOL    HW183480   7.297   3.725   7.887
23806SOL    HW283481   7.392   3.833   7.964
23807SOL     OW83482   8.605   3.839   9.175
23807SOL    HW183483   8.664   3.855   9.255
23807SOL    HW283484   8.552   3.922   9.156
23808SOL     OW83485   9.177   5.145   8.941
23808SOL    HW183486   9.205   5.238   8.963
23808SOL    HW283487   9.084   5.129   8.974
23809SOL     OW83488   8.427   4.258   8.491
23809SOL    HW183489   8.513   4.309   8.490
23809SOL    HW283490   8.433   4.184   8.558
23810SOL     OW83491   7.831   5.204   8.063
23810SOL    HW183492   7.829   5.105   8.076
23810SOL    HW283493   7.740   5.237   8.040
23811SOL     OW83494   8.472   5.321   8.651
23811SOL    HW183495   8.398   5.385   8.669
23811SOL    HW283496   8.551   5.370   8.613
23812SOL     OW83497   7.681   5.451   9.150
23812SOL    HW183498   7.724   5.535   9.116
23812SOL    HW283499   7.706   5.438   9.246
23813SOL     OW83500   7.630   5.352   8.425
23813SOL    HW183501   7.572   5.272   8.439
23813SOL    HW283502   7.654   5.359   8.328
23814SOL     OW83503   8.172   4.818   7.646
23814SOL    HW183504   8.244   4.877   7.611
23814SOL    HW283505   8.212   4.734   7.682
23815SOL     OW83506   8.243   3.794   7.498
23815SOL    HW183507   8.318   3.728   7.510
23815SOL    HW283508   8.274   3.885   7.526
23816SOL     OW83509   9.132   4.824   8.733
23816SOL    HW183510   9.146   4.922   8.747
23816SOL    HW283511   9.189   4.793   8.657
23817SOL     OW83512   8.042   5.372   7.585
23817SOL    HW183513   8.017   5.467   7.569
23817SOL    HW283514   8.009   5.344   7.675
23818SOL     OW83515   8.692   4.795   8.809
23818SOL    HW183516   8.636   4.754   8.880
23818SOL    HW283517   8.672   4.893   8.803
23819SOL     OW83518   7.602   4.292   9.171
23819SOL    HW183519   7.619   4.193   9.176
23819SOL    HW283520   7.666   4.340   9.232
23820SOL     OW83521   9.041   5.253   8.410
23820SOL    HW183522   9.013   5.346   8.434
23820SOL    HW283523   9.091   5.212   8.486
23821SOL     OW83524   7.437   4.626   7.971
23821SOL    HW183525   7.444   4.725   7.958
23821SOL    HW283526   7.346   4.603   8.005
23822SOL     OW83527   7.946   4.424   8.909
23822SOL    HW183528   7.852   4.394   8.890
23822SOL    HW283529   7.955   4.521   8.886
23823SOL     OW83530   9.013   4.800   8.221
23823SOL    HW183531   8.975   4.889   8.194
23823SOL    HW283532   9.013   4.738   8.143
23824SOL     OW83533   8.024   5.057   8.617
23824SOL    HW183534   7.937   5.056   8.568
23824SOL    HW283535   8.090   4.997   8.570
23825SOL     OW83536   9.004   5.361   9.177
23825SOL    HW183537   8.973   5.283   9.122
23825SOL    HW283538   8.973   5.446   9.135
23826SOL     OW83539   8.588   4.504   8.798
23826SOL    HW183540   8.687   4.513   8.788
23826SOL    HW283541   8.544   4.506   8.708
23827SOL     OW83542   8.747   5.171   8.412
23827SOL    HW183543   8.661   5.128   8.441
23827SOL    HW283544   8.736   5.211   8.321
23828SOL     OW83545   8.988   4.968   9.777
23828SOL    HW183546   8.999   5.052   9.831
23828SOL    HW283547   9.078   4.931   9.754
23829SOL     OW83548   7.735   3.887   9.246
23829SOL    HW183549   7.648   3.884   9.197
23829SOL    HW283550   7.786   3.969   9.218
23830SOL     OW83551   7.945   5.241   9.650
23830SOL    HW183552   7.901   5.250   9.739
23830SOL    HW283553   8.016   5.171   9.654
23831SOL     OW83554   7.963   3.774   9.372
23831SOL    HW183555   8.051   3.802   9.333
23831SOL    HW283556   7.891   3.837   9.342
23832SOL     OW83557   7.872   4.914   9.945
23832SOL    HW183558   7.805   4.868  10.004
23832SOL    HW283559   7.964   4.882   9.968
23833SOL     OW83560   8.099   4.320   9.776
23833SOL    HW183561   8.138   4.390   9.717
23833SOL    HW283562   8.073   4.240   9.722
23834SOL     OW83563   7.802   5.083   9.429
23834SOL    HW183564   7.866   5.099   9.354
23834SOL    HW283565   7.826   5.141   9.507
23835SOL     OW83566   7.650   4.465   9.657
23835SOL    HW183567   7.665   4.399   9.731
23835SOL    HW283568   7.600   4.544   9.692
23836SOL     OW83569   8.236   5.410   9.834
23836SOL    HW183570   8.301   5.343   9.798
23836SOL    HW283571   8.226   5.486   9.770
23837SOL     OW83572   9.128   5.292   9.576
23837SOL    HW183573   9.224   5.266   9.569
23837SOL    HW283574   9.104   5.352   9.500
23838SOL     OW83575   8.440   4.014   9.616
23838SOL    HW183576   8.465   4.108   9.637
23838SOL    HW283577   8.441   3.960   9.700
23839SOL     OW83578   7.890   4.372   9.344
23839SOL    HW183579   7.850   4.451   9.297
23839SOL    HW283580   7.979   4.351   9.304
23840SOL     OW83581   7.740   4.949   9.694
23840SOL    HW183582   7.786   4.923   9.779
23840SOL    HW283583   7.760   4.881   9.623
23841SOL     OW83584   8.598   4.004   9.405
23841SOL    HW183585   8.692   3.974   9.423
23841SOL    HW283586   8.546   4.004   9.491
23842SOL     OW83587   7.785   3.981   9.659
23842SOL    HW183588   7.739   4.021   9.738
23842SOL    HW283589   7.733   4.000   9.577
23843SOL     OW83590   9.225   5.452  10.339
23843SOL    HW183591   9.271   5.462  10.427
23843SOL    HW283592   9.292   5.455  10.266
23844SOL     OW83593   8.338   4.192   9.901
23844SOL    HW183594   8.414   4.220   9.960
23844SOL    HW283595   8.294   4.272   9.862
23845SOL     OW83596   9.156   4.325   9.497
23845SOL    HW183597   9.177   4.244   9.443
23845SOL    HW283598   9.173   4.306   9.594
23846SOL     OW83599   7.412   4.313   9.754
23846SOL    HW183600   7.414   4.264   9.841
23846SOL    HW283601   7.414   4.412   9.772
23847SOL     OW83602   7.585   5.198   9.608
23847SOL    HW183603   7.612   5.104   9.628
23847SOL    HW283604   7.610   5.220   9.514
23848SOL     OW83605   7.599   5.341   9.845
23848SOL    HW183606   7.515   5.392   9.863
23848SOL    HW283607   7.590   5.290   9.760
23849SOL     OW83608   7.872   4.638   9.247
23849SOL    HW183609   7.841   4.672   9.159
23849SOL    HW283610   7.876   4.713   9.313
23850SOL     OW83611   7.476   4.530   9.420
23850SOL    HW183612   7.536   4.477   9.480
23850SOL    HW283613   7.382   4.498   9.432
23851SOL     OW83614   8.996   4.528   9.620
23851SOL    HW183615   9.064   4.462   9.587
23851SOL    HW283616   9.011   4.616   9.576
23852SOL     OW83617   8.151   4.584   9.304
23852SOL    HW183618   8.180   4.503   9.355
23852SOL    HW283619   8.051   4.583   9.295
23853SOL     OW83620   8.747   4.116   9.650
23853SOL    HW183621   8.684   4.174   9.598
23853SOL    HW283622   8.840   4.150   9.638
23854SOL     OW83623   9.015   4.127   9.720
23854SOL    HW183624   9.111   4.098   9.717
23854SOL    HW283625   8.976   4.105   9.809
23855SOL     OW83626   8.249   4.068   9.442
23855SOL    HW183627   8.158   4.081   9.480
23855SOL    HW283628   8.309   4.028   9.512
23856SOL     OW83629   8.360   5.013   9.377
23856SOL    HW183630   8.413   4.953   9.437
23856SOL    HW283631   8.399   5.014   9.286
23857SOL     OW83632   9.111   5.308   9.862
23857SOL    HW183633   9.078   5.401   9.881
23857SOL    HW283634   9.109   5.292   9.763
23858SOL     OW83635   8.526   4.581   9.851
23858SOL    HW183636   8.591   4.609   9.922
23858SOL    HW283637   8.447   4.642   9.853
23859SOL     OW83638   7.418   4.003   9.702
23859SOL    HW183639   7.478   3.954   9.640
23859SOL    HW283640   7.473   4.055   9.767
23860SOL     OW83641   9.041   5.501   9.393
23860SOL    HW183642   9.131   5.545   9.395
23860SOL    HW283643   9.040   5.432   9.321
23861SOL     OW83644   8.223   4.514   9.616
23861SOL    HW183645   8.134   4.542   9.581
23861SOL    HW283646   8.264   4.448   9.552
23862SOL     OW83647   7.742   5.430   9.426
23862SOL    HW183648   7.834   5.460   9.401
23862SOL    HW283649   7.717   5.469   9.515
23863SOL     OW83650   8.174   3.752   9.625
23863SOL    HW183651   8.135   3.741   9.534
23863SOL    HW283652   8.130   3.828   9.672
23864SOL     OW83653   7.419   4.888   9.719
23864SOL    HW183654   7.497   4.946   9.743
23864SOL    HW283655   7.438   4.839   9.634
23865SOL     OW83656   8.785   3.768   9.390
23865SOL    HW183657   8.865   3.708   9.387
23865SOL    HW283658   8.711   3.721   9.438
23866SOL     OW83659   8.100   3.999   9.956
23866SOL    HW183660   8.089   3.941  10.037
23866SOL    HW283661   8.185   4.051   9.964
23867SOL     OW83662   8.973   3.756   9.664
23867SOL    HW183663   8.980   3.710   9.576
23867SOL    HW283664   8.877   3.766   9.689
23868SOL     OW83665   8.684   4.529   9.652
23868SOL    HW183666   8.630   4.527   9.736
23868SOL    HW283667   8.761   4.592   9.663
23869SOL     OW83668   8.981   4.625   9.872
23869SOL    HW183669   8.995   4.588   9.779
23869SOL    HW283670   8.892   4.595   9.906
23870SOL     OW83671   8.991   3.982   9.446
23870SOL    HW183672   8.996   4.024   9.537
23870SOL    HW283673   8.924   3.907   9.448
23871SOL     OW83674   7.714   4.253   9.497
23871SOL    HW183675   7.786   4.282   9.434
23871SOL    HW283676   7.670   4.333   9.537
23872SOL     OW83677   7.829   5.516   9.963
23872SOL    HW183678   7.753   5.482   9.908
23872SOL    HW283679   7.915   5.479   9.928
23873SOL     OW83680   8.128   4.949   9.744
23873SOL    HW183681   8.171   4.880   9.686
23873SOL    HW283682   8.092   4.906   9.827
23874SOL     OW83683   7.606   3.980   9.461
23874SOL    HW183684   7.650   3.949   9.378
23874SOL    HW283685   7.607   4.080   9.465
23875SOL     OW83686   7.459   4.232  10.072
23875SOL    HW183687   7.423   4.325  10.064
23875SOL    HW283688   7.542   4.233  10.128
23876SOL     OW83689   7.894   4.819   9.458
23876SOL    HW183690   7.994   4.819   9.469
23876SOL    HW283691   7.863   4.912   9.437
23877SOL     OW83692   8.520   4.411   9.274
23877SOL    HW183693   8.451   4.468   9.230
23877SOL    HW283694   8.601   4.405   9.215
23878SOL     OW83695   8.255   4.330   9.417
23878SOL    HW183696   8.345   4.331   9.372
23878SOL    HW283697   8.232   4.236   9.442
23879SOL     OW83698   8.706   3.847   9.711
23879SOL    HW183699   8.616   3.831   9.752
23879SOL    HW283700   8.714   3.943   9.685
23880SOL     OW83701   7.455   3.762   9.371
23880SOL    HW183702   7.518   3.685   9.379
23880SOL    HW283703   7.475   3.830   9.442
23881SOL     OW83704   9.027   4.749   9.472
23881SOL    HW183705   9.098   4.819   9.474
23881SOL    HW283706   9.014   4.719   9.377
23882SOL     OW83707   8.473   3.922   9.867
23882SOL    HW183708   8.532   3.982   9.922
23882SOL    HW283709   8.400   3.886   9.924
23883SOL     OW83710   7.655   3.711   9.658
23883SOL    HW183711   7.693   3.799   9.685
23883SOL    HW283712   7.578   3.687   9.718
23884SOL     OW83713   7.477   4.798   9.478
23884SOL    HW183714   7.467   4.701   9.457
23884SOL    HW283715   7.530   4.843   9.406
23885SOL     OW83716   9.174   3.910  10.079
23885SOL    HW183717   9.129   3.892  10.166
23885SOL    HW283718   9.272   3.927  10.095
23886SOL     OW83719   8.560   4.309   9.540
23886SOL    HW183720   8.612   4.381   9.586
23886SOL    HW283721   8.573   4.316   9.442
23887SOL     OW83722   8.180   5.192   9.265
23887SOL    HW183723   8.155   5.269   9.324
23887SOL    HW283724   8.244   5.132   9.313
23888SOL     OW83725   7.910   4.565   9.584
23888SOL    HW183726   7.860   4.630   9.528
23888SOL    HW283727   7.852   4.486   9.603
23889SOL     OW83728   7.384   3.738   9.779
23889SOL    HW183729   7.297   3.725   9.732
23889SOL    HW283730   7.392   3.833   9.809
23890SOL     OW83731   7.831   5.204   9.908
23890SOL    HW183732   7.829   5.105   9.921
23890SOL    HW283733   7.740   5.237   9.885
23891SOL     OW83734   9.029   4.146  10.005
23891SOL    HW183735   9.048   4.232  10.052
23891SOL    HW283736   9.097   4.077  10.033
23892SOL     OW83737   8.172   4.818   9.491
23892SOL    HW183738   8.244   4.877   9.456
23892SOL    HW283739   8.212   4.734   9.527
23893SOL     OW83740   8.243   3.794   9.343
23893SOL    HW183741   8.318   3.728   9.355
23893SOL    HW283742   8.274   3.885   9.371
23894SOL     OW83743   7.922   4.223   9.955
23894SOL    HW183744   7.960   4.134   9.981
23894SOL    HW283745   7.989   4.273   9.900
23895SOL     OW83746   8.042   5.372   9.430
23895SOL    HW183747   8.017   5.467   9.414
23895SOL    HW283748   8.009   5.344   9.520
23896SOL     OW83749   7.437   4.626   9.816
23896SOL    HW183750   7.444   4.725   9.803
23896SOL    HW283751   7.346   4.603   9.850
23897SOL     OW83752   8.065   4.065   9.691
23897SOL    HW183753   7.967   4.059   9.671
23897SOL    HW283754   8.084   4.022   9.779
23898SOL     OW83755   8.985   3.748   9.950
23898SOL    HW183756   8.980   3.789   9.859
23898SOL    HW283757   9.066   3.782   9.997
23899SOL     OW83758   8.750   4.156   9.932
23899SOL    HW183759   8.749   4.148   9.833
23899SOL    HW283760   8.839   4.128   9.967
23900SOL     OW83761   8.477   7.017   0.692
23900SOL    HW183762   8.568   7.051   0.715
23900SOL    HW283763   8.449   7.055   0.604
23901SOL     OW83764   8.988   6.813   0.550
23901SOL    HW183765   8.999   6.897   0.604
23901SOL    HW283766   9.078   6.776   0.527
23902SOL     OW83767   9.068   6.095   1.414
23902SOL    HW183768   8.970   6.087   1.436
23902SOL    HW283769   9.121   6.084   1.498
23903SOL     OW83770   7.735   5.732   0.019
23903SOL    HW183771   7.648   5.729  -0.030
23903SOL    HW283772   7.786   5.814  -0.009
23904SOL     OW83773   8.600   5.632   1.352
23904SOL    HW183774   8.524   5.587   1.399
23904SOL    HW283775   8.629   5.577   1.274
23905SOL     OW83776   8.338   6.412   1.729
23905SOL    HW183777   8.303   6.387   1.639
23905SOL    HW283778   8.262   6.433   1.790
23906SOL     OW83779   7.945   7.086   0.423
23906SOL    HW183780   7.901   7.095   0.512
23906SOL    HW283781   8.016   7.016   0.427
23907SOL     OW83782   7.963   5.619   0.145
23907SOL    HW183783   8.051   5.647   0.106
23907SOL    HW283784   7.891   5.682   0.115
23908SOL     OW83785   8.933   6.604   1.528
23908SOL    HW183786   8.841   6.609   1.490
23908SOL    HW283787   8.998   6.642   1.462
23909SOL     OW83788   8.833   6.611   1.209
23909SOL    HW183789   8.758   6.600   1.274
23909SOL    HW283790   8.870   6.704   1.215
23910SOL     OW83791   8.099   6.165   0.549
23910SOL    HW183792   8.138   6.235   0.490
23910SOL    HW283793   8.073   6.085   0.495
23911SOL     OW83794   8.719   6.073   1.758
23911SOL    HW183795   8.815   6.077   1.784
23911SOL    HW283796   8.675   5.997   1.805
23912SOL     OW83797   7.953   5.884   1.012
23912SOL    HW183798   8.029   5.949   1.008
23912SOL    HW283799   7.983   5.795   0.979
23913SOL     OW83800   9.128   7.137   0.349
23913SOL    HW183801   9.224   7.111   0.342
23913SOL    HW283802   9.104   7.197   0.273
23914SOL     OW83803   9.040   5.830   1.120
23914SOL    HW183804   9.091   5.902   1.073
23914SOL    HW283805   8.945   5.857   1.129
23915SOL     OW83806   8.440   5.859   0.389
23915SOL    HW183807   8.465   5.953   0.410
23915SOL    HW283808   8.441   5.805   0.473
23916SOL     OW83809   7.564   6.572   1.574
23916SOL    HW183810   7.660   6.587   1.592
23916SOL    HW283811   7.526   6.510   1.643
23917SOL     OW83812   7.890   6.217   0.117
23917SOL    HW183813   7.850   6.296   0.070
23917SOL    HW283814   7.979   6.196   0.077
23918SOL     OW83815   8.405   6.173   1.569
23918SOL    HW183816   8.438   6.090   1.616
23918SOL    HW283817   8.478   6.241   1.568
23919SOL     OW83818   9.009   6.973   0.791
23919SOL    HW183819   9.005   7.008   0.884
23919SOL    HW283820   9.068   7.032   0.735
23920SOL     OW83821   8.598   5.849   0.178
23920SOL    HW183822   8.692   5.819   0.196
23920SOL    HW283823   8.546   5.849   0.264
23921SOL     OW83824   7.750   6.054   1.273
23921SOL    HW183825   7.740   5.967   1.225
23921SOL    HW283826   7.686   6.121   1.236
23922SOL     OW83827   8.832   6.334   1.311
23922SOL    HW183828   8.836   6.428   1.276
23922SOL    HW283829   8.925   6.303   1.333
23923SOL     OW83830   7.785   5.826   0.432
23923SOL    HW183831   7.739   5.866   0.511
23923SOL    HW283832   7.733   5.845   0.350
23924SOL     OW83833   9.208   6.071   1.199
23924SOL    HW183834   9.265   6.153   1.201
23924SOL    HW283835   9.149   6.070   1.279
23925SOL     OW83836   8.338   6.037   0.674
23925SOL    HW183837   8.414   6.065   0.733
23925SOL    HW283838   8.294   6.117   0.635
23926SOL     OW83839   8.573   6.501   0.191
23926SOL    HW183840   8.610   6.451   0.269
23926SOL    HW283841   8.503   6.446   0.146
23927SOL     OW83842   8.415   5.923   1.812
23927SOL    HW183843   8.478   5.928   1.889
23927SOL    HW283844   8.323   5.901   1.845
23928SOL     OW83845   9.156   6.170   0.270
23928SOL    HW183846   9.177   6.089   0.216
23928SOL    HW283847   9.173   6.151   0.367
23929SOL     OW83848   8.131   5.575   1.710
23929SOL    HW183849   8.138   5.481   1.677
23929SOL    HW283850   8.188   5.585   1.792
23930SOL     OW83851   9.054   6.176   0.978
23930SOL    HW183852   9.039   6.267   1.015
23930SOL    HW283853   9.124   6.129   1.032
23931SOL     OW83854   8.464   6.842   1.744
23931SOL    HW183855   8.486   6.752   1.706
23931SOL    HW283856   8.399   6.889   1.685
23932SOL     OW83857   8.119   6.684   1.748
23932SOL    HW183858   8.090   6.761   1.805
23932SOL    HW283859   8.129   6.603   1.806
23933SOL     OW83860   8.754   5.548   0.854
23933SOL    HW183861   8.703   5.632   0.836
23933SOL    HW283862   8.840   5.550   0.803
23934SOL     OW83863   9.109   5.754   1.783
23934SOL    HW183864   9.086   5.775   1.878
23934SOL    HW283865   9.085   5.659   1.763
23935SOL     OW83866   7.733   5.746   0.848
23935SOL    HW183867   7.785   5.786   0.923
23935SOL    HW283868   7.786   5.673   0.805
23936SOL     OW83869   7.717   5.794   1.182
23936SOL    HW183870   7.682   5.701   1.182
23936SOL    HW283871   7.804   5.797   1.133
23937SOL     OW83872   8.867   6.912   1.255
23937SOL    HW183873   8.838   6.949   1.166
23937SOL    HW283874   8.789   6.912   1.317
23938SOL     OW83875   7.599   7.186   0.618
23938SOL    HW183876   7.515   7.237   0.636
23938SOL    HW283877   7.590   7.135   0.533
23939SOL     OW83878   9.120   6.983   1.293
23939SOL    HW183879   9.151   6.997   1.387
23939SOL    HW283880   9.021   6.970   1.292
23940SOL     OW83881   7.872   6.483   0.020
23940SOL    HW183882   7.841   6.517  -0.068
23940SOL    HW283883   7.876   6.558   0.086
23941SOL     OW83884   8.389   6.670   1.319
23941SOL    HW183885   8.439   6.585   1.303
23941SOL    HW283886   8.343   6.697   1.234
23942SOL     OW83887   8.996   6.373   0.393
23942SOL    HW183888   9.064   6.307   0.360
23942SOL    HW283889   9.011   6.461   0.349
23943SOL     OW83890   8.151   6.429   0.077
23943SOL    HW183891   8.180   6.348   0.128
23943SOL    HW283892   8.051   6.428   0.068
23944SOL     OW83893   8.747   5.961   0.423
23944SOL    HW183894   8.684   6.019   0.371
23944SOL    HW283895   8.840   5.995   0.411
23945SOL     OW83896   7.644   6.162   1.523
23945SOL    HW183897   7.664   6.067   1.498
23945SOL    HW283898   7.607   6.165   1.616
23946SOL     OW83899   7.526   5.817   1.413
23946SOL    HW183900   7.598   5.827   1.344
23946SOL    HW283901   7.437   5.816   1.368
23947SOL     OW83902   9.015   5.972   0.493
23947SOL    HW183903   9.111   5.943   0.490
23947SOL    HW283904   8.976   5.950   0.582
23948SOL     OW83905   8.249   5.913   0.215
23948SOL    HW183906   8.158   5.926   0.253
23948SOL    HW283907   8.309   5.873   0.285
23949SOL     OW83908   8.360   6.858   0.150
23949SOL    HW183909   8.413   6.798   0.210
23949SOL    HW283910   8.399   6.859   0.059
23950SOL     OW83911   9.111   7.153   0.635
23950SOL    HW183912   9.078   7.246   0.654
23950SOL    HW283913   9.109   7.137   0.536
23951SOL     OW83914   8.526   6.426   0.624
23951SOL    HW183915   8.591   6.454   0.695
23951SOL    HW283916   8.447   6.487   0.626
23952SOL     OW83917   8.274   7.152   1.648
23952SOL    HW183918   8.262   7.083   1.577
23952SOL    HW283919   8.237   7.117   1.735
23953SOL     OW83920   8.307   6.543   0.572
23953SOL    HW183921   8.294   6.454   0.529
23953SOL    HW283922   8.238   6.557   0.643
23954SOL     OW83923   8.611   6.931   1.411
23954SOL    HW183924   8.644   7.016   1.452
23954SOL    HW283925   8.512   6.927   1.418
23955SOL     OW83926   7.418   5.848   0.475
23955SOL    HW183927   7.478   5.799   0.413
23955SOL    HW283928   7.473   5.900   0.540
23956SOL     OW83929   9.041   7.346   0.166
23956SOL    HW183930   9.131   7.390   0.168
23956SOL    HW283931   9.040   7.277   0.094
23957SOL     OW83932   8.205   6.313   1.324
23957SOL    HW183933   8.207   6.399   1.375
23957SOL    HW283934   8.262   6.245   1.371
23958SOL     OW83935   7.442   7.340   1.395
23958SOL    HW183936   7.450   7.440   1.393
23958SOL    HW283937   7.418   7.311   1.488
23959SOL     OW83938   8.223   6.359   0.389
23959SOL    HW183939   8.134   6.387   0.354
23959SOL    HW283940   8.264   6.293   0.325
23960SOL     OW83941   7.745   6.077   0.928
23960SOL    HW183942   7.801   6.070   0.845
23960SOL    HW283943   7.802   6.055   1.008
23961SOL     OW83944   8.718   7.297   1.136
23961SOL    HW183945   8.737   7.360   1.062
23961SOL    HW283946   8.726   7.203   1.103
23962SOL     OW83947   8.174   5.597   0.398
23962SOL    HW183948   8.135   5.586   0.307
23962SOL    HW283949   8.130   5.673   0.445
23963SOL     OW83950   8.949   5.861   1.576
23963SOL    HW183951   8.888   5.939   1.573
23963SOL    HW283952   9.004   5.865   1.659
23964SOL     OW83953   8.665   5.807   0.867
23964SOL    HW183954   8.664   5.885   0.804
23964SOL    HW283955   8.708   5.834   0.953
23965SOL     OW83956   8.785   5.613   0.163
23965SOL    HW183957   8.865   5.553   0.160
23965SOL    HW283958   8.711   5.566   0.211
23966SOL     OW83959   8.998   5.585   1.597
23966SOL    HW183960   9.024   5.542   1.511
23966SOL    HW283961   8.948   5.669   1.579
23967SOL     OW83962   8.100   5.844   0.729
23967SOL    HW183963   8.089   5.786   0.810
23967SOL    HW283964   8.185   5.896   0.737
23968SOL     OW83965   8.973   5.601   0.437
23968SOL    HW183966   8.980   5.555   0.349
23968SOL    HW283967   8.877   5.611   0.462
23969SOL     OW83968   7.949   6.916   1.800
23969SOL    HW183969   7.910   6.979   1.733
23969SOL    HW283970   8.032   6.956   1.840
23970SOL     OW83971   7.825   6.648   1.632
23970SOL    HW183972   7.844   6.672   1.537
23970SOL    HW283973   7.818   6.731   1.687
23971SOL     OW83974   7.486   6.938   1.106
23971SOL    HW183975   7.455   6.864   1.047
23971SOL    HW283976   7.418   6.956   1.177
23972SOL     OW83977   8.572   6.139   0.839
23972SOL    HW183978   8.654   6.116   0.787
23972SOL    HW283979   8.567   6.080   0.920
23973SOL     OW83980   9.172   6.166   1.675
23973SOL    HW183981   9.161   6.252   1.624
23973SOL    HW283982   9.266   6.157   1.705
23974SOL     OW83983   8.743   5.939   1.094
23974SOL    HW183984   8.717   6.036   1.100
23974SOL    HW283985   8.743   5.899   1.186
23975SOL     OW83986   8.973   6.071   1.845
23975SOL    HW183987   9.053   6.096   1.789
23975SOL    HW283988   9.004   6.036   1.933
23976SOL     OW83989   8.684   6.374   0.425
23976SOL    HW183990   8.630   6.372   0.509
23976SOL    HW283991   8.761   6.437   0.436
23977SOL     OW83992   8.981   6.470   0.645
23977SOL    HW183993   8.995   6.433   0.552
23977SOL    HW283994   8.892   6.440   0.679
23978SOL     OW83995   9.137   6.407   1.540
23978SOL    HW183996   9.039   6.428   1.542
23978SOL    HW283997   9.186   6.483   1.499
23979SOL     OW83998   8.991   5.827   0.219
23979SOL    HW183999   8.996   5.869   0.310
23979SOL    HW284000   8.924   5.752   0.221
23980SOL     OW84001   8.138   7.042   1.439
23980SOL    HW184002   8.075   7.120   1.446
23980SOL    HW284003   8.106   6.980   1.367
23981SOL     OW84004   7.529   5.837   1.704
23981SOL    HW184005   7.547   5.826   1.606
23981SOL    HW284006   7.431   5.833   1.721
23982SOL     OW84007   7.409   7.251   1.648
23982SOL    HW184008   7.481   7.237   1.716
23982SOL    HW284009   7.320   7.254   1.693
23983SOL     OW84010   7.577   5.907   0.672
23983SOL    HW184011   7.520   5.962   0.733
23983SOL    HW284012   7.647   5.859   0.725
23984SOL     OW84013   8.749   7.139   1.535
23984SOL    HW184014   8.702   7.207   1.590
23984SOL    HW284015   8.816   7.185   1.476
23985SOL     OW84016   7.714   6.098   0.270
23985SOL    HW184017   7.786   6.127   0.207
23985SOL    HW284018   7.670   6.178   0.310
23986SOL     OW84019   9.100   5.760   1.373
23986SOL    HW184020   9.056   5.808   1.449
23986SOL    HW284021   9.078   5.806   1.287
23987SOL     OW84022   7.829   7.361   0.736
23987SOL    HW184023   7.753   7.327   0.681
23987SOL    HW284024   7.915   7.324   0.701
23988SOL     OW84025   7.754   6.870   1.181
23988SOL    HW184026   7.766   6.886   1.278
23988SOL    HW284027   7.667   6.910   1.151
23989SOL     OW84028   8.638   7.074   1.827
23989SOL    HW184029   8.597   6.989   1.793
23989SOL    HW284030   8.618   7.148   1.763
23990SOL     OW84031   8.128   6.794   0.517
23990SOL    HW184032   8.171   6.725   0.459
23990SOL    HW284033   8.092   6.751   0.600
23991SOL     OW84034   7.606   5.825   0.234
23991SOL    HW184035   7.650   5.794   0.151
23991SOL    HW284036   7.607   5.925   0.238
23992SOL     OW84037   7.459   6.077   0.845
23992SOL    HW184038   7.423   6.170   0.837
23992SOL    HW284039   7.542   6.078   0.901
23993SOL     OW84040   8.520   6.256   0.047
23993SOL    HW184041   8.451   6.313   0.003
23993SOL    HW284042   8.601   6.250  -0.012
23994SOL     OW84043   8.255   6.175   0.190
23994SOL    HW184044   8.345   6.176   0.145
23994SOL    HW284045   8.232   6.081   0.215
23995SOL     OW84046   8.706   5.692   0.484
23995SOL    HW184047   8.616   5.676   0.525
23995SOL    HW284048   8.714   5.788   0.458
23996SOL     OW84049   8.820   6.092   1.500
23996SOL    HW184050   8.772   6.115   1.584
23996SOL    HW284051   8.754   6.062   1.431
23997SOL     OW84052   7.455   5.607   0.144
23997SOL    HW184053   7.518   5.530   0.152
23997SOL    HW284054   7.475   5.675   0.215
23998SOL     OW84055   7.728   6.582   1.145
23998SOL    HW184056   7.739   6.537   1.234
23998SOL    HW284057   7.755   6.678   1.152
23999SOL     OW84058   9.027   6.594   0.245
23999SOL    HW184059   9.098   6.664   0.247
23999SOL    HW284060   9.014   6.564   0.150
24000SOL     OW84061   8.009   6.195   1.167
24000SOL    HW184062   8.084   6.238   1.216
24000SOL    HW284063   7.942   6.160   1.233
24001SOL     OW84064   8.152   6.564   1.484
24001SOL    HW184065   8.221   6.616   1.434
24001SOL    HW284066   8.147   6.597   1.579
24002SOL     OW84067   8.544   6.585   1.644
24002SOL    HW184068   8.466   6.531   1.677
24002SOL    HW284069   8.625   6.563   1.699
24003SOL     OW84070   8.473   5.767   0.640
24003SOL    HW184071   8.532   5.827   0.695
24003SOL    HW284072   8.400   5.731   0.697
24004SOL     OW84073   8.583   7.299   1.680
24004SOL    HW184074   8.488   7.297   1.648
24004SOL    HW284075   8.604   7.390   1.717
24005SOL     OW84076   8.001   5.644   0.911
24005SOL    HW184077   7.929   5.577   0.897
24005SOL    HW284078   8.083   5.598   0.946
24006SOL     OW84079   7.701   7.309   1.278
24006SOL    HW184080   7.681   7.291   1.182
24006SOL    HW284081   7.628   7.271   1.335
24007SOL     OW84082   7.427   6.511   1.151
24007SOL    HW184083   7.516   6.489   1.191
24007SOL    HW284084   7.372   6.427   1.147
24008SOL     OW84085   7.655   5.556   0.431
24008SOL    HW184086   7.693   5.644   0.458
24008SOL    HW284087   7.578   5.532   0.491
24009SOL     OW84088   8.071   6.173   1.759
24009SOL    HW184089   8.023   6.224   1.688
24009SOL    HW284090   8.164   6.152   1.729
24010SOL     OW84091   9.174   5.755   0.852
24010SOL    HW184092   9.129   5.737   0.939
24010SOL    HW284093   9.272   5.772   0.868
24011SOL     OW84094   8.560   6.154   0.313
24011SOL    HW184095   8.612   6.226   0.359
24011SOL    HW284096   8.573   6.161   0.215
24012SOL     OW84097   8.921   6.969   1.640
24012SOL    HW184098   8.906   6.871   1.654
24012SOL    HW284099   8.838   7.011   1.604
24013SOL     OW84100   7.678   6.411   1.380
24013SOL    HW184101   7.642   6.321   1.406
24013SOL    HW284102   7.639   6.481   1.440
24014SOL     OW84103   8.319   7.002   0.458
24014SOL    HW184104   8.369   6.990   0.373
24014SOL    HW284105   8.265   6.919   0.477
24015SOL     OW84106   7.446   6.466   1.785
24015SOL    HW184107   7.361   6.417   1.766
24015SOL    HW284108   7.473   6.453   1.880
24016SOL     OW84109   8.343   7.375   1.491
24016SOL    HW184110   8.315   7.288   1.532
24016SOL    HW284111   8.287   7.449   1.528
24017SOL     OW84112   7.846   5.993   1.785
24017SOL    HW184113   7.882   5.940   1.708
24017SOL    HW284114   7.907   6.070   1.803
24018SOL     OW84115   7.910   6.410   0.357
24018SOL    HW184116   7.860   6.475   0.301
24018SOL    HW284117   7.852   6.331   0.376
24019SOL     OW84118   8.991   6.441   1.055
24019SOL    HW184119   9.010   6.480   0.964
24019SOL    HW284120   8.945   6.510   1.111
24020SOL     OW84121   8.683   5.884   1.351
24020SOL    HW184122   8.754   5.856   1.415
24020SOL    HW284123   8.630   5.804   1.323
24021SOL     OW84124   7.384   5.583   0.552
24021SOL    HW184125   7.297   5.570   0.505
24021SOL    HW284126   7.392   5.678   0.582
24022SOL     OW84127   8.605   5.684   1.793
24022SOL    HW184128   8.664   5.700   1.873
24022SOL    HW284129   8.552   5.767   1.774
24023SOL     OW84130   7.821   7.103   1.618
24023SOL    HW184131   7.763   7.168   1.667
24023SOL    HW284132   7.883   7.153   1.558
24024SOL     OW84133   9.177   6.990   1.559
24024SOL    HW184134   9.205   7.083   1.581
24024SOL    HW284135   9.084   6.974   1.592
24025SOL     OW84136   7.831   7.049   0.681
24025SOL    HW184137   7.829   6.950   0.694
24025SOL    HW284138   7.740   7.082   0.658
24026SOL     OW84139   8.472   7.166   1.269
24026SOL    HW184140   8.398   7.230   1.287
24026SOL    HW284141   8.551   7.215   1.231
24027SOL     OW84142   7.681   7.296   1.768
24027SOL    HW184143   7.724   7.380   1.734
24027SOL    HW284144   7.706   7.283   1.864
24028SOL     OW84145   7.541   6.832   1.639
24028SOL    HW184146   7.520   6.737   1.612
24028SOL    HW284147   7.472   6.893   1.601
24029SOL     OW84148   7.630   7.197   1.043
24029SOL    HW184149   7.572   7.117   1.057
24029SOL    HW284150   7.654   7.204   0.946
24030SOL     OW84151   8.376   5.718   0.898
24030SOL    HW184152   8.472   5.719   0.926
24030SOL    HW284153   8.321   5.675   0.970
24031SOL     OW84154   8.438   6.724   0.414
24031SOL    HW184155   8.518   6.760   0.462
24031SOL    HW284156   8.396   6.651   0.470
24032SOL     OW84157   9.029   5.991   0.778
24032SOL    HW184158   9.048   6.077   0.825
24032SOL    HW284159   9.097   5.922   0.806
24033SOL     OW84160   8.243   5.639   0.116
24033SOL    HW184161   8.318   5.573   0.128
24033SOL    HW284162   8.274   5.730   0.144
24034SOL     OW84163   7.922   6.068   0.728
24034SOL    HW184164   7.960   5.979   0.754
24034SOL    HW284165   7.989   6.118   0.673
24035SOL     OW84166   7.910   6.626   1.382
24035SOL    HW184167   8.006   6.606   1.402
24035SOL    HW284168   7.899   6.724   1.364
24036SOL     OW84169   9.132   6.669   1.351
24036SOL    HW184170   9.146   6.767   1.365
24036SOL    HW284171   9.189   6.638   1.275
24037SOL     OW84172   8.042   7.217   0.203
24037SOL    HW184173   8.017   7.312   0.187
24037SOL    HW284174   8.009   7.189   0.293
24038SOL     OW84175   8.692   6.640   1.427
24038SOL    HW184176   8.636   6.599   1.498
24038SOL    HW284177   8.672   6.738   1.421
24039SOL     OW84178   7.959   7.256   1.427
24039SOL    HW184179   8.008   7.336   1.391
24039SOL    HW284180   7.867   7.254   1.388
24040SOL     OW84181   7.602   6.137   1.789
24040SOL    HW184182   7.619   6.038   1.794
24040SOL    HW284183   7.666   6.185   1.850
24041SOL     OW84184   7.946   6.269   1.527
24041SOL    HW184185   7.852   6.239   1.508
24041SOL    HW284186   7.955   6.366   1.504
24042SOL     OW84187   9.013   6.645   0.839
24042SOL    HW184188   8.975   6.734   0.812
24042SOL    HW284189   9.013   6.583   0.761
24043SOL     OW84190   8.171   6.051   1.008
24043SOL    HW184191   8.263   6.079   1.035
24043SOL    HW284192   8.103   6.102   1.062
24044SOL     OW84193   8.024   6.902   1.235
24044SOL    HW184194   7.937   6.901   1.186
24044SOL    HW284195   8.090   6.842   1.188
24045SOL     OW84196   7.590   6.244   1.149
24045SOL    HW184197   7.628   6.303   1.220
24045SOL    HW284198   7.573   6.297   1.067
24046SOL     OW84199   7.761   6.890   1.447
24046SOL    HW184200   7.780   6.978   1.491
24046SOL    HW284201   7.666   6.864   1.465
24047SOL     OW84202   9.004   7.206   1.795
24047SOL    HW184203   8.973   7.128   1.740
24047SOL    HW284204   8.973   7.291   1.753
24048SOL     OW84205   8.712   6.744   0.516
24048SOL    HW184206   8.811   6.748   0.532
24048SOL    HW284207   8.695   6.730   0.418
24049SOL     OW84208   8.065   5.910   0.464
24049SOL    HW184209   7.967   5.904   0.444
24049SOL    HW284210   8.084   5.867   0.552
24050SOL     OW84211   8.985   5.593   0.723
24050SOL    HW184212   8.980   5.634   0.632
24050SOL    HW284213   9.066   5.627   0.770
24051SOL     OW84214   8.588   6.349   1.416
24051SOL    HW184215   8.687   6.358   1.406
24051SOL    HW284216   8.544   6.351   1.326
24052SOL     OW84217   8.082   6.309   0.818
24052SOL    HW184218   8.104   6.231   0.876
24052SOL    HW284219   8.091   6.283   0.722
24053SOL     OW84220   8.747   7.016   1.030
24053SOL    HW184221   8.661   6.973   1.059
24053SOL    HW284222   8.736   7.056   0.939
24054SOL     OW84223   8.750   6.001   0.705
24054SOL    HW184224   8.749   5.993   0.606
24054SOL    HW284225   8.839   5.973   0.740
24055SOL     OW84226   8.477   7.017   2.537
24055SOL    HW184227   8.568   7.051   2.560
24055SOL    HW284228   8.449   7.055   2.449
24056SOL     OW84229   8.988   6.813   2.395
24056SOL    HW184230   8.999   6.897   2.449
24056SOL    HW284231   9.078   6.776   2.372
24057SOL     OW84232   9.068   6.095   3.259
24057SOL    HW184233   8.970   6.087   3.281
24057SOL    HW284234   9.121   6.084   3.343
24058SOL     OW84235   7.735   5.732   1.864
24058SOL    HW184236   7.648   5.729   1.815
24058SOL    HW284237   7.786   5.814   1.836
24059SOL     OW84238   8.722   7.121   2.639
24059SOL    HW184239   8.711   7.218   2.662
24059SOL    HW284240   8.815   7.104   2.609
24060SOL     OW84241   8.600   5.632   3.197
24060SOL    HW184242   8.524   5.587   3.244
24060SOL    HW284243   8.629   5.577   3.119
24061SOL     OW84244   8.338   6.412   3.574
24061SOL    HW184245   8.303   6.387   3.484
24061SOL    HW284246   8.262   6.433   3.635
24062SOL     OW84247   7.945   7.086   2.268
24062SOL    HW184248   7.901   7.095   2.357
24062SOL    HW284249   8.016   7.016   2.272
24063SOL     OW84250   7.963   5.619   1.990
24063SOL    HW184251   8.051   5.647   1.951
24063SOL    HW284252   7.891   5.682   1.960
24064SOL     OW84253   8.933   6.604   3.373
24064SOL    HW184254   8.841   6.609   3.335
24064SOL    HW284255   8.998   6.642   3.307
24065SOL     OW84256   8.833   6.611   3.054
24065SOL    HW184257   8.758   6.600   3.119
24065SOL    HW284258   8.870   6.704   3.060
24066SOL     OW84259   8.329   6.866   3.354
24066SOL    HW184260   8.272   6.929   3.300
24066SOL    HW284261   8.362   6.792   3.295
24067SOL     OW84262   7.872   6.759   2.563
24067SOL    HW184263   7.805   6.713   2.622
24067SOL    HW284264   7.964   6.727   2.586
24068SOL     OW84265   8.099   6.165   2.394
24068SOL    HW184266   8.138   6.235   2.335
24068SOL    HW284267   8.073   6.085   2.340
24069SOL     OW84268   8.719   6.073   3.603
24069SOL    HW184269   8.815   6.077   3.629
24069SOL    HW284270   8.675   5.997   3.650
24070SOL     OW84271   7.802   6.928   2.047
24070SOL    HW184272   7.866   6.944   1.972
24070SOL    HW284273   7.826   6.986   2.125
24071SOL     OW84274   7.650   6.310   2.275
24071SOL    HW184275   7.665   6.244   2.349
24071SOL    HW284276   7.600   6.389   2.310
24072SOL     OW84277   8.236   7.255   2.452
24072SOL    HW184278   8.301   7.188   2.416
24072SOL    HW284279   8.226   7.331   2.388
24073SOL     OW84280   9.128   7.137   2.194
24073SOL    HW184281   9.224   7.111   2.187
24073SOL    HW284282   9.104   7.197   2.118
24074SOL     OW84283   9.040   5.830   2.965
24074SOL    HW184284   9.091   5.902   2.918
24074SOL    HW284285   8.945   5.857   2.974
24075SOL     OW84286   8.440   5.859   2.234
24075SOL    HW184287   8.465   5.953   2.255
24075SOL    HW284288   8.441   5.805   2.318
24076SOL     OW84289   7.564   6.572   3.419
24076SOL    HW184290   7.660   6.587   3.437
24076SOL    HW284291   7.526   6.510   3.488
24077SOL     OW84292   7.890   6.217   1.962
24077SOL    HW184293   7.850   6.296   1.915
24077SOL    HW284294   7.979   6.196   1.922
24078SOL     OW84295   8.063   7.141   2.660
24078SOL    HW184296   8.136   7.164   2.596
24078SOL    HW284297   7.992   7.088   2.614
24079SOL     OW84298   8.405   6.173   3.414
24079SOL    HW184299   8.438   6.090   3.461
24079SOL    HW284300   8.478   6.241   3.413
24080SOL     OW84301   9.009   6.973   2.636
24080SOL    HW184302   9.005   7.008   2.729
24080SOL    HW284303   9.068   7.032   2.580
24081SOL     OW84304   7.740   6.794   2.312
24081SOL    HW184305   7.786   6.768   2.397
24081SOL    HW284306   7.760   6.726   2.241
24082SOL     OW84307   8.598   5.849   2.023
24082SOL    HW184308   8.692   5.819   2.041
24082SOL    HW284309   8.546   5.849   2.109
24083SOL     OW84310   7.750   6.054   3.118
24083SOL    HW184311   7.740   5.967   3.070
24083SOL    HW284312   7.686   6.121   3.081
24084SOL     OW84313   8.832   6.334   3.156
24084SOL    HW184314   8.836   6.428   3.121
24084SOL    HW284315   8.925   6.303   3.178
24085SOL     OW84316   7.785   5.826   2.277
24085SOL    HW184317   7.739   5.866   2.356
24085SOL    HW284318   7.733   5.845   2.195
24086SOL     OW84319   8.913   7.353   3.189
24086SOL    HW184320   8.856   7.304   3.123
24086SOL    HW284321   8.999   7.380   3.146
24087SOL     OW84322   9.208   6.071   3.044
24087SOL    HW184323   9.265   6.153   3.046
24087SOL    HW284324   9.149   6.070   3.124
24088SOL     OW84325   9.225   7.297   2.957
24088SOL    HW184326   9.271   7.307   3.045
24088SOL    HW284327   9.292   7.300   2.884
24089SOL     OW84328   8.338   6.037   2.519
24089SOL    HW184329   8.414   6.065   2.578
24089SOL    HW284330   8.294   6.117   2.480
24090SOL     OW84331   8.573   6.501   2.036
24090SOL    HW184332   8.610   6.451   2.114
24090SOL    HW284333   8.503   6.446   1.991
24091SOL     OW84334   8.415   5.923   3.657
24091SOL    HW184335   8.478   5.928   3.734
24091SOL    HW284336   8.323   5.901   3.690
24092SOL     OW84337   9.156   6.170   2.115
24092SOL    HW184338   9.177   6.089   2.061
24092SOL    HW284339   9.173   6.151   2.212
24093SOL     OW84340   8.450   7.308   2.023
24093SOL    HW184341   8.484   7.221   1.988
24093SOL    HW284342   8.418   7.296   2.117
24094SOL     OW84343   8.131   5.575   3.555
24094SOL    HW184344   8.138   5.481   3.522
24094SOL    HW284345   8.188   5.585   3.637
24095SOL     OW84346   9.054   6.176   2.823
24095SOL    HW184347   9.039   6.267   2.860
24095SOL    HW284348   9.124   6.129   2.877
24096SOL     OW84349   8.464   6.842   3.589
24096SOL    HW184350   8.486   6.752   3.551
24096SOL    HW284351   8.399   6.889   3.530
24097SOL     OW84352   8.119   6.684   3.593
24097SOL    HW184353   8.090   6.761   3.650
24097SOL    HW284354   8.129   6.603   3.651
24098SOL     OW84355   8.754   5.548   2.699
24098SOL    HW184356   8.703   5.632   2.681
24098SOL    HW284357   8.840   5.550   2.648
24099SOL     OW84358   9.109   5.754   3.628
24099SOL    HW184359   9.086   5.775   3.723
24099SOL    HW284360   9.085   5.659   3.608
24100SOL     OW84361   7.412   6.158   2.372
24100SOL    HW184362   7.414   6.109   2.459
24100SOL    HW284363   7.414   6.257   2.390
24101SOL     OW84364   7.717   5.794   3.027
24101SOL    HW184365   7.682   5.701   3.027
24101SOL    HW284366   7.804   5.797   2.978
24102SOL     OW84367   8.384   6.416   2.767
24102SOL    HW184368   8.410   6.496   2.713
24102SOL    HW284369   8.378   6.336   2.707
24103SOL     OW84370   7.585   7.043   2.226
24103SOL    HW184371   7.612   6.949   2.246
24103SOL    HW284372   7.610   7.065   2.132
24104SOL     OW84373   8.867   6.912   3.100
24104SOL    HW184374   8.838   6.949   3.011
24104SOL    HW284375   8.789   6.912   3.162
24105SOL     OW84376   7.599   7.186   2.463
24105SOL    HW184377   7.515   7.237   2.481
24105SOL    HW284378   7.590   7.135   2.378
24106SOL     OW84379   9.120   6.983   3.138
24106SOL    HW184380   9.151   6.997   3.232
24106SOL    HW284381   9.021   6.970   3.137
24107SOL     OW84382   7.872   6.483   1.865
24107SOL    HW184383   7.841   6.517   1.777
24107SOL    HW284384   7.876   6.558   1.931
24108SOL     OW84385   8.389   6.670   3.164
24108SOL    HW184386   8.439   6.585   3.148
24108SOL    HW284387   8.343   6.697   3.079
24109SOL     OW84388   7.476   6.375   2.038
24109SOL    HW184389   7.536   6.322   2.098
24109SOL    HW284390   7.382   6.343   2.050
24110SOL     OW84391   8.996   6.373   2.238
24110SOL    HW184392   9.064   6.307   2.205
24110SOL    HW284393   9.011   6.461   2.194
24111SOL     OW84394   8.244   7.360   2.886
24111SOL    HW184395   8.290   7.293   2.828
24111SOL    HW284396   8.170   7.316   2.936
24112SOL     OW84397   8.151   6.429   1.922
24112SOL    HW184398   8.180   6.348   1.973
24112SOL    HW284399   8.051   6.428   1.913
24113SOL     OW84400   8.747   5.961   2.268
24113SOL    HW184401   8.684   6.019   2.216
24113SOL    HW284402   8.840   5.995   2.256
24114SOL     OW84403   7.644   6.162   3.368
24114SOL    HW184404   7.664   6.067   3.343
24114SOL    HW284405   7.607   6.165   3.461
24115SOL     OW84406   7.526   5.817   3.258
24115SOL    HW184407   7.598   5.827   3.189
24115SOL    HW284408   7.437   5.816   3.213
24116SOL     OW84409   8.424   6.438   3.023
24116SOL    HW184410   8.418   6.424   2.924
24116SOL    HW284411   8.343   6.399   3.067
24117SOL     OW84412   9.015   5.972   2.338
24117SOL    HW184413   9.111   5.943   2.335
24117SOL    HW284414   8.976   5.950   2.427
24118SOL     OW84415   8.299   7.047   2.775
24118SOL    HW184416   8.357   7.058   2.694
24118SOL    HW284417   8.205   7.071   2.753
24119SOL     OW84418   8.249   5.913   2.060
24119SOL    HW184419   8.158   5.926   2.098
24119SOL    HW284420   8.309   5.873   2.130
24120SOL     OW84421   8.360   6.858   1.995
24120SOL    HW184422   8.413   6.798   2.055
24120SOL    HW284423   8.399   6.859   1.904
24121SOL     OW84424   9.111   7.153   2.480
24121SOL    HW184425   9.078   7.246   2.499
24121SOL    HW284426   9.109   7.137   2.381
24122SOL     OW84427   8.526   6.426   2.469
24122SOL    HW184428   8.591   6.454   2.540
24122SOL    HW284429   8.447   6.487   2.471
24123SOL     OW84430   8.274   7.152   3.493
24123SOL    HW184431   8.262   7.083   3.422
24123SOL    HW284432   8.237   7.117   3.580
24124SOL     OW84433   8.718   6.466   2.672
24124SOL    HW184434   8.739   6.408   2.750
24124SOL    HW284435   8.727   6.562   2.698
24125SOL     OW84436   7.674   6.595   2.718
24125SOL    HW184437   7.597   6.657   2.711
24125SOL    HW284438   7.711   6.596   2.811
24126SOL     OW84439   8.307   6.543   2.417
24126SOL    HW184440   8.294   6.454   2.374
24126SOL    HW284441   8.238   6.557   2.488
24127SOL     OW84442   8.611   6.931   3.256
24127SOL    HW184443   8.644   7.016   3.297
24127SOL    HW284444   8.512   6.927   3.263
24128SOL     OW84445   9.041   7.346   2.011
24128SOL    HW184446   9.131   7.390   2.013
24128SOL    HW284447   9.040   7.277   1.939
24129SOL     OW84448   8.205   6.313   3.169
24129SOL    HW184449   8.207   6.399   3.220
24129SOL    HW284450   8.262   6.245   3.216
24130SOL     OW84451   8.223   6.359   2.234
24130SOL    HW184452   8.134   6.387   2.199
24130SOL    HW284453   8.264   6.293   2.170
24131SOL     OW84454   7.745   6.077   2.773
24131SOL    HW184455   7.801   6.070   2.690
24131SOL    HW284456   7.802   6.055   2.853
24132SOL     OW84457   7.742   7.275   2.044
24132SOL    HW184458   7.834   7.305   2.019
24132SOL    HW284459   7.717   7.314   2.133
24133SOL     OW84460   8.718   7.297   2.981
24133SOL    HW184461   8.737   7.360   2.907
24133SOL    HW284462   8.726   7.203   2.948
24134SOL     OW84463   7.423   6.692   2.793
24134SOL    HW184464   7.333   6.708   2.754
24134SOL    HW284465   7.421   6.608   2.848
24135SOL     OW84466   8.174   5.597   2.243
24135SOL    HW184467   8.135   5.586   2.152
24135SOL    HW284468   8.130   5.673   2.290
24136SOL     OW84469   7.419   6.733   2.337
24136SOL    HW184470   7.497   6.791   2.361
24136SOL    HW284471   7.438   6.684   2.252
24137SOL     OW84472   8.949   5.861   3.421
24137SOL    HW184473   8.888   5.939   3.418
24137SOL    HW284474   9.004   5.865   3.504
24138SOL     OW84475   8.665   5.807   2.712
24138SOL    HW184476   8.664   5.885   2.649
24138SOL    HW284477   8.708   5.834   2.798
24139SOL     OW84478   8.785   5.613   2.008
24139SOL    HW184479   8.865   5.553   2.005
24139SOL    HW284480   8.711   5.566   2.056
24140SOL     OW84481   8.998   5.585   3.442
24140SOL    HW184482   9.024   5.542   3.356
24140SOL    HW284483   8.948   5.669   3.424
24141SOL     OW84484   8.680   6.195   2.966
24141SOL    HW184485   8.734   6.235   2.892
24141SOL    HW284486   8.718   6.224   3.054
24142SOL     OW84487   8.973   5.601   2.282
24142SOL    HW184488   8.980   5.555   2.194
24142SOL    HW284489   8.877   5.611   2.307
24143SOL     OW84490   7.949   6.916   3.645
24143SOL    HW184491   7.910   6.979   3.578
24143SOL    HW284492   8.032   6.956   3.685
24144SOL     OW84493   7.825   6.648   3.477
24144SOL    HW184494   7.844   6.672   3.382
24144SOL    HW284495   7.818   6.731   3.532
24145SOL     OW84496   7.486   6.938   2.951
24145SOL    HW184497   7.455   6.864   2.892
24145SOL    HW284498   7.418   6.956   3.022
24146SOL     OW84499   8.572   6.139   2.684
24146SOL    HW184500   8.654   6.116   2.632
24146SOL    HW284501   8.567   6.080   2.765
24147SOL     OW84502   9.172   6.166   3.520
24147SOL    HW184503   9.161   6.252   3.469
24147SOL    HW284504   9.266   6.157   3.550
24148SOL     OW84505   8.743   5.939   2.939
24148SOL    HW184506   8.717   6.036   2.945
24148SOL    HW284507   8.743   5.899   3.031
24149SOL     OW84508   8.973   6.071   3.690
24149SOL    HW184509   9.053   6.096   3.634
24149SOL    HW284510   9.004   6.036   3.778
24150SOL     OW84511   8.684   6.374   2.270
24150SOL    HW184512   8.630   6.372   2.354
24150SOL    HW284513   8.761   6.437   2.281
24151SOL     OW84514   8.981   6.470   2.490
24151SOL    HW184515   8.995   6.433   2.397
24151SOL    HW284516   8.892   6.440   2.524
24152SOL     OW84517   9.137   6.407   3.385
24152SOL    HW184518   9.039   6.428   3.387
24152SOL    HW284519   9.186   6.483   3.344
24153SOL     OW84520   8.991   5.827   2.064
24153SOL    HW184521   8.996   5.869   2.155
24153SOL    HW284522   8.924   5.752   2.066
24154SOL     OW84523   8.138   7.042   3.284
24154SOL    HW184524   8.075   7.120   3.291
24154SOL    HW284525   8.106   6.980   3.212
24155SOL     OW84526   7.529   5.837   3.549
24155SOL    HW184527   7.547   5.826   3.451
24155SOL    HW284528   7.431   5.833   3.566
24156SOL     OW84529   8.749   7.139   3.380
24156SOL    HW184530   8.702   7.207   3.435
24156SOL    HW284531   8.816   7.185   3.321
24157SOL     OW84532   7.714   6.098   2.115
24157SOL    HW184533   7.786   6.127   2.052
24157SOL    HW284534   7.670   6.178   2.155
24158SOL     OW84535   9.100   5.760   3.218
24158SOL    HW184536   9.056   5.808   3.294
24158SOL    HW284537   9.078   5.806   3.132
24159SOL     OW84538   7.829   7.361   2.581
24159SOL    HW184539   7.753   7.327   2.526
24159SOL    HW284540   7.915   7.324   2.546
24160SOL     OW84541   7.754   6.870   3.026
24160SOL    HW184542   7.766   6.886   3.123
24160SOL    HW284543   7.667   6.910   2.996
24161SOL     OW84544   8.638   7.074   3.672
24161SOL    HW184545   8.597   6.989   3.638
24161SOL    HW284546   8.618   7.148   3.608
24162SOL     OW84547   8.128   6.794   2.362
24162SOL    HW184548   8.171   6.725   2.304
24162SOL    HW284549   8.092   6.751   2.445
24163SOL     OW84550   7.760   6.345   2.564
24163SOL    HW184551   7.752   6.443   2.582
24163SOL    HW284552   7.844   6.311   2.605
24164SOL     OW84553   7.606   5.825   2.079
24164SOL    HW184554   7.650   5.794   1.996
24164SOL    HW284555   7.607   5.925   2.083
24165SOL     OW84556   7.459   6.077   2.690
24165SOL    HW184557   7.423   6.170   2.682
24165SOL    HW284558   7.542   6.078   2.746
24166SOL     OW84559   7.894   6.664   2.076
24166SOL    HW184560   7.994   6.664   2.087
24166SOL    HW284561   7.863   6.757   2.055
24167SOL     OW84562   8.520   6.256   1.892
24167SOL    HW184563   8.451   6.313   1.848
24167SOL    HW284564   8.601   6.250   1.833
24168SOL     OW84565   8.255   6.175   2.035
24168SOL    HW184566   8.345   6.176   1.990
24168SOL    HW284567   8.232   6.081   2.060
24169SOL     OW84568   8.706   5.692   2.329
24169SOL    HW184569   8.616   5.676   2.370
24169SOL    HW284570   8.714   5.788   2.303
24170SOL     OW84571   8.820   6.092   3.345
24170SOL    HW184572   8.772   6.115   3.429
24170SOL    HW284573   8.754   6.062   3.276
24171SOL     OW84574   7.455   5.607   1.989
24171SOL    HW184575   7.518   5.530   1.997
24171SOL    HW284576   7.475   5.675   2.060
24172SOL     OW84577   7.728   6.582   2.990
24172SOL    HW184578   7.739   6.537   3.079
24172SOL    HW284579   7.755   6.678   2.997
24173SOL     OW84580   9.027   6.594   2.090
24173SOL    HW184581   9.098   6.664   2.092
24173SOL    HW284582   9.014   6.564   1.995
24174SOL     OW84583   8.009   6.195   3.012
24174SOL    HW184584   8.084   6.238   3.061
24174SOL    HW284585   7.942   6.160   3.078
24175SOL     OW84586   8.152   6.564   3.329
24175SOL    HW184587   8.221   6.616   3.279
24175SOL    HW284588   8.147   6.597   3.424
24176SOL     OW84589   8.544   6.585   3.489
24176SOL    HW184590   8.466   6.531   3.522
24176SOL    HW284591   8.625   6.563   3.544
24177SOL     OW84592   8.473   5.767   2.485
24177SOL    HW184593   8.532   5.827   2.540
24177SOL    HW284594   8.400   5.731   2.542
24178SOL     OW84595   8.583   7.299   3.525
24178SOL    HW184596   8.488   7.297   3.493
24178SOL    HW284597   8.604   7.390   3.562
24179SOL     OW84598   8.394   6.773   2.668
24179SOL    HW184599   8.433   6.816   2.587
24179SOL    HW284600   8.467   6.756   2.735
24180SOL     OW84601   8.088   6.501   2.870
24180SOL    HW184602   8.086   6.417   2.815
24180SOL    HW284603   8.037   6.487   2.955
24181SOL     OW84604   7.427   6.511   2.996
24181SOL    HW184605   7.516   6.489   3.036
24181SOL    HW284606   7.372   6.427   2.992
24182SOL     OW84607   7.655   5.556   2.276
24182SOL    HW184608   7.693   5.644   2.303
24182SOL    HW284609   7.578   5.532   2.336
24183SOL     OW84610   8.071   6.173   3.604
24183SOL    HW184611   8.023   6.224   3.533
24183SOL    HW284612   8.164   6.152   3.574
24184SOL     OW84613   7.477   6.643   2.096
24184SOL    HW184614   7.467   6.546   2.075
24184SOL    HW284615   7.530   6.688   2.024
24185SOL     OW84616   9.174   5.755   2.697
24185SOL    HW184617   9.129   5.737   2.784
24185SOL    HW284618   9.272   5.772   2.713
24186SOL     OW84619   8.222   6.731   2.949
24186SOL    HW184620   8.173   6.646   2.930
24186SOL    HW284621   8.292   6.746   2.880
24187SOL     OW84622   8.560   6.154   2.158
24187SOL    HW184623   8.612   6.226   2.204
24187SOL    HW284624   8.573   6.161   2.060
24188SOL     OW84625   8.921   6.969   3.485
24188SOL    HW184626   8.906   6.871   3.499
24188SOL    HW284627   8.838   7.011   3.449
24189SOL     OW84628   7.678   6.411   3.225
24189SOL    HW184629   7.642   6.321   3.251
24189SOL    HW284630   7.639   6.481   3.285
24190SOL     OW84631   8.180   7.037   1.883
24190SOL    HW184632   8.155   7.114   1.942
24190SOL    HW284633   8.244   6.977   1.931
24191SOL     OW84634   7.998   7.244   2.917
24191SOL    HW184635   8.018   7.214   2.824
24191SOL    HW284636   7.923   7.189   2.954
24192SOL     OW84637   8.141   6.655   2.634
24192SOL    HW184638   8.230   6.701   2.634
24192SOL    HW284639   8.134   6.595   2.713
24193SOL     OW84640   8.319   7.002   2.303
24193SOL    HW184641   8.369   6.990   2.218
24193SOL    HW284642   8.265   6.919   2.322
24194SOL     OW84643   7.509   6.349   2.703
24194SOL    HW184644   7.604   6.340   2.671
24194SOL    HW284645   7.475   6.441   2.682
24195SOL     OW84646   7.446   6.466   3.630
24195SOL    HW184647   7.361   6.417   3.611
24195SOL    HW284648   7.473   6.453   3.725
24196SOL     OW84649   8.343   7.375   3.336
24196SOL    HW184650   8.315   7.288   3.377
24196SOL    HW284651   8.287   7.449   3.373
24197SOL     OW84652   8.572   6.722   2.866
24197SOL    HW184653   8.556   6.816   2.897
24197SOL    HW284654   8.575   6.661   2.946
24198SOL     OW84655   7.846   5.993   3.630
24198SOL    HW184656   7.882   5.940   3.553
24198SOL    HW284657   7.907   6.070   3.648
24199SOL     OW84658   7.910   6.410   2.202
24199SOL    HW184659   7.860   6.475   2.146
24199SOL    HW284660   7.852   6.331   2.221
24200SOL     OW84661   8.991   6.441   2.900
24200SOL    HW184662   9.010   6.480   2.809
24200SOL    HW284663   8.945   6.510   2.956
24201SOL     OW84664   8.683   5.884   3.196
24201SOL    HW184665   8.754   5.856   3.260
24201SOL    HW284666   8.630   5.804   3.168
24202SOL     OW84667   8.605   5.684   3.638
24202SOL    HW184668   8.664   5.700   3.718
24202SOL    HW284669   8.552   5.767   3.619
24203SOL     OW84670   9.177   6.990   3.404
24203SOL    HW184671   9.205   7.083   3.426
24203SOL    HW284672   9.084   6.974   3.437
24204SOL     OW84673   8.427   6.103   2.954
24204SOL    HW184674   8.513   6.154   2.953
24204SOL    HW284675   8.433   6.029   3.021
24205SOL     OW84676   7.831   7.049   2.526
24205SOL    HW184677   7.829   6.950   2.539
24205SOL    HW284678   7.740   7.082   2.503
24206SOL     OW84679   8.472   7.166   3.114
24206SOL    HW184680   8.398   7.230   3.132
24206SOL    HW284681   8.551   7.215   3.076
24207SOL     OW84682   7.541   6.832   3.484
24207SOL    HW184683   7.520   6.737   3.457
24207SOL    HW284684   7.472   6.893   3.446
24208SOL     OW84685   8.438   6.724   2.259
24208SOL    HW184686   8.518   6.760   2.307
24208SOL    HW284687   8.396   6.651   2.315
24209SOL     OW84688   9.029   5.991   2.623
24209SOL    HW184689   9.048   6.077   2.670
24209SOL    HW284690   9.097   5.922   2.651
24210SOL     OW84691   8.172   6.663   2.109
24210SOL    HW184692   8.244   6.722   2.074
24210SOL    HW284693   8.212   6.579   2.145
24211SOL     OW84694   8.243   5.639   1.961
24211SOL    HW184695   8.318   5.573   1.973
24211SOL    HW284696   8.274   5.730   1.989
24212SOL     OW84697   7.922   6.068   2.573
24212SOL    HW184698   7.960   5.979   2.599
24212SOL    HW284699   7.989   6.118   2.518
24213SOL     OW84700   7.910   6.626   3.227
24213SOL    HW184701   8.006   6.606   3.247
24213SOL    HW284702   7.899   6.724   3.209
24214SOL     OW84703   9.132   6.669   3.196
24214SOL    HW184704   9.146   6.767   3.210
24214SOL    HW284705   9.189   6.638   3.120
24215SOL     OW84706   7.615   6.778   1.888
24215SOL    HW184707   7.607   6.790   1.789
24215SOL    HW284708   7.674   6.849   1.926
24216SOL     OW84709   8.042   7.217   2.048
24216SOL    HW184710   8.017   7.312   2.032
24216SOL    HW284711   8.009   7.189   2.138
24217SOL     OW84712   8.692   6.640   3.272
24217SOL    HW184713   8.636   6.599   3.343
24217SOL    HW284714   8.672   6.738   3.266
24218SOL     OW84715   7.959   7.256   3.272
24218SOL    HW184716   8.008   7.336   3.236
24218SOL    HW284717   7.867   7.254   3.233
24219SOL     OW84718   7.602   6.137   3.634
24219SOL    HW184719   7.619   6.038   3.639
24219SOL    HW284720   7.666   6.185   3.695
24220SOL     OW84721   9.041   7.098   2.873
24220SOL    HW184722   9.013   7.191   2.897
24220SOL    HW284723   9.091   7.057   2.949
24221SOL     OW84724   7.437   6.471   2.434
24221SOL    HW184725   7.444   6.570   2.421
24221SOL    HW284726   7.346   6.448   2.468
24222SOL     OW84727   7.946   6.269   3.372
24222SOL    HW184728   7.852   6.239   3.353
24222SOL    HW284729   7.955   6.366   3.349
24223SOL     OW84730   9.013   6.645   2.684
24223SOL    HW184731   8.975   6.734   2.657
24223SOL    HW284732   9.013   6.583   2.606
24224SOL     OW84733   8.171   6.051   2.853
24224SOL    HW184734   8.263   6.079   2.880
24224SOL    HW284735   8.103   6.102   2.907
24225SOL     OW84736   8.024   6.902   3.080
24225SOL    HW184737   7.937   6.901   3.031
24225SOL    HW284738   8.090   6.842   3.033
24226SOL     OW84739   7.590   6.244   2.994
24226SOL    HW184740   7.628   6.303   3.065
24226SOL    HW284741   7.573   6.297   2.912
24227SOL     OW84742   7.761   6.890   3.292
24227SOL    HW184743   7.780   6.978   3.336
24227SOL    HW284744   7.666   6.864   3.310
24228SOL     OW84745   9.004   7.206   3.640
24228SOL    HW184746   8.973   7.128   3.585
24228SOL    HW284747   8.973   7.291   3.598
24229SOL     OW84748   8.712   6.744   2.361
24229SOL    HW184749   8.811   6.748   2.377
24229SOL    HW284750   8.695   6.730   2.263
24230SOL     OW84751   8.065   5.910   2.309
24230SOL    HW184752   7.967   5.904   2.289
24230SOL    HW284753   8.084   5.867   2.397
24231SOL     OW84754   8.985   5.593   2.568
24231SOL    HW184755   8.980   5.634   2.477
24231SOL    HW284756   9.066   5.627   2.615
24232SOL     OW84757   8.588   6.349   3.261
24232SOL    HW184758   8.687   6.358   3.251
24232SOL    HW284759   8.544   6.351   3.171
24233SOL     OW84760   8.082   6.309   2.663
24233SOL    HW184761   8.104   6.231   2.721
24233SOL    HW284762   8.091   6.283   2.567
24234SOL     OW84763   8.747   7.016   2.875
24234SOL    HW184764   8.661   6.973   2.904
24234SOL    HW284765   8.736   7.056   2.784
24235SOL     OW84766   8.750   6.001   2.550
24235SOL    HW184767   8.749   5.993   2.451
24235SOL    HW284768   8.839   5.973   2.585
24236SOL     OW84769   8.477   7.017   4.383
24236SOL    HW184770   8.568   7.051   4.406
24236SOL    HW284771   8.449   7.055   4.295
24237SOL     OW84772   8.988   6.813   4.241
24237SOL    HW184773   8.999   6.897   4.295
24237SOL    HW284774   9.078   6.776   4.218
24238SOL     OW84775   9.068   6.095   5.105
24238SOL    HW184776   8.970   6.087   5.127
24238SOL    HW284777   9.121   6.084   5.189
24239SOL     OW84778   7.735   5.732   3.710
24239SOL    HW184779   7.648   5.729   3.661
24239SOL    HW284780   7.786   5.814   3.682
24240SOL     OW84781   8.722   7.121   4.485
24240SOL    HW184782   8.711   7.218   4.508
24240SOL    HW284783   8.815   7.104   4.455
24241SOL     OW84784   8.600   5.632   5.043
24241SOL    HW184785   8.524   5.587   5.090
24241SOL    HW284786   8.629   5.577   4.965
24242SOL     OW84787   8.338   6.412   5.420
24242SOL    HW184788   8.303   6.387   5.330
24242SOL    HW284789   8.262   6.433   5.481
24243SOL     OW84790   7.945   7.086   4.114
24243SOL    HW184791   7.901   7.095   4.203
24243SOL    HW284792   8.016   7.016   4.118
24244SOL     OW84793   7.963   5.619   3.836
24244SOL    HW184794   8.051   5.647   3.797
24244SOL    HW284795   7.891   5.682   3.806
24245SOL     OW84796   8.933   6.604   5.219
24245SOL    HW184797   8.841   6.609   5.181
24245SOL    HW284798   8.998   6.642   5.153
24246SOL     OW84799   8.833   6.611   4.900
24246SOL    HW184800   8.758   6.600   4.965
24246SOL    HW284801   8.870   6.704   4.906
24247SOL     OW84802   8.329   6.866   5.200
24247SOL    HW184803   8.272   6.929   5.146
24247SOL    HW284804   8.362   6.792   5.141
24248SOL     OW84805   7.872   6.759   4.409
24248SOL    HW184806   7.805   6.713   4.468
24248SOL    HW284807   7.964   6.727   4.432
24249SOL     OW84808   8.099   6.165   4.240
24249SOL    HW184809   8.138   6.235   4.181
24249SOL    HW284810   8.073   6.085   4.186
24250SOL     OW84811   8.719   6.073   5.449
24250SOL    HW184812   8.815   6.077   5.475
24250SOL    HW284813   8.675   5.997   5.496
24251SOL     OW84814   7.802   6.928   3.893
24251SOL    HW184815   7.866   6.944   3.818
24251SOL    HW284816   7.826   6.986   3.971
24252SOL     OW84817   7.953   5.884   4.703
24252SOL    HW184818   8.029   5.949   4.699
24252SOL    HW284819   7.983   5.795   4.670
24253SOL     OW84820   7.650   6.310   4.121
24253SOL    HW184821   7.665   6.244   4.195
24253SOL    HW284822   7.600   6.389   4.156
24254SOL     OW84823   8.236   7.255   4.298
24254SOL    HW184824   8.301   7.188   4.262
24254SOL    HW284825   8.226   7.331   4.234
24255SOL     OW84826   9.128   7.137   4.040
24255SOL    HW184827   9.224   7.111   4.033
24255SOL    HW284828   9.104   7.197   3.964
24256SOL     OW84829   9.040   5.830   4.811
24256SOL    HW184830   9.091   5.902   4.764
24256SOL    HW284831   8.945   5.857   4.820
24257SOL     OW84832   8.440   5.859   4.080
24257SOL    HW184833   8.465   5.953   4.101
24257SOL    HW284834   8.441   5.805   4.164
24258SOL     OW84835   7.564   6.572   5.265
24258SOL    HW184836   7.660   6.587   5.283
24258SOL    HW284837   7.526   6.510   5.334
24259SOL     OW84838   7.890   6.217   3.808
24259SOL    HW184839   7.850   6.296   3.761
24259SOL    HW284840   7.979   6.196   3.768
24260SOL     OW84841   8.063   7.141   4.506
24260SOL    HW184842   8.136   7.164   4.442
24260SOL    HW284843   7.992   7.088   4.460
24261SOL     OW84844   8.405   6.173   5.260
24261SOL    HW184845   8.438   6.090   5.307
24261SOL    HW284846   8.478   6.241   5.259
24262SOL     OW84847   9.009   6.973   4.482
24262SOL    HW184848   9.005   7.008   4.575
24262SOL    HW284849   9.068   7.032   4.426
24263SOL     OW84850   7.740   6.794   4.158
24263SOL    HW184851   7.786   6.768   4.243
24263SOL    HW284852   7.760   6.726   4.087
24264SOL     OW84853   8.598   5.849   3.869
24264SOL    HW184854   8.692   5.819   3.887
24264SOL    HW284855   8.546   5.849   3.955
24265SOL     OW84856   7.750   6.054   4.964
24265SOL    HW184857   7.740   5.967   4.916
24265SOL    HW284858   7.686   6.121   4.927
24266SOL     OW84859   8.832   6.334   5.002
24266SOL    HW184860   8.836   6.428   4.967
24266SOL    HW284861   8.925   6.303   5.024
24267SOL     OW84862   7.785   5.826   4.123
24267SOL    HW184863   7.739   5.866   4.202
24267SOL    HW284864   7.733   5.845   4.041
24268SOL     OW84865   8.913   7.353   5.035
24268SOL    HW184866   8.856   7.304   4.969
24268SOL    HW284867   8.999   7.380   4.992
24269SOL     OW84868   9.208   6.071   4.890
24269SOL    HW184869   9.265   6.153   4.892
24269SOL    HW284870   9.149   6.070   4.970
24270SOL     OW84871   9.225   7.297   4.803
24270SOL    HW184872   9.271   7.307   4.891
24270SOL    HW284873   9.292   7.300   4.730
24271SOL     OW84874   8.338   6.037   4.365
24271SOL    HW184875   8.414   6.065   4.424
24271SOL    HW284876   8.294   6.117   4.326
24272SOL     OW84877   8.573   6.501   3.882
24272SOL    HW184878   8.610   6.451   3.960
24272SOL    HW284879   8.503   6.446   3.837
24273SOL     OW84880   8.415   5.923   5.503
24273SOL    HW184881   8.478   5.928   5.580
24273SOL    HW284882   8.323   5.901   5.536
24274SOL     OW84883   9.156   6.170   3.961
24274SOL    HW184884   9.177   6.089   3.907
24274SOL    HW284885   9.173   6.151   4.058
24275SOL     OW84886   8.450   7.308   3.869
24275SOL    HW184887   8.484   7.221   3.834
24275SOL    HW284888   8.418   7.296   3.963
24276SOL     OW84889   8.131   5.575   5.401
24276SOL    HW184890   8.138   5.481   5.368
24276SOL    HW284891   8.188   5.585   5.483
24277SOL     OW84892   9.054   6.176   4.669
24277SOL    HW184893   9.039   6.267   4.706
24277SOL    HW284894   9.124   6.129   4.723
24278SOL     OW84895   8.464   6.842   5.435
24278SOL    HW184896   8.486   6.752   5.397
24278SOL    HW284897   8.399   6.889   5.376
24279SOL     OW84898   8.119   6.684   5.439
24279SOL    HW184899   8.090   6.761   5.496
24279SOL    HW284900   8.129   6.603   5.497
24280SOL     OW84901   8.754   5.548   4.545
24280SOL    HW184902   8.703   5.632   4.527
24280SOL    HW284903   8.840   5.550   4.494
24281SOL     OW84904   9.109   5.754   5.474
24281SOL    HW184905   9.086   5.775   5.569
24281SOL    HW284906   9.085   5.659   5.454
24282SOL     OW84907   7.412   6.158   4.218
24282SOL    HW184908   7.414   6.109   4.305
24282SOL    HW284909   7.414   6.257   4.236
24283SOL     OW84910   7.733   5.746   4.539
24283SOL    HW184911   7.785   5.786   4.614
24283SOL    HW284912   7.786   5.673   4.496
24284SOL     OW84913   7.717   5.794   4.873
24284SOL    HW184914   7.682   5.701   4.873
24284SOL    HW284915   7.804   5.797   4.824
24285SOL     OW84916   8.384   6.416   4.613
24285SOL    HW184917   8.410   6.496   4.559
24285SOL    HW284918   8.378   6.336   4.553
24286SOL     OW84919   7.585   7.043   4.072
24286SOL    HW184920   7.612   6.949   4.092
24286SOL    HW284921   7.610   7.065   3.978
24287SOL     OW84922   8.867   6.912   4.946
24287SOL    HW184923   8.838   6.949   4.857
24287SOL    HW284924   8.789   6.912   5.008
24288SOL     OW84925   7.599   7.186   4.309
24288SOL    HW184926   7.515   7.237   4.327
24288SOL    HW284927   7.590   7.135   4.224
24289SOL     OW84928   9.120   6.983   4.984
24289SOL    HW184929   9.151   6.997   5.078
24289SOL    HW284930   9.021   6.970   4.983
24290SOL     OW84931   7.872   6.483   3.711
24290SOL    HW184932   7.841   6.517   3.623
24290SOL    HW284933   7.876   6.558   3.777
24291SOL     OW84934   8.389   6.670   5.010
24291SOL    HW184935   8.439   6.585   4.994
24291SOL    HW284936   8.343   6.697   4.925
24292SOL     OW84937   7.476   6.375   3.884
24292SOL    HW184938   7.536   6.322   3.944
24292SOL    HW284939   7.382   6.343   3.896
24293SOL     OW84940   8.996   6.373   4.084
24293SOL    HW184941   9.064   6.307   4.051
24293SOL    HW284942   9.011   6.461   4.040
24294SOL     OW84943   8.244   7.360   4.732
24294SOL    HW184944   8.290   7.293   4.674
24294SOL    HW284945   8.170   7.316   4.782
24295SOL     OW84946   8.151   6.429   3.768
24295SOL    HW184947   8.180   6.348   3.819
24295SOL    HW284948   8.051   6.428   3.759
24296SOL     OW84949   8.747   5.961   4.114
24296SOL    HW184950   8.684   6.019   4.062
24296SOL    HW284951   8.840   5.995   4.102
24297SOL     OW84952   7.644   6.162   5.214
24297SOL    HW184953   7.664   6.067   5.189
24297SOL    HW284954   7.607   6.165   5.307
24298SOL     OW84955   7.526   5.817   5.104
24298SOL    HW184956   7.598   5.827   5.035
24298SOL    HW284957   7.437   5.816   5.059
24299SOL     OW84958   8.424   6.438   4.869
24299SOL    HW184959   8.418   6.424   4.770
24299SOL    HW284960   8.343   6.399   4.913
24300SOL     OW84961   9.015   5.972   4.184
24300SOL    HW184962   9.111   5.943   4.181
24300SOL    HW284963   8.976   5.950   4.273
24301SOL     OW84964   8.299   7.047   4.621
24301SOL    HW184965   8.357   7.058   4.540
24301SOL    HW284966   8.205   7.071   4.599
24302SOL     OW84967   8.249   5.913   3.906
24302SOL    HW184968   8.158   5.926   3.944
24302SOL    HW284969   8.309   5.873   3.976
24303SOL     OW84970   8.360   6.858   3.841
24303SOL    HW184971   8.413   6.798   3.901
24303SOL    HW284972   8.399   6.859   3.750
24304SOL     OW84973   9.111   7.153   4.326
24304SOL    HW184974   9.078   7.246   4.345
24304SOL    HW284975   9.109   7.137   4.227
24305SOL     OW84976   8.526   6.426   4.315
24305SOL    HW184977   8.591   6.454   4.386
24305SOL    HW284978   8.447   6.487   4.317
24306SOL     OW84979   8.274   7.152   5.339
24306SOL    HW184980   8.262   7.083   5.268
24306SOL    HW284981   8.237   7.117   5.426
24307SOL     OW84982   8.718   6.466   4.518
24307SOL    HW184983   8.739   6.408   4.596
24307SOL    HW284984   8.727   6.562   4.544
24308SOL     OW84985   7.674   6.595   4.564
24308SOL    HW184986   7.597   6.657   4.557
24308SOL    HW284987   7.711   6.596   4.657
24309SOL     OW84988   8.307   6.543   4.263
24309SOL    HW184989   8.294   6.454   4.220
24309SOL    HW284990   8.238   6.557   4.334
24310SOL     OW84991   8.611   6.931   5.102
24310SOL    HW184992   8.644   7.016   5.143
24310SOL    HW284993   8.512   6.927   5.109
24311SOL     OW84994   7.418   5.848   4.166
24311SOL    HW184995   7.478   5.799   4.104
24311SOL    HW284996   7.473   5.900   4.231
24312SOL     OW84997   9.041   7.346   3.857
24312SOL    HW184998   9.131   7.390   3.859
24312SOL    HW284999   9.040   7.277   3.785
24313SOL     OW85000   8.205   6.313   5.015
24313SOL    HW185001   8.207   6.399   5.066
24313SOL    HW285002   8.262   6.245   5.062
24314SOL     OW85003   7.442   7.340   5.086
24314SOL    HW185004   7.450   7.440   5.084
24314SOL    HW285005   7.418   7.311   5.179
24315SOL     OW85006   8.223   6.359   4.080
24315SOL    HW185007   8.134   6.387   4.045
24315SOL    HW285008   8.264   6.293   4.016
24316SOL     OW85009   7.745   6.077   4.619
24316SOL    HW185010   7.801   6.070   4.536
24316SOL    HW285011   7.802   6.055   4.699
24317SOL     OW85012   7.742   7.275   3.890
24317SOL    HW185013   7.834   7.305   3.865
24317SOL    HW285014   7.717   7.314   3.979
24318SOL     OW85015   8.718   7.297   4.827
24318SOL    HW185016   8.737   7.360   4.753
24318SOL    HW285017   8.726   7.203   4.794
24319SOL     OW85018   7.423   6.692   4.639
24319SOL    HW185019   7.333   6.708   4.600
24319SOL    HW285020   7.421   6.608   4.694
24320SOL     OW85021   8.174   5.597   4.089
24320SOL    HW185022   8.135   5.586   3.998
24320SOL    HW285023   8.130   5.673   4.136
24321SOL     OW85024   7.419   6.733   4.183
24321SOL    HW185025   7.497   6.791   4.207
24321SOL    HW285026   7.438   6.684   4.098
24322SOL     OW85027   8.949   5.861   5.267
24322SOL    HW185028   8.888   5.939   5.264
24322SOL    HW285029   9.004   5.865   5.350
24323SOL     OW85030   8.665   5.807   4.558
24323SOL    HW185031   8.664   5.885   4.495
24323SOL    HW285032   8.708   5.834   4.644
24324SOL     OW85033   8.785   5.613   3.854
24324SOL    HW185034   8.865   5.553   3.851
24324SOL    HW285035   8.711   5.566   3.902
24325SOL     OW85036   8.998   5.585   5.288
24325SOL    HW185037   9.024   5.542   5.202
24325SOL    HW285038   8.948   5.669   5.270
24326SOL     OW85039   8.100   5.844   4.420
24326SOL    HW185040   8.089   5.786   4.501
24326SOL    HW285041   8.185   5.896   4.428
24327SOL     OW85042   8.680   6.195   4.812
24327SOL    HW185043   8.734   6.235   4.738
24327SOL    HW285044   8.718   6.224   4.900
24328SOL     OW85045   8.973   5.601   4.128
24328SOL    HW185046   8.980   5.555   4.040
24328SOL    HW285047   8.877   5.611   4.153
24329SOL     OW85048   7.949   6.916   5.491
24329SOL    HW185049   7.910   6.979   5.424
24329SOL    HW285050   8.032   6.956   5.531
24330SOL     OW85051   7.825   6.648   5.323
24330SOL    HW185052   7.844   6.672   5.228
24330SOL    HW285053   7.818   6.731   5.378
24331SOL     OW85054   7.486   6.938   4.797
24331SOL    HW185055   7.455   6.864   4.738
24331SOL    HW285056   7.418   6.956   4.868
24332SOL     OW85057   8.572   6.139   4.530
24332SOL    HW185058   8.654   6.116   4.478
24332SOL    HW285059   8.567   6.080   4.611
24333SOL     OW85060   9.172   6.166   5.366
24333SOL    HW185061   9.161   6.252   5.315
24333SOL    HW285062   9.266   6.157   5.396
24334SOL     OW85063   8.743   5.939   4.785
24334SOL    HW185064   8.717   6.036   4.791
24334SOL    HW285065   8.743   5.899   4.877
24335SOL     OW85066   8.973   6.071   5.536
24335SOL    HW185067   9.053   6.096   5.480
24335SOL    HW285068   9.004   6.036   5.624
24336SOL     OW85069   8.684   6.374   4.116
24336SOL    HW185070   8.630   6.372   4.200
24336SOL    HW285071   8.761   6.437   4.127
24337SOL     OW85072   8.981   6.470   4.336
24337SOL    HW185073   8.995   6.433   4.243
24337SOL    HW285074   8.892   6.440   4.370
24338SOL     OW85075   9.137   6.407   5.231
24338SOL    HW185076   9.039   6.428   5.233
24338SOL    HW285077   9.186   6.483   5.190
24339SOL     OW85078   8.991   5.827   3.910
24339SOL    HW185079   8.996   5.869   4.001
24339SOL    HW285080   8.924   5.752   3.912
24340SOL     OW85081   8.138   7.042   5.130
24340SOL    HW185082   8.075   7.120   5.137
24340SOL    HW285083   8.106   6.980   5.058
24341SOL     OW85084   7.529   5.837   5.395
24341SOL    HW185085   7.547   5.826   5.297
24341SOL    HW285086   7.431   5.833   5.412
24342SOL     OW85087   7.409   7.251   5.339
24342SOL    HW185088   7.481   7.237   5.407
24342SOL    HW285089   7.320   7.254   5.384
24343SOL     OW85090   7.577   5.907   4.363
24343SOL    HW185091   7.520   5.962   4.424
24343SOL    HW285092   7.647   5.859   4.416
24344SOL     OW85093   8.749   7.139   5.226
24344SOL    HW185094   8.702   7.207   5.281
24344SOL    HW285095   8.816   7.185   5.167
24345SOL     OW85096   7.714   6.098   3.961
24345SOL    HW185097   7.786   6.127   3.898
24345SOL    HW285098   7.670   6.178   4.001
24346SOL     OW85099   9.100   5.760   5.064
24346SOL    HW185100   9.056   5.808   5.140
24346SOL    HW285101   9.078   5.806   4.978
24347SOL     OW85102   7.829   7.361   4.427
24347SOL    HW185103   7.753   7.327   4.372
24347SOL    HW285104   7.915   7.324   4.392
24348SOL     OW85105   7.754   6.870   4.872
24348SOL    HW185106   7.766   6.886   4.969
24348SOL    HW285107   7.667   6.910   4.842
24349SOL     OW85108   8.638   7.074   5.518
24349SOL    HW185109   8.597   6.989   5.484
24349SOL    HW285110   8.618   7.148   5.454
24350SOL     OW85111   8.128   6.794   4.208
24350SOL    HW185112   8.171   6.725   4.150
24350SOL    HW285113   8.092   6.751   4.291
24351SOL     OW85114   7.760   6.345   4.410
24351SOL    HW185115   7.752   6.443   4.428
24351SOL    HW285116   7.844   6.311   4.451
24352SOL     OW85117   7.606   5.825   3.925
24352SOL    HW185118   7.650   5.794   3.842
24352SOL    HW285119   7.607   5.925   3.929
24353SOL     OW85120   7.459   6.077   4.536
24353SOL    HW185121   7.423   6.170   4.528
24353SOL    HW285122   7.542   6.078   4.592
24354SOL     OW85123   7.894   6.664   3.922
24354SOL    HW185124   7.994   6.664   3.933
24354SOL    HW285125   7.863   6.757   3.901
24355SOL     OW85126   8.520   6.256   3.738
24355SOL    HW185127   8.451   6.313   3.694
24355SOL    HW285128   8.601   6.250   3.679
24356SOL     OW85129   8.255   6.175   3.881
24356SOL    HW185130   8.345   6.176   3.836
24356SOL    HW285131   8.232   6.081   3.906
24357SOL     OW85132   8.706   5.692   4.175
24357SOL    HW185133   8.616   5.676   4.216
24357SOL    HW285134   8.714   5.788   4.149
24358SOL     OW85135   8.820   6.092   5.191
24358SOL    HW185136   8.772   6.115   5.275
24358SOL    HW285137   8.754   6.062   5.122
24359SOL     OW85138   7.455   5.607   3.835
24359SOL    HW185139   7.518   5.530   3.843
24359SOL    HW285140   7.475   5.675   3.906
24360SOL     OW85141   7.728   6.582   4.836
24360SOL    HW185142   7.739   6.537   4.925
24360SOL    HW285143   7.755   6.678   4.843
24361SOL     OW85144   9.027   6.594   3.936
24361SOL    HW185145   9.098   6.664   3.938
24361SOL    HW285146   9.014   6.564   3.841
24362SOL     OW85147   8.009   6.195   4.858
24362SOL    HW185148   8.084   6.238   4.907
24362SOL    HW285149   7.942   6.160   4.924
24363SOL     OW85150   8.152   6.564   5.175
24363SOL    HW185151   8.221   6.616   5.125
24363SOL    HW285152   8.147   6.597   5.270
24364SOL     OW85153   8.544   6.585   5.335
24364SOL    HW185154   8.466   6.531   5.368
24364SOL    HW285155   8.625   6.563   5.390
24365SOL     OW85156   8.473   5.767   4.331
24365SOL    HW185157   8.532   5.827   4.386
24365SOL    HW285158   8.400   5.731   4.388
24366SOL     OW85159   8.583   7.299   5.371
24366SOL    HW185160   8.488   7.297   5.339
24366SOL    HW285161   8.604   7.390   5.408
24367SOL     OW85162   8.001   5.644   4.602
24367SOL    HW185163   7.929   5.577   4.588
24367SOL    HW285164   8.083   5.598   4.637
24368SOL     OW85165   7.701   7.309   4.969
24368SOL    HW185166   7.681   7.291   4.873
24368SOL    HW285167   7.628   7.271   5.026
24369SOL     OW85168   8.394   6.773   4.514
24369SOL    HW185169   8.433   6.816   4.433
24369SOL    HW285170   8.467   6.756   4.581
24370SOL     OW85171   8.088   6.501   4.716
24370SOL    HW185172   8.086   6.417   4.661
24370SOL    HW285173   8.037   6.487   4.801
24371SOL     OW85174   7.427   6.511   4.842
24371SOL    HW185175   7.516   6.489   4.882
24371SOL    HW285176   7.372   6.427   4.838
24372SOL     OW85177   7.655   5.556   4.122
24372SOL    HW185178   7.693   5.644   4.149
24372SOL    HW285179   7.578   5.532   4.182
24373SOL     OW85180   8.071   6.173   5.450
24373SOL    HW185181   8.023   6.224   5.379
24373SOL    HW285182   8.164   6.152   5.420
24374SOL     OW85183   7.477   6.643   3.942
24374SOL    HW185184   7.467   6.546   3.921
24374SOL    HW285185   7.530   6.688   3.870
24375SOL     OW85186   9.174   5.755   4.543
24375SOL    HW185187   9.129   5.737   4.630
24375SOL    HW285188   9.272   5.772   4.559
24376SOL     OW85189   8.222   6.731   4.795
24376SOL    HW185190   8.173   6.646   4.776
24376SOL    HW285191   8.292   6.746   4.726
24377SOL     OW85192   8.560   6.154   4.004
24377SOL    HW185193   8.612   6.226   4.050
24377SOL    HW285194   8.573   6.161   3.906
24378SOL     OW85195   8.921   6.969   5.331
24378SOL    HW185196   8.906   6.871   5.345
24378SOL    HW285197   8.838   7.011   5.295
24379SOL     OW85198   7.678   6.411   5.071
24379SOL    HW185199   7.642   6.321   5.097
24379SOL    HW285200   7.639   6.481   5.131
24380SOL     OW85201   8.180   7.037   3.729
24380SOL    HW185202   8.155   7.114   3.788
24380SOL    HW285203   8.244   6.977   3.777
24381SOL     OW85204   7.998   7.244   4.763
24381SOL    HW185205   8.018   7.214   4.670
24381SOL    HW285206   7.923   7.189   4.800
24382SOL     OW85207   8.141   6.655   4.480
24382SOL    HW185208   8.230   6.701   4.480
24382SOL    HW285209   8.134   6.595   4.559
24383SOL     OW85210   8.319   7.002   4.149
24383SOL    HW185211   8.369   6.990   4.064
24383SOL    HW285212   8.265   6.919   4.168
24384SOL     OW85213   7.509   6.349   4.549
24384SOL    HW185214   7.604   6.340   4.517
24384SOL    HW285215   7.475   6.441   4.528
24385SOL     OW85216   7.446   6.466   5.476
24385SOL    HW185217   7.361   6.417   5.457
24385SOL    HW285218   7.473   6.453   5.571
24386SOL     OW85219   8.343   7.375   5.182
24386SOL    HW185220   8.315   7.288   5.223
24386SOL    HW285221   8.287   7.449   5.219
24387SOL     OW85222   8.572   6.722   4.712
24387SOL    HW185223   8.556   6.816   4.743
24387SOL    HW285224   8.575   6.661   4.792
24388SOL     OW85225   7.846   5.993   5.476
24388SOL    HW185226   7.882   5.940   5.399
24388SOL    HW285227   7.907   6.070   5.494
24389SOL     OW85228   7.910   6.410   4.048
24389SOL    HW185229   7.860   6.475   3.992
24389SOL    HW285230   7.852   6.331   4.067
24390SOL     OW85231   8.991   6.441   4.746
24390SOL    HW185232   9.010   6.480   4.655
24390SOL    HW285233   8.945   6.510   4.802
24391SOL     OW85234   8.683   5.884   5.042
24391SOL    HW185235   8.754   5.856   5.106
24391SOL    HW285236   8.630   5.804   5.014
24392SOL     OW85237   7.384   5.583   4.243
24392SOL    HW185238   7.297   5.570   4.196
24392SOL    HW285239   7.392   5.678   4.273
24393SOL     OW85240   8.605   5.684   5.484
24393SOL    HW185241   8.664   5.700   5.564
24393SOL    HW285242   8.552   5.767   5.465
24394SOL     OW85243   7.821   7.103   5.309
24394SOL    HW185244   7.763   7.168   5.358
24394SOL    HW285245   7.883   7.153   5.249
24395SOL     OW85246   9.177   6.990   5.250
24395SOL    HW185247   9.205   7.083   5.272
24395SOL    HW285248   9.084   6.974   5.283
24396SOL     OW85249   8.427   6.103   4.800
24396SOL    HW185250   8.513   6.154   4.799
24396SOL    HW285251   8.433   6.029   4.867
24397SOL     OW85252   7.831   7.049   4.372
24397SOL    HW185253   7.829   6.950   4.385
24397SOL    HW285254   7.740   7.082   4.349
24398SOL     OW85255   8.472   7.166   4.960
24398SOL    HW185256   8.398   7.230   4.978
24398SOL    HW285257   8.551   7.215   4.922
24399SOL     OW85258   7.681   7.296   5.459
24399SOL    HW185259   7.724   7.380   5.425
24399SOL    HW285260   7.706   7.283   5.555
24400SOL     OW85261   7.541   6.832   5.330
24400SOL    HW185262   7.520   6.737   5.303
24400SOL    HW285263   7.472   6.893   5.292
24401SOL     OW85264   7.630   7.197   4.734
24401SOL    HW185265   7.572   7.117   4.748
24401SOL    HW285266   7.654   7.204   4.637
24402SOL     OW85267   8.376   5.718   4.589
24402SOL    HW185268   8.472   5.719   4.617
24402SOL    HW285269   8.321   5.675   4.661
24403SOL     OW85270   8.438   6.724   4.105
24403SOL    HW185271   8.518   6.760   4.153
24403SOL    HW285272   8.396   6.651   4.161
24404SOL     OW85273   9.029   5.991   4.469
24404SOL    HW185274   9.048   6.077   4.516
24404SOL    HW285275   9.097   5.922   4.497
24405SOL     OW85276   8.172   6.663   3.955
24405SOL    HW185277   8.244   6.722   3.920
24405SOL    HW285278   8.212   6.579   3.991
24406SOL     OW85279   8.243   5.639   3.807
24406SOL    HW185280   8.318   5.573   3.819
24406SOL    HW285281   8.274   5.730   3.835
24407SOL     OW85282   7.922   6.068   4.419
24407SOL    HW185283   7.960   5.979   4.445
24407SOL    HW285284   7.989   6.118   4.364
24408SOL     OW85285   7.910   6.626   5.073
24408SOL    HW185286   8.006   6.606   5.093
24408SOL    HW285287   7.899   6.724   5.055
24409SOL     OW85288   9.132   6.669   5.042
24409SOL    HW185289   9.146   6.767   5.056
24409SOL    HW285290   9.189   6.638   4.966
24410SOL     OW85291   7.615   6.778   3.734
24410SOL    HW185292   7.607   6.790   3.635
24410SOL    HW285293   7.674   6.849   3.772
24411SOL     OW85294   8.042   7.217   3.894
24411SOL    HW185295   8.017   7.312   3.878
24411SOL    HW285296   8.009   7.189   3.984
24412SOL     OW85297   8.692   6.640   5.118
24412SOL    HW185298   8.636   6.599   5.189
24412SOL    HW285299   8.672   6.738   5.112
24413SOL     OW85300   7.959   7.256   5.118
24413SOL    HW185301   8.008   7.336   5.082
24413SOL    HW285302   7.867   7.254   5.079
24414SOL     OW85303   7.602   6.137   5.480
24414SOL    HW185304   7.619   6.038   5.485
24414SOL    HW285305   7.666   6.185   5.541
24415SOL     OW85306   9.041   7.098   4.719
24415SOL    HW185307   9.013   7.191   4.743
24415SOL    HW285308   9.091   7.057   4.795
24416SOL     OW85309   7.437   6.471   4.280
24416SOL    HW185310   7.444   6.570   4.267
24416SOL    HW285311   7.346   6.448   4.314
24417SOL     OW85312   7.946   6.269   5.218
24417SOL    HW185313   7.852   6.239   5.199
24417SOL    HW285314   7.955   6.366   5.195
24418SOL     OW85315   9.013   6.645   4.530
24418SOL    HW185316   8.975   6.734   4.503
24418SOL    HW285317   9.013   6.583   4.452
24419SOL     OW85318   8.171   6.051   4.699
24419SOL    HW185319   8.263   6.079   4.726
24419SOL    HW285320   8.103   6.102   4.753
24420SOL     OW85321   8.024   6.902   4.926
24420SOL    HW185322   7.937   6.901   4.877
24420SOL    HW285323   8.090   6.842   4.879
24421SOL     OW85324   7.590   6.244   4.840
24421SOL    HW185325   7.628   6.303   4.911
24421SOL    HW285326   7.573   6.297   4.758
24422SOL     OW85327   7.761   6.890   5.138
24422SOL    HW185328   7.780   6.978   5.182
24422SOL    HW285329   7.666   6.864   5.156
24423SOL     OW85330   9.004   7.206   5.486
24423SOL    HW185331   8.973   7.128   5.431
24423SOL    HW285332   8.973   7.291   5.444
24424SOL     OW85333   8.712   6.744   4.207
24424SOL    HW185334   8.811   6.748   4.223
24424SOL    HW285335   8.695   6.730   4.109
24425SOL     OW85336   8.065   5.910   4.155
24425SOL    HW185337   7.967   5.904   4.135
24425SOL    HW285338   8.084   5.867   4.243
24426SOL     OW85339   8.985   5.593   4.414
24426SOL    HW185340   8.980   5.634   4.323
24426SOL    HW285341   9.066   5.627   4.461
24427SOL     OW85342   8.588   6.349   5.107
24427SOL    HW185343   8.687   6.358   5.097
24427SOL    HW285344   8.544   6.351   5.017
24428SOL     OW85345   8.082   6.309   4.509
24428SOL    HW185346   8.104   6.231   4.567
24428SOL    HW285347   8.091   6.283   4.413
24429SOL     OW85348   8.747   7.016   4.721
24429SOL    HW185349   8.661   6.973   4.750
24429SOL    HW285350   8.736   7.056   4.630
24430SOL     OW85351   8.750   6.001   4.396
24430SOL    HW185352   8.749   5.993   4.297
24430SOL    HW285353   8.839   5.973   4.431
24431SOL     OW85354   8.988   6.813   6.086
24431SOL    HW185355   8.999   6.897   6.140
24431SOL    HW285356   9.078   6.776   6.063
24432SOL     OW85357   7.735   5.732   5.555
24432SOL    HW185358   7.648   5.729   5.506
24432SOL    HW285359   7.786   5.814   5.527
24433SOL     OW85360   8.722   7.121   6.330
24433SOL    HW185361   8.711   7.218   6.353
24433SOL    HW285362   8.815   7.104   6.300
24434SOL     OW85363   8.600   5.632   6.888
24434SOL    HW185364   8.524   5.587   6.935
24434SOL    HW285365   8.629   5.577   6.810
24435SOL     OW85366   7.945   7.086   5.959
24435SOL    HW185367   7.901   7.095   6.048
24435SOL    HW285368   8.016   7.016   5.963
24436SOL     OW85369   7.963   5.619   5.681
24436SOL    HW185370   8.051   5.647   5.642
24436SOL    HW285371   7.891   5.682   5.651
24437SOL     OW85372   8.933   6.604   7.064
24437SOL    HW185373   8.841   6.609   7.026
24437SOL    HW285374   8.998   6.642   6.998
24438SOL     OW85375   8.833   6.611   6.745
24438SOL    HW185376   8.758   6.600   6.810
24438SOL    HW285377   8.870   6.704   6.751
24439SOL     OW85378   8.329   6.866   7.045
24439SOL    HW185379   8.272   6.929   6.991
24439SOL    HW285380   8.362   6.792   6.986
24440SOL     OW85381   7.872   6.759   6.254
24440SOL    HW185382   7.805   6.713   6.313
24440SOL    HW285383   7.964   6.727   6.277
24441SOL     OW85384   8.099   6.165   6.085
24441SOL    HW185385   8.138   6.235   6.026
24441SOL    HW285386   8.073   6.085   6.031
24442SOL     OW85387   7.802   6.928   5.738
24442SOL    HW185388   7.866   6.944   5.663
24442SOL    HW285389   7.826   6.986   5.816
24443SOL     OW85390   7.953   5.884   6.548
24443SOL    HW185391   8.029   5.949   6.544
24443SOL    HW285392   7.983   5.795   6.515
24444SOL     OW85393   7.650   6.310   5.966
24444SOL    HW185394   7.665   6.244   6.040
24444SOL    HW285395   7.600   6.389   6.001
24445SOL     OW85396   8.236   7.255   6.143
24445SOL    HW185397   8.301   7.188   6.107
24445SOL    HW285398   8.226   7.331   6.079
24446SOL     OW85399   9.128   7.137   5.885
24446SOL    HW185400   9.224   7.111   5.878
24446SOL    HW285401   9.104   7.197   5.809
24447SOL     OW85402   9.040   5.830   6.656
24447SOL    HW185403   9.091   5.902   6.609
24447SOL    HW285404   8.945   5.857   6.665
24448SOL     OW85405   8.440   5.859   5.925
24448SOL    HW185406   8.465   5.953   5.946
24448SOL    HW285407   8.441   5.805   6.009
24449SOL     OW85408   7.890   6.217   5.653
24449SOL    HW185409   7.850   6.296   5.606
24449SOL    HW285410   7.979   6.196   5.613
24450SOL     OW85411   8.063   7.141   6.351
24450SOL    HW185412   8.136   7.164   6.287
24450SOL    HW285413   7.992   7.088   6.305
24451SOL     OW85414   8.405   6.173   7.105
24451SOL    HW185415   8.438   6.090   7.152
24451SOL    HW285416   8.478   6.241   7.104
24452SOL     OW85417   9.009   6.973   6.327
24452SOL    HW185418   9.005   7.008   6.420
24452SOL    HW285419   9.068   7.032   6.271
24453SOL     OW85420   7.740   6.794   6.003
24453SOL    HW185421   7.786   6.768   6.088
24453SOL    HW285422   7.760   6.726   5.932
24454SOL     OW85423   8.598   5.849   5.714
24454SOL    HW185424   8.692   5.819   5.732
24454SOL    HW285425   8.546   5.849   5.800
24455SOL     OW85426   7.750   6.054   6.809
24455SOL    HW185427   7.740   5.967   6.761
24455SOL    HW285428   7.686   6.121   6.772
24456SOL     OW85429   7.785   5.826   5.968
24456SOL    HW185430   7.739   5.866   6.047
24456SOL    HW285431   7.733   5.845   5.886
24457SOL     OW85432   8.913   7.353   6.880
24457SOL    HW185433   8.856   7.304   6.814
24457SOL    HW285434   8.999   7.380   6.837
24458SOL     OW85435   9.208   6.071   6.735
24458SOL    HW185436   9.265   6.153   6.737
24458SOL    HW285437   9.149   6.070   6.815
24459SOL     OW85438   9.225   7.297   6.648
24459SOL    HW185439   9.271   7.307   6.736
24459SOL    HW285440   9.292   7.300   6.575
24460SOL     OW85441   8.338   6.037   6.210
24460SOL    HW185442   8.414   6.065   6.269
24460SOL    HW285443   8.294   6.117   6.171
24461SOL     OW85444   8.573   6.501   5.727
24461SOL    HW185445   8.610   6.451   5.805
24461SOL    HW285446   8.503   6.446   5.682
24462SOL     OW85447   8.415   5.923   7.348
24462SOL    HW185448   8.478   5.928   7.425
24462SOL    HW285449   8.323   5.901   7.381
24463SOL     OW85450   9.156   6.170   5.806
24463SOL    HW185451   9.177   6.089   5.752
24463SOL    HW285452   9.173   6.151   5.903
24464SOL     OW85453   8.450   7.308   5.714
24464SOL    HW185454   8.484   7.221   5.679
24464SOL    HW285455   8.418   7.296   5.808
24465SOL     OW85456   8.131   5.575   7.246
24465SOL    HW185457   8.138   5.481   7.213
24465SOL    HW285458   8.188   5.585   7.328
24466SOL     OW85459   9.054   6.176   6.514
24466SOL    HW185460   9.039   6.267   6.551
24466SOL    HW285461   9.124   6.129   6.568
24467SOL     OW85462   8.119   6.684   7.284
24467SOL    HW185463   8.090   6.761   7.341
24467SOL    HW285464   8.129   6.603   7.342
24468SOL     OW85465   8.754   5.548   6.390
24468SOL    HW185466   8.703   5.632   6.372
24468SOL    HW285467   8.840   5.550   6.339
24469SOL     OW85468   7.412   6.158   6.063
24469SOL    HW185469   7.414   6.109   6.150
24469SOL    HW285470   7.414   6.257   6.081
24470SOL     OW85471   7.733   5.746   6.384
24470SOL    HW185472   7.785   5.786   6.459
24470SOL    HW285473   7.786   5.673   6.341
24471SOL     OW85474   7.717   5.794   6.718
24471SOL    HW185475   7.682   5.701   6.718
24471SOL    HW285476   7.804   5.797   6.669
24472SOL     OW85477   8.384   6.416   6.458
24472SOL    HW185478   8.410   6.496   6.404
24472SOL    HW285479   8.378   6.336   6.398
24473SOL     OW85480   7.585   7.043   5.917
24473SOL    HW185481   7.612   6.949   5.937
24473SOL    HW285482   7.610   7.065   5.823
24474SOL     OW85483   8.867   6.912   6.791
24474SOL    HW185484   8.838   6.949   6.702
24474SOL    HW285485   8.789   6.912   6.853
24475SOL     OW85486   7.599   7.186   6.154
24475SOL    HW185487   7.515   7.237   6.172
24475SOL    HW285488   7.590   7.135   6.069
24476SOL     OW85489   9.120   6.983   6.829
24476SOL    HW185490   9.151   6.997   6.923
24476SOL    HW285491   9.021   6.970   6.828
24477SOL     OW85492   7.872   6.483   5.556
24477SOL    HW185493   7.841   6.517   5.468
24477SOL    HW285494   7.876   6.558   5.622
24478SOL     OW85495   8.389   6.670   6.855
24478SOL    HW185496   8.439   6.585   6.839
24478SOL    HW285497   8.343   6.697   6.770
24479SOL     OW85498   7.476   6.375   5.729
24479SOL    HW185499   7.536   6.322   5.789
24479SOL    HW285500   7.382   6.343   5.741
24480SOL     OW85501   8.996   6.373   5.929
24480SOL    HW185502   9.064   6.307   5.896
24480SOL    HW285503   9.011   6.461   5.885
24481SOL     OW85504   8.244   7.360   6.577
24481SOL    HW185505   8.290   7.293   6.519
24481SOL    HW285506   8.170   7.316   6.627
24482SOL     OW85507   8.151   6.429   5.613
24482SOL    HW185508   8.180   6.348   5.664
24482SOL    HW285509   8.051   6.428   5.604
24483SOL     OW85510   8.747   5.961   5.959
24483SOL    HW185511   8.684   6.019   5.907
24483SOL    HW285512   8.840   5.995   5.947
24484SOL     OW85513   7.526   5.817   6.949
24484SOL    HW185514   7.598   5.827   6.880
24484SOL    HW285515   7.437   5.816   6.904
24485SOL     OW85516   8.424   6.438   6.714
24485SOL    HW185517   8.418   6.424   6.615
24485SOL    HW285518   8.343   6.399   6.758
24486SOL     OW85519   9.015   5.972   6.029
24486SOL    HW185520   9.111   5.943   6.026
24486SOL    HW285521   8.976   5.950   6.118
24487SOL     OW85522   8.299   7.047   6.466
24487SOL    HW185523   8.357   7.058   6.385
24487SOL    HW285524   8.205   7.071   6.444
24488SOL     OW85525   8.249   5.913   5.751
24488SOL    HW185526   8.158   5.926   5.789
24488SOL    HW285527   8.309   5.873   5.821
24489SOL     OW85528   8.360   6.858   5.686
24489SOL    HW185529   8.413   6.798   5.746
24489SOL    HW285530   8.399   6.859   5.595
24490SOL     OW85531   9.111   7.153   6.171
24490SOL    HW185532   9.078   7.246   6.190
24490SOL    HW285533   9.109   7.137   6.072
24491SOL     OW85534   8.526   6.426   6.160
24491SOL    HW185535   8.591   6.454   6.231
24491SOL    HW285536   8.447   6.487   6.162
24492SOL     OW85537   8.274   7.152   7.184
24492SOL    HW185538   8.262   7.083   7.113
24492SOL    HW285539   8.237   7.117   7.271
24493SOL     OW85540   7.674   6.595   6.409
24493SOL    HW185541   7.597   6.657   6.402
24493SOL    HW285542   7.711   6.596   6.502
24494SOL     OW85543   8.307   6.543   6.108
24494SOL    HW185544   8.294   6.454   6.065
24494SOL    HW285545   8.238   6.557   6.179
24495SOL     OW85546   8.611   6.931   6.947
24495SOL    HW185547   8.644   7.016   6.988
24495SOL    HW285548   8.512   6.927   6.954
24496SOL     OW85549   7.418   5.848   6.011
24496SOL    HW185550   7.478   5.799   5.949
24496SOL    HW285551   7.473   5.900   6.076
24497SOL     OW85552   9.041   7.346   5.702
24497SOL    HW185553   9.131   7.390   5.704
24497SOL    HW285554   9.040   7.277   5.630
24498SOL     OW85555   7.442   7.340   6.931
24498SOL    HW185556   7.450   7.440   6.929
24498SOL    HW285557   7.418   7.311   7.024
24499SOL     OW85558   8.223   6.359   5.925
24499SOL    HW185559   8.134   6.387   5.890
24499SOL    HW285560   8.264   6.293   5.861
24500SOL     OW85561   7.745   6.077   6.464
24500SOL    HW185562   7.801   6.070   6.381
24500SOL    HW285563   7.802   6.055   6.544
24501SOL     OW85564   7.742   7.275   5.735
24501SOL    HW185565   7.834   7.305   5.710
24501SOL    HW285566   7.717   7.314   5.824
24502SOL     OW85567   8.718   7.297   6.672
24502SOL    HW185568   8.737   7.360   6.598
24502SOL    HW285569   8.726   7.203   6.639
24503SOL     OW85570   7.423   6.692   6.484
24503SOL    HW185571   7.333   6.708   6.445
24503SOL    HW285572   7.421   6.608   6.539
24504SOL     OW85573   8.174   5.597   5.934
24504SOL    HW185574   8.135   5.586   5.843
24504SOL    HW285575   8.130   5.673   5.981
24505SOL     OW85576   7.419   6.733   6.028
24505SOL    HW185577   7.497   6.791   6.052
24505SOL    HW285578   7.438   6.684   5.943
24506SOL     OW85579   8.665   5.807   6.403
24506SOL    HW185580   8.664   5.885   6.340
24506SOL    HW285581   8.708   5.834   6.489
24507SOL     OW85582   8.785   5.613   5.699
24507SOL    HW185583   8.865   5.553   5.696
24507SOL    HW285584   8.711   5.566   5.747
24508SOL     OW85585   8.998   5.585   7.133
24508SOL    HW185586   9.024   5.542   7.047
24508SOL    HW285587   8.948   5.669   7.115
24509SOL     OW85588   8.100   5.844   6.265
24509SOL    HW185589   8.089   5.786   6.346
24509SOL    HW285590   8.185   5.896   6.273
24510SOL     OW85591   8.680   6.195   6.657
24510SOL    HW185592   8.734   6.235   6.583
24510SOL    HW285593   8.718   6.224   6.745
24511SOL     OW85594   8.973   5.601   5.973
24511SOL    HW185595   8.980   5.555   5.885
24511SOL    HW285596   8.877   5.611   5.998
24512SOL     OW85597   7.949   6.916   7.336
24512SOL    HW185598   7.910   6.979   7.269
24512SOL    HW285599   8.032   6.956   7.376
24513SOL     OW85600   7.486   6.938   6.642
24513SOL    HW185601   7.455   6.864   6.583
24513SOL    HW285602   7.418   6.956   6.713
24514SOL     OW85603   8.572   6.139   6.375
24514SOL    HW185604   8.654   6.116   6.323
24514SOL    HW285605   8.567   6.080   6.456
24515SOL     OW85606   8.743   5.939   6.630
24515SOL    HW185607   8.717   6.036   6.636
24515SOL    HW285608   8.743   5.899   6.722
24516SOL     OW85609   8.684   6.374   5.961
24516SOL    HW185610   8.630   6.372   6.045
24516SOL    HW285611   8.761   6.437   5.972
24517SOL     OW85612   8.981   6.470   6.181
24517SOL    HW185613   8.995   6.433   6.088
24517SOL    HW285614   8.892   6.440   6.215
24518SOL     OW85615   9.137   6.407   7.076
24518SOL    HW185616   9.039   6.428   7.078
24518SOL    HW285617   9.186   6.483   7.035
24519SOL     OW85618   8.991   5.827   5.755
24519SOL    HW185619   8.996   5.869   5.846
24519SOL    HW285620   8.924   5.752   5.757
24520SOL     OW85621   8.138   7.042   6.975
24520SOL    HW185622   8.075   7.120   6.982
24520SOL    HW285623   8.106   6.980   6.903
24521SOL     OW85624   7.529   5.837   7.240
24521SOL    HW185625   7.547   5.826   7.142
24521SOL    HW285626   7.431   5.833   7.257
24522SOL     OW85627   7.577   5.907   6.208
24522SOL    HW185628   7.520   5.962   6.269
24522SOL    HW285629   7.647   5.859   6.261
24523SOL     OW85630   8.749   7.139   7.071
24523SOL    HW185631   8.702   7.207   7.126
24523SOL    HW285632   8.816   7.185   7.012
24524SOL     OW85633   7.714   6.098   5.806
24524SOL    HW185634   7.786   6.127   5.743
24524SOL    HW285635   7.670   6.178   5.846
24525SOL     OW85636   9.100   5.760   6.909
24525SOL    HW185637   9.056   5.808   6.985
24525SOL    HW285638   9.078   5.806   6.823
24526SOL     OW85639   7.829   7.361   6.272
24526SOL    HW185640   7.753   7.327   6.217
24526SOL    HW285641   7.915   7.324   6.237
24527SOL     OW85642   7.754   6.870   6.717
24527SOL    HW185643   7.766   6.886   6.814
24527SOL    HW285644   7.667   6.910   6.687
24528SOL     OW85645   8.638   7.074   7.363
24528SOL    HW185646   8.597   6.989   7.329
24528SOL    HW285647   8.618   7.148   7.299
24529SOL     OW85648   8.128   6.794   6.053
24529SOL    HW185649   8.171   6.725   5.995
24529SOL    HW285650   8.092   6.751   6.136
24530SOL     OW85651   7.760   6.345   6.255
24530SOL    HW185652   7.752   6.443   6.273
24530SOL    HW285653   7.844   6.311   6.296
24531SOL     OW85654   7.606   5.825   5.770
24531SOL    HW185655   7.650   5.794   5.687
24531SOL    HW285656   7.607   5.925   5.774
24532SOL     OW85657   7.459   6.077   6.381
24532SOL    HW185658   7.423   6.170   6.373
24532SOL    HW285659   7.542   6.078   6.437
24533SOL     OW85660   7.894   6.664   5.767
24533SOL    HW185661   7.994   6.664   5.778
24533SOL    HW285662   7.863   6.757   5.746
24534SOL     OW85663   8.520   6.256   5.583
24534SOL    HW185664   8.451   6.313   5.539
24534SOL    HW285665   8.601   6.250   5.524
24535SOL     OW85666   8.255   6.175   5.726
24535SOL    HW185667   8.345   6.176   5.681
24535SOL    HW285668   8.232   6.081   5.751
24536SOL     OW85669   8.706   5.692   6.020
24536SOL    HW185670   8.616   5.676   6.061
24536SOL    HW285671   8.714   5.788   5.994
24537SOL     OW85672   7.455   5.607   5.680
24537SOL    HW185673   7.518   5.530   5.688
24537SOL    HW285674   7.475   5.675   5.751
24538SOL     OW85675   9.027   6.594   5.781
24538SOL    HW185676   9.098   6.664   5.783
24538SOL    HW285677   9.014   6.564   5.686
24539SOL     OW85678   8.009   6.195   6.703
24539SOL    HW185679   8.084   6.238   6.752
24539SOL    HW285680   7.942   6.160   6.769
24540SOL     OW85681   8.473   5.767   6.176
24540SOL    HW185682   8.532   5.827   6.231
24540SOL    HW285683   8.400   5.731   6.233
24541SOL     OW85684   8.583   7.299   7.216
24541SOL    HW185685   8.488   7.297   7.184
24541SOL    HW285686   8.604   7.390   7.253
24542SOL     OW85687   8.001   5.644   6.447
24542SOL    HW185688   7.929   5.577   6.433
24542SOL    HW285689   8.083   5.598   6.482
24543SOL     OW85690   7.701   7.309   6.814
24543SOL    HW185691   7.681   7.291   6.718
24543SOL    HW285692   7.628   7.271   6.871
24544SOL     OW85693   8.088   6.501   6.561
24544SOL    HW185694   8.086   6.417   6.506
24544SOL    HW285695   8.037   6.487   6.646
24545SOL     OW85696   7.655   5.556   5.967
24545SOL    HW185697   7.693   5.644   5.994
24545SOL    HW285698   7.578   5.532   6.027
24546SOL     OW85699   8.071   6.173   7.295
24546SOL    HW185700   8.023   6.224   7.224
24546SOL    HW285701   8.164   6.152   7.265
24547SOL     OW85702   7.477   6.643   5.787
24547SOL    HW185703   7.467   6.546   5.766
24547SOL    HW285704   7.530   6.688   5.715
24548SOL     OW85705   9.174   5.755   6.388
24548SOL    HW185706   9.129   5.737   6.475
24548SOL    HW285707   9.272   5.772   6.404
24549SOL     OW85708   8.222   6.731   6.640
24549SOL    HW185709   8.173   6.646   6.621
24549SOL    HW285710   8.292   6.746   6.571
24550SOL     OW85711   8.560   6.154   5.849
24550SOL    HW185712   8.612   6.226   5.895
24550SOL    HW285713   8.573   6.161   5.751
24551SOL     OW85714   8.921   6.969   7.176
24551SOL    HW185715   8.906   6.871   7.190
24551SOL    HW285716   8.838   7.011   7.140
24552SOL     OW85717   8.180   7.037   5.574
24552SOL    HW185718   8.155   7.114   5.633
24552SOL    HW285719   8.244   6.977   5.622
24553SOL     OW85720   7.998   7.244   6.608
24553SOL    HW185721   8.018   7.214   6.515
24553SOL    HW285722   7.923   7.189   6.645
24554SOL     OW85723   8.141   6.655   6.325
24554SOL    HW185724   8.230   6.701   6.325
24554SOL    HW285725   8.134   6.595   6.404
24555SOL     OW85726   8.319   7.002   5.994
24555SOL    HW185727   8.369   6.990   5.909
24555SOL    HW285728   8.265   6.919   6.013
24556SOL     OW85729   7.509   6.349   6.394
24556SOL    HW185730   7.604   6.340   6.362
24556SOL    HW285731   7.475   6.441   6.373
24557SOL     OW85732   8.343   7.375   7.027
24557SOL    HW185733   8.315   7.288   7.068
24557SOL    HW285734   8.287   7.449   7.064
24558SOL     OW85735   7.846   5.993   7.321
24558SOL    HW185736   7.882   5.940   7.244
24558SOL    HW285737   7.907   6.070   7.339
24559SOL     OW85738   7.910   6.410   5.893
24559SOL    HW185739   7.860   6.475   5.837
24559SOL    HW285740   7.852   6.331   5.912
24560SOL     OW85741   8.991   6.441   6.591
24560SOL    HW185742   9.010   6.480   6.500
24560SOL    HW285743   8.945   6.510   6.647
24561SOL     OW85744   7.384   5.583   6.088
24561SOL    HW185745   7.297   5.570   6.041
24561SOL    HW285746   7.392   5.678   6.118
24562SOL     OW85747   8.605   5.684   7.329
24562SOL    HW185748   8.664   5.700   7.409
24562SOL    HW285749   8.552   5.767   7.310
24563SOL     OW85750   7.821   7.103   7.154
24563SOL    HW185751   7.763   7.168   7.203
24563SOL    HW285752   7.883   7.153   7.094
24564SOL     OW85753   9.177   6.990   7.095
24564SOL    HW185754   9.205   7.083   7.117
24564SOL    HW285755   9.084   6.974   7.128
24565SOL     OW85756   7.831   7.049   6.217
24565SOL    HW185757   7.829   6.950   6.230
24565SOL    HW285758   7.740   7.082   6.194
24566SOL     OW85759   8.472   7.166   6.805
24566SOL    HW185760   8.398   7.230   6.823
24566SOL    HW285761   8.551   7.215   6.767
24567SOL     OW85762   7.630   7.197   6.579
24567SOL    HW185763   7.572   7.117   6.593
24567SOL    HW285764   7.654   7.204   6.482
24568SOL     OW85765   8.376   5.718   6.434
24568SOL    HW185766   8.472   5.719   6.462
24568SOL    HW285767   8.321   5.675   6.506
24569SOL     OW85768   8.438   6.724   5.950
24569SOL    HW185769   8.518   6.760   5.998
24569SOL    HW285770   8.396   6.651   6.006
24570SOL     OW85771   9.029   5.991   6.314
24570SOL    HW185772   9.048   6.077   6.361
24570SOL    HW285773   9.097   5.922   6.342
24571SOL     OW85774   8.172   6.663   5.800
24571SOL    HW185775   8.244   6.722   5.765
24571SOL    HW285776   8.212   6.579   5.836
24572SOL     OW85777   8.243   5.639   5.652
24572SOL    HW185778   8.318   5.573   5.664
24572SOL    HW285779   8.274   5.730   5.680
24573SOL     OW85780   7.922   6.068   6.264
24573SOL    HW185781   7.960   5.979   6.290
24573SOL    HW285782   7.989   6.118   6.209
24574SOL     OW85783   9.132   6.669   6.887
24574SOL    HW185784   9.146   6.767   6.901
24574SOL    HW285785   9.189   6.638   6.811
24575SOL     OW85786   7.615   6.778   5.579
24575SOL    HW185787   7.607   6.790   5.480
24575SOL    HW285788   7.674   6.849   5.617
24576SOL     OW85789   8.042   7.217   5.739
24576SOL    HW185790   8.017   7.312   5.723
24576SOL    HW285791   8.009   7.189   5.829
24577SOL     OW85792   8.692   6.640   6.963
24577SOL    HW185793   8.636   6.599   7.034
24577SOL    HW285794   8.672   6.738   6.957
24578SOL     OW85795   7.959   7.256   6.963
24578SOL    HW185796   8.008   7.336   6.927
24578SOL    HW285797   7.867   7.254   6.924
24579SOL     OW85798   7.602   6.137   7.325
24579SOL    HW185799   7.619   6.038   7.330
24579SOL    HW285800   7.666   6.185   7.386
24580SOL     OW85801   9.041   7.098   6.564
24580SOL    HW185802   9.013   7.191   6.588
24580SOL    HW285803   9.091   7.057   6.640
24581SOL     OW85804   7.437   6.471   6.125
24581SOL    HW185805   7.444   6.570   6.112
24581SOL    HW285806   7.346   6.448   6.159
24582SOL     OW85807   9.013   6.645   6.375
24582SOL    HW185808   8.975   6.734   6.348
24582SOL    HW285809   9.013   6.583   6.297
24583SOL     OW85810   8.171   6.051   6.544
24583SOL    HW185811   8.263   6.079   6.571
24583SOL    HW285812   8.103   6.102   6.598
24584SOL     OW85813   8.024   6.902   6.771
24584SOL    HW185814   7.937   6.901   6.722
24584SOL    HW285815   8.090   6.842   6.724
24585SOL     OW85816   9.004   7.206   7.331
24585SOL    HW185817   8.973   7.128   7.276
24585SOL    HW285818   8.973   7.291   7.289
24586SOL     OW85819   8.712   6.744   6.052
24586SOL    HW185820   8.811   6.748   6.068
24586SOL    HW285821   8.695   6.730   5.954
24587SOL     OW85822   8.065   5.910   6.000
24587SOL    HW185823   7.967   5.904   5.980
24587SOL    HW285824   8.084   5.867   6.088
24588SOL     OW85825   8.985   5.593   6.259
24588SOL    HW185826   8.980   5.634   6.168
24588SOL    HW285827   9.066   5.627   6.306
24589SOL     OW85828   8.082   6.309   6.354
24589SOL    HW185829   8.104   6.231   6.412
24589SOL    HW285830   8.091   6.283   6.258
24590SOL     OW85831   8.747   7.016   6.566
24590SOL    HW185832   8.661   6.973   6.595
24590SOL    HW285833   8.736   7.056   6.475
24591SOL     OW85834   8.750   6.001   6.241
24591SOL    HW185835   8.749   5.993   6.142
24591SOL    HW285836   8.839   5.973   6.276
24592SOL     OW85837   8.477   7.017   8.074
24592SOL    HW185838   8.568   7.051   8.097
24592SOL    HW285839   8.449   7.055   7.986
24593SOL     OW85840   8.988   6.813   7.932
24593SOL    HW185841   8.999   6.897   7.986
24593SOL    HW285842   9.078   6.776   7.909
24594SOL     OW85843   9.068   6.095   8.796
24594SOL    HW185844   8.970   6.087   8.818
24594SOL    HW285845   9.121   6.084   8.880
24595SOL     OW85846   7.735   5.732   7.401
24595SOL    HW185847   7.648   5.729   7.352
24595SOL    HW285848   7.786   5.814   7.373
24596SOL     OW85849   8.722   7.121   8.176
24596SOL    HW185850   8.711   7.218   8.199
24596SOL    HW285851   8.815   7.104   8.146
24597SOL     OW85852   8.600   5.632   8.734
24597SOL    HW185853   8.524   5.587   8.781
24597SOL    HW285854   8.629   5.577   8.656
24598SOL     OW85855   8.338   6.412   9.111
24598SOL    HW185856   8.303   6.387   9.021
24598SOL    HW285857   8.262   6.433   9.172
24599SOL     OW85858   7.963   5.619   7.527
24599SOL    HW185859   8.051   5.647   7.488
24599SOL    HW285860   7.891   5.682   7.497
24600SOL     OW85861   8.933   6.604   8.910
24600SOL    HW185862   8.841   6.609   8.872
24600SOL    HW285863   8.998   6.642   8.844
24601SOL     OW85864   8.833   6.611   8.591
24601SOL    HW185865   8.758   6.600   8.656
24601SOL    HW285866   8.870   6.704   8.597
24602SOL     OW85867   8.329   6.866   8.891
24602SOL    HW185868   8.272   6.929   8.837
24602SOL    HW285869   8.362   6.792   8.832
24603SOL     OW85870   7.872   6.759   8.100
24603SOL    HW185871   7.805   6.713   8.159
24603SOL    HW285872   7.964   6.727   8.123
24604SOL     OW85873   8.099   6.165   7.931
24604SOL    HW185874   8.138   6.235   7.872
24604SOL    HW285875   8.073   6.085   7.877
24605SOL     OW85876   8.719   6.073   9.140
24605SOL    HW185877   8.815   6.077   9.166
24605SOL    HW285878   8.675   5.997   9.187
24606SOL     OW85879   7.953   5.884   8.394
24606SOL    HW185880   8.029   5.949   8.390
24606SOL    HW285881   7.983   5.795   8.361
24607SOL     OW85882   7.650   6.310   7.812
24607SOL    HW185883   7.665   6.244   7.886
24607SOL    HW285884   7.600   6.389   7.847
24608SOL     OW85885   9.128   7.137   7.731
24608SOL    HW185886   9.224   7.111   7.724
24608SOL    HW285887   9.104   7.197   7.655
24609SOL     OW85888   9.040   5.830   8.502
24609SOL    HW185889   9.091   5.902   8.455
24609SOL    HW285890   8.945   5.857   8.511
24610SOL     OW85891   8.440   5.859   7.771
24610SOL    HW185892   8.465   5.953   7.792
24610SOL    HW285893   8.441   5.805   7.855
24611SOL     OW85894   7.564   6.572   8.956
24611SOL    HW185895   7.660   6.587   8.974
24611SOL    HW285896   7.526   6.510   9.025
24612SOL     OW85897   7.890   6.217   7.499
24612SOL    HW185898   7.850   6.296   7.452
24612SOL    HW285899   7.979   6.196   7.459
24613SOL     OW85900   8.405   6.173   8.951
24613SOL    HW185901   8.438   6.090   8.998
24613SOL    HW285902   8.478   6.241   8.950
24614SOL     OW85903   9.009   6.973   8.173
24614SOL    HW185904   9.005   7.008   8.266
24614SOL    HW285905   9.068   7.032   8.117
24615SOL     OW85906   8.598   5.849   7.560
24615SOL    HW185907   8.692   5.819   7.578
24615SOL    HW285908   8.546   5.849   7.646
24616SOL     OW85909   7.750   6.054   8.655
24616SOL    HW185910   7.740   5.967   8.607
24616SOL    HW285911   7.686   6.121   8.618
24617SOL     OW85912   8.832   6.334   8.693
24617SOL    HW185913   8.836   6.428   8.658
24617SOL    HW285914   8.925   6.303   8.715
24618SOL     OW85915   7.785   5.826   7.814
24618SOL    HW185916   7.739   5.866   7.893
24618SOL    HW285917   7.733   5.845   7.732
24619SOL     OW85918   8.913   7.353   8.726
24619SOL    HW185919   8.856   7.304   8.660
24619SOL    HW285920   8.999   7.380   8.683
24620SOL     OW85921   9.208   6.071   8.581
24620SOL    HW185922   9.265   6.153   8.583
24620SOL    HW285923   9.149   6.070   8.661
24621SOL     OW85924   9.225   7.297   8.494
24621SOL    HW185925   9.271   7.307   8.582
24621SOL    HW285926   9.292   7.300   8.421
24622SOL     OW85927   8.338   6.037   8.056
24622SOL    HW185928   8.414   6.065   8.115
24622SOL    HW285929   8.294   6.117   8.017
24623SOL     OW85930   8.573   6.501   7.573
24623SOL    HW185931   8.610   6.451   7.651
24623SOL    HW285932   8.503   6.446   7.528
24624SOL     OW85933   8.415   5.923   9.194
24624SOL    HW185934   8.478   5.928   9.271
24624SOL    HW285935   8.323   5.901   9.227
24625SOL     OW85936   8.450   7.308   7.560
24625SOL    HW185937   8.484   7.221   7.525
24625SOL    HW285938   8.418   7.296   7.654
24626SOL     OW85939   9.054   6.176   8.360
24626SOL    HW185940   9.039   6.267   8.397
24626SOL    HW285941   9.124   6.129   8.414
24627SOL     OW85942   8.464   6.842   9.126
24627SOL    HW185943   8.486   6.752   9.088
24627SOL    HW285944   8.399   6.889   9.067
24628SOL     OW85945   8.119   6.684   9.130
24628SOL    HW185946   8.090   6.761   9.187
24628SOL    HW285947   8.129   6.603   9.188
24629SOL     OW85948   8.754   5.548   8.236
24629SOL    HW185949   8.703   5.632   8.218
24629SOL    HW285950   8.840   5.550   8.185
24630SOL     OW85951   9.109   5.754   9.165
24630SOL    HW185952   9.086   5.775   9.260
24630SOL    HW285953   9.085   5.659   9.145
24631SOL     OW85954   7.412   6.158   7.909
24631SOL    HW185955   7.414   6.109   7.996
24631SOL    HW285956   7.414   6.257   7.927
24632SOL     OW85957   7.733   5.746   8.230
24632SOL    HW185958   7.785   5.786   8.305
24632SOL    HW285959   7.786   5.673   8.187
24633SOL     OW85960   7.717   5.794   8.564
24633SOL    HW185961   7.682   5.701   8.564
24633SOL    HW285962   7.804   5.797   8.515
24634SOL     OW85963   8.384   6.416   8.304
24634SOL    HW185964   8.410   6.496   8.250
24634SOL    HW285965   8.378   6.336   8.244
24635SOL     OW85966   8.867   6.912   8.637
24635SOL    HW185967   8.838   6.949   8.548
24635SOL    HW285968   8.789   6.912   8.699
24636SOL     OW85969   9.120   6.983   8.675
24636SOL    HW185970   9.151   6.997   8.769
24636SOL    HW285971   9.021   6.970   8.674
24637SOL     OW85972   7.872   6.483   7.402
24637SOL    HW185973   7.841   6.517   7.314
24637SOL    HW285974   7.876   6.558   7.468
24638SOL     OW85975   8.389   6.670   8.701
24638SOL    HW185976   8.439   6.585   8.685
24638SOL    HW285977   8.343   6.697   8.616
24639SOL     OW85978   7.476   6.375   7.575
24639SOL    HW185979   7.536   6.322   7.635
24639SOL    HW285980   7.382   6.343   7.587
24640SOL     OW85981   8.996   6.373   7.775
24640SOL    HW185982   9.064   6.307   7.742
24640SOL    HW285983   9.011   6.461   7.731
24641SOL     OW85984   8.244   7.360   8.423
24641SOL    HW185985   8.290   7.293   8.365
24641SOL    HW285986   8.170   7.316   8.473
24642SOL     OW85987   8.151   6.429   7.459
24642SOL    HW185988   8.180   6.348   7.510
24642SOL    HW285989   8.051   6.428   7.450
24643SOL     OW85990   7.644   6.162   8.905
24643SOL    HW185991   7.664   6.067   8.880
24643SOL    HW285992   7.607   6.165   8.998
24644SOL     OW85993   7.526   5.817   8.795
24644SOL    HW185994   7.598   5.827   8.726
24644SOL    HW285995   7.437   5.816   8.750
24645SOL     OW85996   8.424   6.438   8.560
24645SOL    HW185997   8.418   6.424   8.461
24645SOL    HW285998   8.343   6.399   8.604
24646SOL     OW85999   8.299   7.047   8.312
24646SOL    HW186000   8.357   7.058   8.231
24646SOL    HW286001   8.205   7.071   8.290
24647SOL     OW86002   8.249   5.913   7.597
24647SOL    HW186003   8.158   5.926   7.635
24647SOL    HW286004   8.309   5.873   7.667
24648SOL     OW86005   8.360   6.858   7.532
24648SOL    HW186006   8.413   6.798   7.592
24648SOL    HW286007   8.399   6.859   7.441
24649SOL     OW86008   9.111   7.153   8.017
24649SOL    HW186009   9.078   7.246   8.036
24649SOL    HW286010   9.109   7.137   7.918
24650SOL     OW86011   8.526   6.426   8.006
24650SOL    HW186012   8.591   6.454   8.077
24650SOL    HW286013   8.447   6.487   8.008
24651SOL     OW86014   8.274   7.152   9.030
24651SOL    HW186015   8.262   7.083   8.959
24651SOL    HW286016   8.237   7.117   9.117
24652SOL     OW86017   8.718   6.466   8.209
24652SOL    HW186018   8.739   6.408   8.287
24652SOL    HW286019   8.727   6.562   8.235
24653SOL     OW86020   8.307   6.543   7.954
24653SOL    HW186021   8.294   6.454   7.911
24653SOL    HW286022   8.238   6.557   8.025
24654SOL     OW86023   8.611   6.931   8.793
24654SOL    HW186024   8.644   7.016   8.834
24654SOL    HW286025   8.512   6.927   8.800
24655SOL     OW86026   7.418   5.848   7.857
24655SOL    HW186027   7.478   5.799   7.795
24655SOL    HW286028   7.473   5.900   7.922
24656SOL     OW86029   9.041   7.346   7.548
24656SOL    HW186030   9.131   7.390   7.550
24656SOL    HW286031   9.040   7.277   7.476
24657SOL     OW86032   8.205   6.313   8.706
24657SOL    HW186033   8.207   6.399   8.757
24657SOL    HW286034   8.262   6.245   8.753
24658SOL     OW86035   7.442   7.340   8.777
24658SOL    HW186036   7.450   7.440   8.775
24658SOL    HW286037   7.418   7.311   8.870
24659SOL     OW86038   8.223   6.359   7.771
24659SOL    HW186039   8.134   6.387   7.736
24659SOL    HW286040   8.264   6.293   7.707
24660SOL     OW86041   7.745   6.077   8.310
24660SOL    HW186042   7.801   6.070   8.227
24660SOL    HW286043   7.802   6.055   8.390
24661SOL     OW86044   8.718   7.297   8.518
24661SOL    HW186045   8.737   7.360   8.444
24661SOL    HW286046   8.726   7.203   8.485
24662SOL     OW86047   7.423   6.692   8.330
24662SOL    HW186048   7.333   6.708   8.291
24662SOL    HW286049   7.421   6.608   8.385
24663SOL     OW86050   8.174   5.597   7.780
24663SOL    HW186051   8.135   5.586   7.689
24663SOL    HW286052   8.130   5.673   7.827
24664SOL     OW86053   7.419   6.733   7.874
24664SOL    HW186054   7.497   6.791   7.898
24664SOL    HW286055   7.438   6.684   7.789
24665SOL     OW86056   8.949   5.861   8.958
24665SOL    HW186057   8.888   5.939   8.955
24665SOL    HW286058   9.004   5.865   9.041
24666SOL     OW86059   8.665   5.807   8.249
24666SOL    HW186060   8.664   5.885   8.186
24666SOL    HW286061   8.708   5.834   8.335
24667SOL     OW86062   8.785   5.613   7.545
24667SOL    HW186063   8.865   5.553   7.542
24667SOL    HW286064   8.711   5.566   7.593
24668SOL     OW86065   8.998   5.585   8.979
24668SOL    HW186066   9.024   5.542   8.893
24668SOL    HW286067   8.948   5.669   8.961
24669SOL     OW86068   8.100   5.844   8.111
24669SOL    HW186069   8.089   5.786   8.192
24669SOL    HW286070   8.185   5.896   8.119
24670SOL     OW86071   8.680   6.195   8.503
24670SOL    HW186072   8.734   6.235   8.429
24670SOL    HW286073   8.718   6.224   8.591
24671SOL     OW86074   7.949   6.916   9.182
24671SOL    HW186075   7.910   6.979   9.115
24671SOL    HW286076   8.032   6.956   9.222
24672SOL     OW86077   7.825   6.648   9.014
24672SOL    HW186078   7.844   6.672   8.919
24672SOL    HW286079   7.818   6.731   9.069
24673SOL     OW86080   8.572   6.139   8.221
24673SOL    HW186081   8.654   6.116   8.169
24673SOL    HW286082   8.567   6.080   8.302
24674SOL     OW86083   9.172   6.166   9.057
24674SOL    HW186084   9.161   6.252   9.006
24674SOL    HW286085   9.266   6.157   9.087
24675SOL     OW86086   8.743   5.939   8.476
24675SOL    HW186087   8.717   6.036   8.482
24675SOL    HW286088   8.743   5.899   8.568
24676SOL     OW86089   8.973   6.071   9.227
24676SOL    HW186090   9.053   6.096   9.171
24676SOL    HW286091   9.004   6.036   9.315
24677SOL     OW86092   8.684   6.374   7.807
24677SOL    HW186093   8.630   6.372   7.891
24677SOL    HW286094   8.761   6.437   7.818
24678SOL     OW86095   8.981   6.470   8.027
24678SOL    HW186096   8.995   6.433   7.934
24678SOL    HW286097   8.892   6.440   8.061
24679SOL     OW86098   9.137   6.407   8.922
24679SOL    HW186099   9.039   6.428   8.924
24679SOL    HW286100   9.186   6.483   8.881
24680SOL     OW86101   8.138   7.042   8.821
24680SOL    HW186102   8.075   7.120   8.828
24680SOL    HW286103   8.106   6.980   8.749
24681SOL     OW86104   7.529   5.837   9.086
24681SOL    HW186105   7.547   5.826   8.988
24681SOL    HW286106   7.431   5.833   9.103
24682SOL     OW86107   7.409   7.251   9.030
24682SOL    HW186108   7.481   7.237   9.098
24682SOL    HW286109   7.320   7.254   9.075
24683SOL     OW86110   7.577   5.907   8.054
24683SOL    HW186111   7.520   5.962   8.115
24683SOL    HW286112   7.647   5.859   8.107
24684SOL     OW86113   8.749   7.139   8.917
24684SOL    HW186114   8.702   7.207   8.972
24684SOL    HW286115   8.816   7.185   8.858
24685SOL     OW86116   7.714   6.098   7.652
24685SOL    HW186117   7.786   6.127   7.589
24685SOL    HW286118   7.670   6.178   7.692
24686SOL     OW86119   9.100   5.760   8.755
24686SOL    HW186120   9.056   5.808   8.831
24686SOL    HW286121   9.078   5.806   8.669
24687SOL     OW86122   8.638   7.074   9.209
24687SOL    HW186123   8.597   6.989   9.175
24687SOL    HW286124   8.618   7.148   9.145
24688SOL     OW86125   8.128   6.794   7.899
24688SOL    HW186126   8.171   6.725   7.841
24688SOL    HW286127   8.092   6.751   7.982
24689SOL     OW86128   7.760   6.345   8.101
24689SOL    HW186129   7.752   6.443   8.119
24689SOL    HW286130   7.844   6.311   8.142
24690SOL     OW86131   7.606   5.825   7.616
24690SOL    HW186132   7.650   5.794   7.533
24690SOL    HW286133   7.607   5.925   7.620
24691SOL     OW86134   7.459   6.077   8.227
24691SOL    HW186135   7.423   6.170   8.219
24691SOL    HW286136   7.542   6.078   8.283
24692SOL     OW86137   8.520   6.256   7.429
24692SOL    HW186138   8.451   6.313   7.385
24692SOL    HW286139   8.601   6.250   7.370
24693SOL     OW86140   8.255   6.175   7.572
24693SOL    HW186141   8.345   6.176   7.527
24693SOL    HW286142   8.232   6.081   7.597
24694SOL     OW86143   8.820   6.092   8.882
24694SOL    HW186144   8.772   6.115   8.966
24694SOL    HW286145   8.754   6.062   8.813
24695SOL     OW86146   7.455   5.607   7.526
24695SOL    HW186147   7.518   5.530   7.534
24695SOL    HW286148   7.475   5.675   7.597
24696SOL     OW86149   9.027   6.594   7.627
24696SOL    HW186150   9.098   6.664   7.629
24696SOL    HW286151   9.014   6.564   7.532
24697SOL     OW86152   8.009   6.195   8.549
24697SOL    HW186153   8.084   6.238   8.598
24697SOL    HW286154   7.942   6.160   8.615
24698SOL     OW86155   8.152   6.564   8.866
24698SOL    HW186156   8.221   6.616   8.816
24698SOL    HW286157   8.147   6.597   8.961
24699SOL     OW86158   8.544   6.585   9.026
24699SOL    HW186159   8.466   6.531   9.059
24699SOL    HW286160   8.625   6.563   9.081
24700SOL     OW86161   8.473   5.767   8.022
24700SOL    HW186162   8.532   5.827   8.077
24700SOL    HW286163   8.400   5.731   8.079
24701SOL     OW86164   8.583   7.299   9.062
24701SOL    HW186165   8.488   7.297   9.030
24701SOL    HW286166   8.604   7.390   9.099
24702SOL     OW86167   8.001   5.644   8.293
24702SOL    HW186168   7.929   5.577   8.279
24702SOL    HW286169   8.083   5.598   8.328
24703SOL     OW86170   7.701   7.309   8.660
24703SOL    HW186171   7.681   7.291   8.564
24703SOL    HW286172   7.628   7.271   8.717
24704SOL     OW86173   8.394   6.773   8.205
24704SOL    HW186174   8.433   6.816   8.124
24704SOL    HW286175   8.467   6.756   8.272
24705SOL     OW86176   8.088   6.501   8.407
24705SOL    HW186177   8.086   6.417   8.352
24705SOL    HW286178   8.037   6.487   8.492
24706SOL     OW86179   7.655   5.556   7.813
24706SOL    HW186180   7.693   5.644   7.840
24706SOL    HW286181   7.578   5.532   7.873
24707SOL     OW86182   8.071   6.173   9.141
24707SOL    HW186183   8.023   6.224   9.070
24707SOL    HW286184   8.164   6.152   9.111
24708SOL     OW86185   9.174   5.755   8.234
24708SOL    HW186186   9.129   5.737   8.321
24708SOL    HW286187   9.272   5.772   8.250
24709SOL     OW86188   8.222   6.731   8.486
24709SOL    HW186189   8.173   6.646   8.467
24709SOL    HW286190   8.292   6.746   8.417
24710SOL     OW86191   8.560   6.154   7.695
24710SOL    HW186192   8.612   6.226   7.741
24710SOL    HW286193   8.573   6.161   7.597
24711SOL     OW86194   8.921   6.969   9.022
24711SOL    HW186195   8.906   6.871   9.036
24711SOL    HW286196   8.838   7.011   8.986
24712SOL     OW86197   8.180   7.037   7.420
24712SOL    HW186198   8.155   7.114   7.479
24712SOL    HW286199   8.244   6.977   7.468
24713SOL     OW86200   8.141   6.655   8.171
24713SOL    HW186201   8.230   6.701   8.171
24713SOL    HW286202   8.134   6.595   8.250
24714SOL     OW86203   8.319   7.002   7.840
24714SOL    HW186204   8.369   6.990   7.755
24714SOL    HW286205   8.265   6.919   7.859
24715SOL     OW86206   7.509   6.349   8.240
24715SOL    HW186207   7.604   6.340   8.208
24715SOL    HW286208   7.475   6.441   8.219
24716SOL     OW86209   8.343   7.375   8.873
24716SOL    HW186210   8.315   7.288   8.914
24716SOL    HW286211   8.287   7.449   8.910
24717SOL     OW86212   8.572   6.722   8.403
24717SOL    HW186213   8.556   6.816   8.434
24717SOL    HW286214   8.575   6.661   8.483
24718SOL     OW86215   7.846   5.993   9.167
24718SOL    HW186216   7.882   5.940   9.090
24718SOL    HW286217   7.907   6.070   9.185
24719SOL     OW86218   7.910   6.410   7.739
24719SOL    HW186219   7.860   6.475   7.683
24719SOL    HW286220   7.852   6.331   7.758
24720SOL     OW86221   8.991   6.441   8.437
24720SOL    HW186222   9.010   6.480   8.346
24720SOL    HW286223   8.945   6.510   8.493
24721SOL     OW86224   8.683   5.884   8.733
24721SOL    HW186225   8.754   5.856   8.797
24721SOL    HW286226   8.630   5.804   8.705
24722SOL     OW86227   7.384   5.583   7.934
24722SOL    HW186228   7.297   5.570   7.887
24722SOL    HW286229   7.392   5.678   7.964
24723SOL     OW86230   7.821   7.103   9.000
24723SOL    HW186231   7.763   7.168   9.049
24723SOL    HW286232   7.883   7.153   8.940
24724SOL     OW86233   9.177   6.990   8.941
24724SOL    HW186234   9.205   7.083   8.963
24724SOL    HW286235   9.084   6.974   8.974
24725SOL     OW86236   8.427   6.103   8.491
24725SOL    HW186237   8.513   6.154   8.490
24725SOL    HW286238   8.433   6.029   8.558
24726SOL     OW86239   8.472   7.166   8.651
24726SOL    HW186240   8.398   7.230   8.669
24726SOL    HW286241   8.551   7.215   8.613
24727SOL     OW86242   7.681   7.296   9.150
24727SOL    HW186243   7.724   7.380   9.116
24727SOL    HW286244   7.706   7.283   9.246
24728SOL     OW86245   7.541   6.832   9.021
24728SOL    HW186246   7.520   6.737   8.994
24728SOL    HW286247   7.472   6.893   8.983
24729SOL     OW86248   8.376   5.718   8.280
24729SOL    HW186249   8.472   5.719   8.308
24729SOL    HW286250   8.321   5.675   8.352
24730SOL     OW86251   8.438   6.724   7.796
24730SOL    HW186252   8.518   6.760   7.844
24730SOL    HW286253   8.396   6.651   7.852
24731SOL     OW86254   9.029   5.991   8.160
24731SOL    HW186255   9.048   6.077   8.207
24731SOL    HW286256   9.097   5.922   8.188
24732SOL     OW86257   8.172   6.663   7.646
24732SOL    HW186258   8.244   6.722   7.611
24732SOL    HW286259   8.212   6.579   7.682
24733SOL     OW86260   8.243   5.639   7.498
24733SOL    HW186261   8.318   5.573   7.510
24733SOL    HW286262   8.274   5.730   7.526
24734SOL     OW86263   7.922   6.068   8.110
24734SOL    HW186264   7.960   5.979   8.136
24734SOL    HW286265   7.989   6.118   8.055
24735SOL     OW86266   7.910   6.626   8.764
24735SOL    HW186267   8.006   6.606   8.784
24735SOL    HW286268   7.899   6.724   8.746
24736SOL     OW86269   9.132   6.669   8.733
24736SOL    HW186270   9.146   6.767   8.747
24736SOL    HW286271   9.189   6.638   8.657
24737SOL     OW86272   8.692   6.640   8.809
24737SOL    HW186273   8.636   6.599   8.880
24737SOL    HW286274   8.672   6.738   8.803
24738SOL     OW86275   7.959   7.256   8.809
24738SOL    HW186276   8.008   7.336   8.773
24738SOL    HW286277   7.867   7.254   8.770
24739SOL     OW86278   7.602   6.137   9.171
24739SOL    HW186279   7.619   6.038   9.176
24739SOL    HW286280   7.666   6.185   9.232
24740SOL     OW86281   9.041   7.098   8.410
24740SOL    HW186282   9.013   7.191   8.434
24740SOL    HW286283   9.091   7.057   8.486
24741SOL     OW86284   7.437   6.471   7.971
24741SOL    HW186285   7.444   6.570   7.958
24741SOL    HW286286   7.346   6.448   8.005
24742SOL     OW86287   7.946   6.269   8.909
24742SOL    HW186288   7.852   6.239   8.890
24742SOL    HW286289   7.955   6.366   8.886
24743SOL     OW86290   9.013   6.645   8.221
24743SOL    HW186291   8.975   6.734   8.194
24743SOL    HW286292   9.013   6.583   8.143
24744SOL     OW86293   8.171   6.051   8.390
24744SOL    HW186294   8.263   6.079   8.417
24744SOL    HW286295   8.103   6.102   8.444
24745SOL     OW86296   7.590   6.244   8.531
24745SOL    HW186297   7.628   6.303   8.602
24745SOL    HW286298   7.573   6.297   8.449
24746SOL     OW86299   9.004   7.206   9.177
24746SOL    HW186300   8.973   7.128   9.122
24746SOL    HW286301   8.973   7.291   9.135
24747SOL     OW86302   8.712   6.744   7.898
24747SOL    HW186303   8.811   6.748   7.914
24747SOL    HW286304   8.695   6.730   7.800
24748SOL     OW86305   8.065   5.910   7.846
24748SOL    HW186306   7.967   5.904   7.826
24748SOL    HW286307   8.084   5.867   7.934
24749SOL     OW86308   8.985   5.593   8.105
24749SOL    HW186309   8.980   5.634   8.014
24749SOL    HW286310   9.066   5.627   8.152
24750SOL     OW86311   8.588   6.349   8.798
24750SOL    HW186312   8.687   6.358   8.788
24750SOL    HW286313   8.544   6.351   8.708
24751SOL     OW86314   8.082   6.309   8.200
24751SOL    HW186315   8.104   6.231   8.258
24751SOL    HW286316   8.091   6.283   8.104
24752SOL     OW86317   8.747   7.016   8.412
24752SOL    HW186318   8.661   6.973   8.441
24752SOL    HW286319   8.736   7.056   8.321
24753SOL     OW86320   8.750   6.001   8.087
24753SOL    HW186321   8.749   5.993   7.988
24753SOL    HW286322   8.839   5.973   8.122
24754SOL     OW86323   8.477   7.017   9.919
24754SOL    HW186324   8.568   7.051   9.942
24754SOL    HW286325   8.449   7.055   9.831
24755SOL     OW86326   8.988   6.813   9.777
24755SOL    HW186327   8.999   6.897   9.831
24755SOL    HW286328   9.078   6.776   9.754
24756SOL     OW86329   7.735   5.732   9.246
24756SOL    HW186330   7.648   5.729   9.197
24756SOL    HW286331   7.786   5.814   9.218
24757SOL     OW86332   7.963   5.619   9.372
24757SOL    HW186333   8.051   5.647   9.333
24757SOL    HW286334   7.891   5.682   9.342
24758SOL     OW86335   8.099   6.165   9.776
24758SOL    HW186336   8.138   6.235   9.717
24758SOL    HW286337   8.073   6.085   9.722
24759SOL     OW86338   7.802   6.928   9.429
24759SOL    HW186339   7.866   6.944   9.354
24759SOL    HW286340   7.826   6.986   9.507
24760SOL     OW86341   7.650   6.310   9.657
24760SOL    HW186342   7.665   6.244   9.731
24760SOL    HW286343   7.600   6.389   9.692
24761SOL     OW86344   9.128   7.137   9.576
24761SOL    HW186345   9.224   7.111   9.569
24761SOL    HW286346   9.104   7.197   9.500
24762SOL     OW86347   8.440   5.859   9.616
24762SOL    HW186348   8.465   5.953   9.637
24762SOL    HW286349   8.441   5.805   9.700
24763SOL     OW86350   7.890   6.217   9.344
24763SOL    HW186351   7.850   6.296   9.297
24763SOL    HW286352   7.979   6.196   9.304
24764SOL     OW86353   9.009   6.973  10.018
24764SOL    HW186354   9.005   7.008  10.111
24764SOL    HW286355   9.068   7.032   9.962
24765SOL     OW86356   7.740   6.794   9.694
24765SOL    HW186357   7.786   6.768   9.779
24765SOL    HW286358   7.760   6.726   9.623
24766SOL     OW86359   8.598   5.849   9.405
24766SOL    HW186360   8.692   5.819   9.423
24766SOL    HW286361   8.546   5.849   9.491
24767SOL     OW86362   7.785   5.826   9.659
24767SOL    HW186363   7.739   5.866   9.738
24767SOL    HW286364   7.733   5.845   9.577
24768SOL     OW86365   9.225   7.297  10.339
24768SOL    HW186366   9.271   7.307  10.427
24768SOL    HW286367   9.292   7.300  10.266
24769SOL     OW86368   8.338   6.037   9.901
24769SOL    HW186369   8.414   6.065   9.960
24769SOL    HW286370   8.294   6.117   9.862
24770SOL     OW86371   8.573   6.501   9.418
24770SOL    HW186372   8.610   6.451   9.496
24770SOL    HW286373   8.503   6.446   9.373
24771SOL     OW86374   9.156   6.170   9.497
24771SOL    HW186375   9.177   6.089   9.443
24771SOL    HW286376   9.173   6.151   9.594
24772SOL     OW86377   8.450   7.308   9.405
24772SOL    HW186378   8.484   7.221   9.370
24772SOL    HW286379   8.418   7.296   9.499
24773SOL     OW86380   7.412   6.158   9.754
24773SOL    HW186381   7.414   6.109   9.841
24773SOL    HW286382   7.414   6.257   9.772
24774SOL     OW86383   7.585   7.043   9.608
24774SOL    HW186384   7.612   6.949   9.628
24774SOL    HW286385   7.610   7.065   9.514
24775SOL     OW86386   7.599   7.186   9.845
24775SOL    HW186387   7.515   7.237   9.863
24775SOL    HW286388   7.590   7.135   9.760
24776SOL     OW86389   7.872   6.483   9.247
24776SOL    HW186390   7.841   6.517   9.159
24776SOL    HW286391   7.876   6.558   9.313
24777SOL     OW86392   7.476   6.375   9.420
24777SOL    HW186393   7.536   6.322   9.480
24777SOL    HW286394   7.382   6.343   9.432
24778SOL     OW86395   8.996   6.373   9.620
24778SOL    HW186396   9.064   6.307   9.587
24778SOL    HW286397   9.011   6.461   9.576
24779SOL     OW86398   8.151   6.429   9.304
24779SOL    HW186399   8.180   6.348   9.355
24779SOL    HW286400   8.051   6.428   9.295
24780SOL     OW86401   8.747   5.961   9.650
24780SOL    HW186402   8.684   6.019   9.598
24780SOL    HW286403   8.840   5.995   9.638
24781SOL     OW86404   9.015   5.972   9.720
24781SOL    HW186405   9.111   5.943   9.717
24781SOL    HW286406   8.976   5.950   9.809
24782SOL     OW86407   8.249   5.913   9.442
24782SOL    HW186408   8.158   5.926   9.480
24782SOL    HW286409   8.309   5.873   9.512
24783SOL     OW86410   8.360   6.858   9.377
24783SOL    HW186411   8.413   6.798   9.437
24783SOL    HW286412   8.399   6.859   9.286
24784SOL     OW86413   9.111   7.153   9.862
24784SOL    HW186414   9.078   7.246   9.881
24784SOL    HW286415   9.109   7.137   9.763
24785SOL     OW86416   8.526   6.426   9.851
24785SOL    HW186417   8.591   6.454   9.922
24785SOL    HW286418   8.447   6.487   9.853
24786SOL     OW86419   8.718   6.466  10.054
24786SOL    HW186420   8.739   6.408  10.132
24786SOL    HW286421   8.727   6.562  10.080
24787SOL     OW86422   8.307   6.543   9.799
24787SOL    HW186423   8.294   6.454   9.756
24787SOL    HW286424   8.238   6.557   9.870
24788SOL     OW86425   7.418   5.848   9.702
24788SOL    HW186426   7.478   5.799   9.640
24788SOL    HW286427   7.473   5.900   9.767
24789SOL     OW86428   9.041   7.346   9.393
24789SOL    HW186429   9.131   7.390   9.395
24789SOL    HW286430   9.040   7.277   9.321
24790SOL     OW86431   8.223   6.359   9.616
24790SOL    HW186432   8.134   6.387   9.581
24790SOL    HW286433   8.264   6.293   9.552
24791SOL     OW86434   7.742   7.275   9.426
24791SOL    HW186435   7.834   7.305   9.401
24791SOL    HW286436   7.717   7.314   9.515
24792SOL     OW86437   8.174   5.597   9.625
24792SOL    HW186438   8.135   5.586   9.534
24792SOL    HW286439   8.130   5.673   9.672
24793SOL     OW86440   7.419   6.733   9.719
24793SOL    HW186441   7.497   6.791   9.743
24793SOL    HW286442   7.438   6.684   9.634
24794SOL     OW86443   8.100   5.844   9.956
24794SOL    HW186444   8.089   5.786  10.037
24794SOL    HW286445   8.185   5.896   9.964
24795SOL     OW86446   8.973   5.601   9.664
24795SOL    HW186447   8.980   5.555   9.576
24795SOL    HW286448   8.877   5.611   9.689
24796SOL     OW86449   8.684   6.374   9.652
24796SOL    HW186450   8.630   6.372   9.736
24796SOL    HW286451   8.761   6.437   9.663
24797SOL     OW86452   8.981   6.470   9.872
24797SOL    HW186453   8.995   6.433   9.779
24797SOL    HW286454   8.892   6.440   9.906
24798SOL     OW86455   8.991   5.827   9.446
24798SOL    HW186456   8.996   5.869   9.537
24798SOL    HW286457   8.924   5.752   9.448
24799SOL     OW86458   7.714   6.098   9.497
24799SOL    HW186459   7.786   6.127   9.434
24799SOL    HW286460   7.670   6.178   9.537
24800SOL     OW86461   7.606   5.825   9.461
24800SOL    HW186462   7.650   5.794   9.378
24800SOL    HW286463   7.607   5.925   9.465
24801SOL     OW86464   7.459   6.077  10.072
24801SOL    HW186465   7.423   6.170  10.064
24801SOL    HW286466   7.542   6.078  10.128
24802SOL     OW86467   7.894   6.664   9.458
24802SOL    HW186468   7.994   6.664   9.469
24802SOL    HW286469   7.863   6.757   9.437
24803SOL     OW86470   8.520   6.256   9.274
24803SOL    HW186471   8.451   6.313   9.230
24803SOL    HW286472   8.601   6.250   9.215
24804SOL     OW86473   8.255   6.175   9.417
24804SOL    HW186474   8.345   6.176   9.372
24804SOL    HW286475   8.232   6.081   9.442
24805SOL     OW86476   8.706   5.692   9.711
24805SOL    HW186477   8.616   5.676   9.752
24805SOL    HW286478   8.714   5.788   9.685
24806SOL     OW86479   7.455   5.607   9.371
24806SOL    HW186480   7.518   5.530   9.379
24806SOL    HW286481   7.475   5.675   9.442
24807SOL     OW86482   9.027   6.594   9.472
24807SOL    HW186483   9.098   6.664   9.474
24807SOL    HW286484   9.014   6.564   9.377
24808SOL     OW86485   8.473   5.767   9.867
24808SOL    HW186486   8.532   5.827   9.922
24808SOL    HW286487   8.400   5.731   9.924
24809SOL     OW86488   7.655   5.556   9.658
24809SOL    HW186489   7.693   5.644   9.685
24809SOL    HW286490   7.578   5.532   9.718
24810SOL     OW86491   7.477   6.643   9.478
24810SOL    HW186492   7.467   6.546   9.457
24810SOL    HW286493   7.530   6.688   9.406
24811SOL     OW86494   9.174   5.755  10.079
24811SOL    HW186495   9.129   5.737  10.166
24811SOL    HW286496   9.272   5.772  10.095
24812SOL     OW86497   8.560   6.154   9.540
24812SOL    HW186498   8.612   6.226   9.586
24812SOL    HW286499   8.573   6.161   9.442
24813SOL     OW86500   8.180   7.037   9.265
24813SOL    HW186501   8.155   7.114   9.324
24813SOL    HW286502   8.244   6.977   9.313
24814SOL     OW86503   8.141   6.655  10.016
24814SOL    HW186504   8.230   6.701  10.016
24814SOL    HW286505   8.134   6.595  10.095
24815SOL     OW86506   7.910   6.410   9.584
24815SOL    HW186507   7.860   6.475   9.528
24815SOL    HW286508   7.852   6.331   9.603
24816SOL     OW86509   7.384   5.583   9.779
24816SOL    HW186510   7.297   5.570   9.732
24816SOL    HW286511   7.392   5.678   9.809
24817SOL     OW86512   8.438   6.724   9.641
24817SOL    HW186513   8.518   6.760   9.689
24817SOL    HW286514   8.396   6.651   9.697
24818SOL     OW86515   9.029   5.991  10.005
24818SOL    HW186516   9.048   6.077  10.052
24818SOL    HW286517   9.097   5.922  10.033
24819SOL     OW86518   8.172   6.663   9.491
24819SOL    HW186519   8.244   6.722   9.456
24819SOL    HW286520   8.212   6.579   9.527
24820SOL     OW86521   7.922   6.068   9.955
24820SOL    HW186522   7.960   5.979   9.981
24820SOL    HW286523   7.989   6.118   9.900
24821SOL     OW86524   7.615   6.778   9.270
24821SOL    HW186525   7.607   6.790   9.171
24821SOL    HW286526   7.674   6.849   9.308
24822SOL     OW86527   8.042   7.217   9.430
24822SOL    HW186528   8.017   7.312   9.414
24822SOL    HW286529   8.009   7.189   9.520
24823SOL     OW86530   7.437   6.471   9.816
24823SOL    HW186531   7.444   6.570   9.803
24823SOL    HW286532   7.346   6.448   9.850
24824SOL     OW86533   8.712   6.744   9.743
24824SOL    HW186534   8.811   6.748   9.759
24824SOL    HW286535   8.695   6.730   9.645
24825SOL     OW86536   8.065   5.910   9.691
24825SOL    HW186537   7.967   5.904   9.671
24825SOL    HW286538   8.084   5.867   9.779
24826SOL     OW86539   8.985   5.593   9.950
24826SOL    HW186540   8.980   5.634   9.859
24826SOL    HW286541   9.066   5.627   9.997
24827SOL     OW86542   8.750   6.001   9.932
24827SOL    HW186543   8.749   5.993   9.833
24827SOL    HW286544   8.839   5.973   9.967
24828SOL     OW86545   8.477   8.863   0.692
24828SOL    HW186546   8.568   8.897   0.715
24828SOL    HW286547   8.449   8.901   0.604
24829SOL     OW86548   8.988   8.659   0.550
24829SOL    HW186549   8.999   8.743   0.604
24829SOL    HW286550   9.078   8.622   0.527
24830SOL     OW86551   9.068   7.941   1.414
24830SOL    HW186552   8.970   7.933   1.436
24830SOL    HW286553   9.121   7.930   1.498
24831SOL     OW86554   7.735   7.578   0.019
24831SOL    HW186555   7.648   7.575  -0.030
24831SOL    HW286556   7.786   7.660  -0.009
24832SOL     OW86557   8.722   8.967   0.794
24832SOL    HW186558   8.711   9.064   0.817
24832SOL    HW286559   8.815   8.950   0.764
24833SOL     OW86560   8.600   7.478   1.352
24833SOL    HW186561   8.524   7.433   1.399
24833SOL    HW286562   8.629   7.423   1.274
24834SOL     OW86563   7.945   8.932   0.423
24834SOL    HW186564   7.901   8.941   0.512
24834SOL    HW286565   8.016   8.862   0.427
24835SOL     OW86566   8.933   8.450   1.528
24835SOL    HW186567   8.841   8.455   1.490
24835SOL    HW286568   8.998   8.488   1.462
24836SOL     OW86569   8.833   8.457   1.209
24836SOL    HW186570   8.758   8.446   1.274
24836SOL    HW286571   8.870   8.550   1.215
24837SOL     OW86572   8.329   8.712   1.509
24837SOL    HW186573   8.272   8.775   1.455
24837SOL    HW286574   8.362   8.638   1.450
24838SOL     OW86575   7.872   8.605   0.718
24838SOL    HW186576   7.805   8.559   0.777
24838SOL    HW286577   7.964   8.573   0.741
24839SOL     OW86578   8.099   8.011   0.549
24839SOL    HW186579   8.138   8.081   0.490
24839SOL    HW286580   8.073   7.931   0.495
24840SOL     OW86581   8.719   7.919   1.758
24840SOL    HW186582   8.815   7.923   1.784
24840SOL    HW286583   8.675   7.843   1.805
24841SOL     OW86584   7.802   8.774   0.202
24841SOL    HW186585   7.866   8.790   0.127
24841SOL    HW286586   7.826   8.832   0.280
24842SOL     OW86587   7.650   8.156   0.430
24842SOL    HW186588   7.665   8.090   0.504
24842SOL    HW286589   7.600   8.235   0.465
24843SOL     OW86590   8.236   9.101   0.607
24843SOL    HW186591   8.301   9.034   0.571
24843SOL    HW286592   8.226   9.177   0.543
24844SOL     OW86593   9.128   8.983   0.349
24844SOL    HW186594   9.224   8.957   0.342
24844SOL    HW286595   9.104   9.043   0.273
24845SOL     OW86596   9.040   7.676   1.120
24845SOL    HW186597   9.091   7.748   1.073
24845SOL    HW286598   8.945   7.703   1.129
24846SOL     OW86599   7.564   8.418   1.574
24846SOL    HW186600   7.660   8.433   1.592
24846SOL    HW286601   7.526   8.356   1.643
24847SOL     OW86602   7.890   8.063   0.117
24847SOL    HW186603   7.850   8.142   0.070
24847SOL    HW286604   7.979   8.042   0.077
24848SOL     OW86605   8.063   8.987   0.815
24848SOL    HW186606   8.136   9.010   0.751
24848SOL    HW286607   7.992   8.934   0.769
24849SOL     OW86608   9.009   8.819   0.791
24849SOL    HW186609   9.005   8.854   0.884
24849SOL    HW286610   9.068   8.878   0.735
24850SOL     OW86611   7.740   8.640   0.467
24850SOL    HW186612   7.786   8.614   0.552
24850SOL    HW286613   7.760   8.572   0.396
24851SOL     OW86614   8.832   8.180   1.311
24851SOL    HW186615   8.836   8.274   1.276
24851SOL    HW286616   8.925   8.149   1.333
24852SOL     OW86617   7.785   7.672   0.432
24852SOL    HW186618   7.739   7.712   0.511
24852SOL    HW286619   7.733   7.691   0.350
24853SOL     OW86620   8.913   9.199   1.344
24853SOL    HW186621   8.856   9.150   1.278
24853SOL    HW286622   8.999   9.226   1.301
24854SOL     OW86623   9.208   7.917   1.199
24854SOL    HW186624   9.265   7.999   1.201
24854SOL    HW286625   9.149   7.916   1.279
24855SOL     OW86626   9.225   9.143   1.112
24855SOL    HW186627   9.271   9.153   1.200
24855SOL    HW286628   9.292   9.146   1.039
24856SOL     OW86629   8.573   8.347   0.191
24856SOL    HW186630   8.610   8.297   0.269
24856SOL    HW286631   8.503   8.292   0.146
24857SOL     OW86632   9.156   8.016   0.270
24857SOL    HW186633   9.177   7.935   0.216
24857SOL    HW286634   9.173   7.997   0.367
24858SOL     OW86635   8.450   9.154   0.178
24858SOL    HW186636   8.484   9.067   0.143
24858SOL    HW286637   8.418   9.142   0.272
24859SOL     OW86638   8.131   7.421   1.710
24859SOL    HW186639   8.138   7.327   1.677
24859SOL    HW286640   8.188   7.431   1.792
24860SOL     OW86641   9.054   8.022   0.978
24860SOL    HW186642   9.039   8.113   1.015
24860SOL    HW286643   9.124   7.975   1.032
24861SOL     OW86644   8.464   8.688   1.744
24861SOL    HW186645   8.486   8.598   1.706
24861SOL    HW286646   8.399   8.735   1.685
24862SOL     OW86647   9.109   7.600   1.783
24862SOL    HW186648   9.086   7.621   1.878
24862SOL    HW286649   9.085   7.505   1.763
24863SOL     OW86650   7.412   8.004   0.527
24863SOL    HW186651   7.414   7.955   0.614
24863SOL    HW286652   7.414   8.103   0.545
24864SOL     OW86653   7.733   7.592   0.848
24864SOL    HW186654   7.785   7.632   0.923
24864SOL    HW286655   7.786   7.519   0.805
24865SOL     OW86656   7.717   7.640   1.182
24865SOL    HW186657   7.682   7.547   1.182
24865SOL    HW286658   7.804   7.643   1.133
24866SOL     OW86659   8.384   8.262   0.922
24866SOL    HW186660   8.410   8.342   0.868
24866SOL    HW286661   8.378   8.182   0.862
24867SOL     OW86662   7.585   8.889   0.381
24867SOL    HW186663   7.612   8.795   0.401
24867SOL    HW286664   7.610   8.911   0.287
24868SOL     OW86665   8.867   8.758   1.255
24868SOL    HW186666   8.838   8.795   1.166
24868SOL    HW286667   8.789   8.758   1.317
24869SOL     OW86668   7.599   9.032   0.618
24869SOL    HW186669   7.515   9.083   0.636
24869SOL    HW286670   7.590   8.981   0.533
24870SOL     OW86671   9.120   8.829   1.293
24870SOL    HW186672   9.151   8.843   1.387
24870SOL    HW286673   9.021   8.816   1.292
24871SOL     OW86674   7.872   8.329   0.020
24871SOL    HW186675   7.841   8.363  -0.068
24871SOL    HW286676   7.876   8.404   0.086
24872SOL     OW86677   8.389   8.516   1.319
24872SOL    HW186678   8.439   8.431   1.303
24872SOL    HW286679   8.343   8.543   1.234
24873SOL     OW86680   7.476   8.221   0.193
24873SOL    HW186681   7.536   8.168   0.253
24873SOL    HW286682   7.382   8.189   0.205
24874SOL     OW86683   8.996   8.219   0.393
24874SOL    HW186684   9.064   8.153   0.360
24874SOL    HW286685   9.011   8.307   0.349
24875SOL     OW86686   8.244   9.206   1.041
24875SOL    HW186687   8.290   9.139   0.983
24875SOL    HW286688   8.170   9.162   1.091
24876SOL     OW86689   8.151   8.275   0.077
24876SOL    HW186690   8.180   8.194   0.128
24876SOL    HW286691   8.051   8.274   0.068
24877SOL     OW86692   8.747   7.807   0.423
24877SOL    HW186693   8.684   7.865   0.371
24877SOL    HW286694   8.840   7.841   0.411
24878SOL     OW86695   7.644   8.008   1.523
24878SOL    HW186696   7.664   7.913   1.498
24878SOL    HW286697   7.607   8.011   1.616
24879SOL     OW86698   8.424   8.284   1.178
24879SOL    HW186699   8.418   8.270   1.079
24879SOL    HW286700   8.343   8.245   1.222
24880SOL     OW86701   8.299   8.893   0.930
24880SOL    HW186702   8.357   8.904   0.849
24880SOL    HW286703   8.205   8.917   0.908
24881SOL     OW86704   8.360   8.704   0.150
24881SOL    HW186705   8.413   8.644   0.210
24881SOL    HW286706   8.399   8.705   0.059
24882SOL     OW86707   9.111   8.999   0.635
24882SOL    HW186708   9.078   9.092   0.654
24882SOL    HW286709   9.109   8.983   0.536
24883SOL     OW86710   8.526   8.272   0.624
24883SOL    HW186711   8.591   8.300   0.695
24883SOL    HW286712   8.447   8.333   0.626
24884SOL     OW86713   8.274   8.998   1.648
24884SOL    HW186714   8.262   8.929   1.577
24884SOL    HW286715   8.237   8.963   1.735
24885SOL     OW86716   8.718   8.312   0.827
24885SOL    HW186717   8.739   8.254   0.905
24885SOL    HW286718   8.727   8.408   0.853
24886SOL     OW86719   7.674   8.441   0.873
24886SOL    HW186720   7.597   8.503   0.866
24886SOL    HW286721   7.711   8.442   0.966
24887SOL     OW86722   8.307   8.389   0.572
24887SOL    HW186723   8.294   8.300   0.529
24887SOL    HW286724   8.238   8.403   0.643
24888SOL     OW86725   8.611   8.777   1.411
24888SOL    HW186726   8.644   8.862   1.452
24888SOL    HW286727   8.512   8.773   1.418
24889SOL     OW86728   7.418   7.694   0.475
24889SOL    HW186729   7.478   7.645   0.413
24889SOL    HW286730   7.473   7.746   0.540
24890SOL     OW86731   9.041   9.192   0.166
24890SOL    HW186732   9.131   9.236   0.168
24890SOL    HW286733   9.040   9.123   0.094
24891SOL     OW86734   7.442   9.186   1.395
24891SOL    HW186735   7.450   9.286   1.393
24891SOL    HW286736   7.418   9.157   1.488
24892SOL     OW86737   8.223   8.205   0.389
24892SOL    HW186738   8.134   8.233   0.354
24892SOL    HW286739   8.264   8.139   0.325
24893SOL     OW86740   7.745   7.923   0.928
24893SOL    HW186741   7.801   7.916   0.845
24893SOL    HW286742   7.802   7.901   1.008
24894SOL     OW86743   7.742   9.121   0.199
24894SOL    HW186744   7.834   9.151   0.174
24894SOL    HW286745   7.717   9.160   0.288
24895SOL     OW86746   8.718   9.143   1.136
24895SOL    HW186747   8.737   9.206   1.062
24895SOL    HW286748   8.726   9.049   1.103
24896SOL     OW86749   7.423   8.538   0.948
24896SOL    HW186750   7.333   8.554   0.909
24896SOL    HW286751   7.421   8.454   1.003
24897SOL     OW86752   8.174   7.443   0.398
24897SOL    HW186753   8.135   7.432   0.307
24897SOL    HW286754   8.130   7.519   0.445
24898SOL     OW86755   7.419   8.579   0.492
24898SOL    HW186756   7.497   8.637   0.516
24898SOL    HW286757   7.438   8.530   0.407
24899SOL     OW86758   8.949   7.707   1.576
24899SOL    HW186759   8.888   7.785   1.573
24899SOL    HW286760   9.004   7.711   1.659
24900SOL     OW86761   8.665   7.653   0.867
24900SOL    HW186762   8.664   7.731   0.804
24900SOL    HW286763   8.708   7.680   0.953
24901SOL     OW86764   8.785   7.459   0.163
24901SOL    HW186765   8.865   7.399   0.160
24901SOL    HW286766   8.711   7.412   0.211
24902SOL     OW86767   8.998   7.431   1.597
24902SOL    HW186768   9.024   7.388   1.511
24902SOL    HW286769   8.948   7.515   1.579
24903SOL     OW86770   8.680   8.041   1.121
24903SOL    HW186771   8.734   8.081   1.047
24903SOL    HW286772   8.718   8.070   1.209
24904SOL     OW86773   8.973   7.447   0.437
24904SOL    HW186774   8.980   7.401   0.349
24904SOL    HW286775   8.877   7.457   0.462
24905SOL     OW86776   7.949   8.762   1.800
24905SOL    HW186777   7.910   8.825   1.733
24905SOL    HW286778   8.032   8.802   1.840
24906SOL     OW86779   7.825   8.494   1.632
24906SOL    HW186780   7.844   8.518   1.537
24906SOL    HW286781   7.818   8.577   1.687
24907SOL     OW86782   7.486   8.784   1.106
24907SOL    HW186783   7.455   8.710   1.047
24907SOL    HW286784   7.418   8.802   1.177
24908SOL     OW86785   8.572   7.985   0.839
24908SOL    HW186786   8.654   7.962   0.787
24908SOL    HW286787   8.567   7.926   0.920
24909SOL     OW86788   9.172   8.012   1.675
24909SOL    HW186789   9.161   8.098   1.624
24909SOL    HW286790   9.266   8.003   1.705
24910SOL     OW86791   8.743   7.785   1.094
24910SOL    HW186792   8.717   7.882   1.100
24910SOL    HW286793   8.743   7.745   1.186
24911SOL     OW86794   8.973   7.917   1.845
24911SOL    HW186795   9.053   7.942   1.789
24911SOL    HW286796   9.004   7.882   1.933
24912SOL     OW86797   8.684   8.220   0.425
24912SOL    HW186798   8.630   8.218   0.509
24912SOL    HW286799   8.761   8.283   0.436
24913SOL     OW86800   8.981   8.316   0.645
24913SOL    HW186801   8.995   8.279   0.552
24913SOL    HW286802   8.892   8.286   0.679
24914SOL     OW86803   9.137   8.253   1.540
24914SOL    HW186804   9.039   8.274   1.542
24914SOL    HW286805   9.186   8.329   1.499
24915SOL     OW86806   8.991   7.673   0.219
24915SOL    HW186807   8.996   7.715   0.310
24915SOL    HW286808   8.924   7.598   0.221
24916SOL     OW86809   8.138   8.888   1.439
24916SOL    HW186810   8.075   8.966   1.446
24916SOL    HW286811   8.106   8.826   1.367
24917SOL     OW86812   7.529   7.683   1.704
24917SOL    HW186813   7.547   7.672   1.606
24917SOL    HW286814   7.431   7.679   1.721
24918SOL     OW86815   7.409   9.097   1.648
24918SOL    HW186816   7.481   9.083   1.716
24918SOL    HW286817   7.320   9.100   1.693
24919SOL     OW86818   7.577   7.753   0.672
24919SOL    HW186819   7.520   7.808   0.733
24919SOL    HW286820   7.647   7.705   0.725
24920SOL     OW86821   8.749   8.985   1.535
24920SOL    HW186822   8.702   9.053   1.590
24920SOL    HW286823   8.816   9.031   1.476
24921SOL     OW86824   7.714   7.944   0.270
24921SOL    HW186825   7.786   7.973   0.207
24921SOL    HW286826   7.670   8.024   0.310
24922SOL     OW86827   9.100   7.606   1.373
24922SOL    HW186828   9.056   7.654   1.449
24922SOL    HW286829   9.078   7.652   1.287
24923SOL     OW86830   7.829   9.207   0.736
24923SOL    HW186831   7.753   9.173   0.681
24923SOL    HW286832   7.915   9.170   0.701
24924SOL     OW86833   7.754   8.716   1.181
24924SOL    HW186834   7.766   8.732   1.278
24924SOL    HW286835   7.667   8.756   1.151
24925SOL     OW86836   8.638   8.920   1.827
24925SOL    HW186837   8.597   8.835   1.793
24925SOL    HW286838   8.618   8.994   1.763
24926SOL     OW86839   8.128   8.640   0.517
24926SOL    HW186840   8.171   8.571   0.459
24926SOL    HW286841   8.092   8.597   0.600
24927SOL     OW86842   7.760   8.191   0.719
24927SOL    HW186843   7.752   8.289   0.737
24927SOL    HW286844   7.844   8.157   0.760
24928SOL     OW86845   7.606   7.671   0.234
24928SOL    HW186846   7.650   7.640   0.151
24928SOL    HW286847   7.607   7.771   0.238
24929SOL     OW86848   7.459   7.923   0.845
24929SOL    HW186849   7.423   8.016   0.837
24929SOL    HW286850   7.542   7.924   0.901
24930SOL     OW86851   7.894   8.510   0.231
24930SOL    HW186852   7.994   8.510   0.242
24930SOL    HW286853   7.863   8.603   0.210
24931SOL     OW86854   8.520   8.102   0.047
24931SOL    HW186855   8.451   8.159   0.003
24931SOL    HW286856   8.601   8.096  -0.012
24932SOL     OW86857   8.255   8.021   0.190
24932SOL    HW186858   8.345   8.022   0.145
24932SOL    HW286859   8.232   7.927   0.215
24933SOL     OW86860   8.820   7.938   1.500
24933SOL    HW186861   8.772   7.961   1.584
24933SOL    HW286862   8.754   7.908   1.431
24934SOL     OW86863   7.728   8.428   1.145
24934SOL    HW186864   7.739   8.383   1.234
24934SOL    HW286865   7.755   8.524   1.152
24935SOL     OW86866   9.027   8.440   0.245
24935SOL    HW186867   9.098   8.510   0.247
24935SOL    HW286868   9.014   8.410   0.150
24936SOL     OW86869   8.544   8.431   1.644
24936SOL    HW186870   8.466   8.377   1.677
24936SOL    HW286871   8.625   8.409   1.699
24937SOL     OW86872   8.583   9.145   1.680
24937SOL    HW186873   8.488   9.143   1.648
24937SOL    HW286874   8.604   9.236   1.717
24938SOL     OW86875   7.701   9.155   1.278
24938SOL    HW186876   7.681   9.137   1.182
24938SOL    HW286877   7.628   9.117   1.335
24939SOL     OW86878   8.394   8.619   0.823
24939SOL    HW186879   8.433   8.662   0.742
24939SOL    HW286880   8.467   8.602   0.890
24940SOL     OW86881   8.088   8.347   1.025
24940SOL    HW186882   8.086   8.263   0.970
24940SOL    HW286883   8.037   8.333   1.110
24941SOL     OW86884   7.427   8.357   1.151
24941SOL    HW186885   7.516   8.335   1.191
24941SOL    HW286886   7.372   8.273   1.147
24942SOL     OW86887   7.655   7.402   0.431
24942SOL    HW186888   7.693   7.490   0.458
24942SOL    HW286889   7.578   7.378   0.491
24943SOL     OW86890   7.477   8.489   0.251
24943SOL    HW186891   7.467   8.392   0.230
24943SOL    HW286892   7.530   8.534   0.179
24944SOL     OW86893   8.222   8.577   1.104
24944SOL    HW186894   8.173   8.492   1.085
24944SOL    HW286895   8.292   8.592   1.035
24945SOL     OW86896   8.560   8.000   0.313
24945SOL    HW186897   8.612   8.072   0.359
24945SOL    HW286898   8.573   8.007   0.215
24946SOL     OW86899   8.921   8.815   1.640
24946SOL    HW186900   8.906   8.717   1.654
24946SOL    HW286901   8.838   8.857   1.604
24947SOL     OW86902   7.678   8.257   1.380
24947SOL    HW186903   7.642   8.167   1.406
24947SOL    HW286904   7.639   8.327   1.440
24948SOL     OW86905   8.180   8.883   0.038
24948SOL    HW186906   8.155   8.960   0.097
24948SOL    HW286907   8.244   8.823   0.086
24949SOL     OW86908   7.998   9.090   1.072
24949SOL    HW186909   8.018   9.060   0.979
24949SOL    HW286910   7.923   9.035   1.109
24950SOL     OW86911   8.141   8.501   0.789
24950SOL    HW186912   8.230   8.547   0.789
24950SOL    HW286913   8.134   8.441   0.868
24951SOL     OW86914   8.319   8.848   0.458
24951SOL    HW186915   8.369   8.836   0.373
24951SOL    HW286916   8.265   8.765   0.477
24952SOL     OW86917   7.509   8.195   0.858
24952SOL    HW186918   7.604   8.186   0.826
24952SOL    HW286919   7.475   8.287   0.837
24953SOL     OW86920   7.446   8.312   1.785
24953SOL    HW186921   7.361   8.263   1.766
24953SOL    HW286922   7.473   8.299   1.880
24954SOL     OW86923   8.343   9.221   1.491
24954SOL    HW186924   8.315   9.134   1.532
24954SOL    HW286925   8.287   9.295   1.528
24955SOL     OW86926   8.572   8.568   1.021
24955SOL    HW186927   8.556   8.662   1.052
24955SOL    HW286928   8.575   8.507   1.101
24956SOL     OW86929   7.846   7.839   1.785
24956SOL    HW186930   7.882   7.786   1.708
24956SOL    HW286931   7.907   7.916   1.803
24957SOL     OW86932   7.910   8.256   0.357
24957SOL    HW186933   7.860   8.321   0.301
24957SOL    HW286934   7.852   8.177   0.376
24958SOL     OW86935   8.991   8.287   1.055
24958SOL    HW186936   9.010   8.326   0.964
24958SOL    HW286937   8.945   8.356   1.111
24959SOL     OW86938   8.683   7.730   1.351
24959SOL    HW186939   8.754   7.702   1.415
24959SOL    HW286940   8.630   7.650   1.323
24960SOL     OW86941   7.384   7.429   0.552
24960SOL    HW186942   7.297   7.416   0.505
24960SOL    HW286943   7.392   7.524   0.582
24961SOL     OW86944   8.605   7.530   1.793
24961SOL    HW186945   8.664   7.546   1.873
24961SOL    HW286946   8.552   7.613   1.774
24962SOL     OW86947   7.821   8.949   1.618
24962SOL    HW186948   7.763   9.014   1.667
24962SOL    HW286949   7.883   8.999   1.558
24963SOL     OW86950   9.177   8.836   1.559
24963SOL    HW186951   9.205   8.929   1.581
24963SOL    HW286952   9.084   8.820   1.592
24964SOL     OW86953   7.831   8.895   0.681
24964SOL    HW186954   7.829   8.796   0.694
24964SOL    HW286955   7.740   8.928   0.658
24965SOL     OW86956   8.472   9.012   1.269
24965SOL    HW186957   8.398   9.076   1.287
24965SOL    HW286958   8.551   9.061   1.231
24966SOL     OW86959   7.681   9.142   1.768
24966SOL    HW186960   7.724   9.226   1.734
24966SOL    HW286961   7.706   9.129   1.864
24967SOL     OW86962   7.541   8.678   1.639
24967SOL    HW186963   7.520   8.583   1.612
24967SOL    HW286964   7.472   8.739   1.601
24968SOL     OW86965   7.630   9.043   1.043
24968SOL    HW186966   7.572   8.963   1.057
24968SOL    HW286967   7.654   9.050   0.946
24969SOL     OW86968   8.438   8.570   0.414
24969SOL    HW186969   8.518   8.606   0.462
24969SOL    HW286970   8.396   8.497   0.470
24970SOL     OW86971   8.172   8.509   0.264
24970SOL    HW186972   8.244   8.568   0.229
24970SOL    HW286973   8.212   8.425   0.300
24971SOL     OW86974   7.922   7.914   0.728
24971SOL    HW186975   7.960   7.825   0.754
24971SOL    HW286976   7.989   7.964   0.673
24972SOL     OW86977   7.910   8.472   1.382
24972SOL    HW186978   8.006   8.452   1.402
24972SOL    HW286979   7.899   8.570   1.364
24973SOL     OW86980   9.132   8.515   1.351
24973SOL    HW186981   9.146   8.613   1.365
24973SOL    HW286982   9.189   8.484   1.275
24974SOL     OW86983   7.615   8.624   0.043
24974SOL    HW186984   7.607   8.636  -0.056
24974SOL    HW286985   7.674   8.695   0.081
24975SOL     OW86986   8.042   9.063   0.203
24975SOL    HW186987   8.017   9.158   0.187
24975SOL    HW286988   8.009   9.035   0.293
24976SOL     OW86989   8.692   8.486   1.427
24976SOL    HW186990   8.636   8.445   1.498
24976SOL    HW286991   8.672   8.584   1.421
24977SOL     OW86992   7.959   9.102   1.427
24977SOL    HW186993   8.008   9.182   1.391
24977SOL    HW286994   7.867   9.100   1.388
24978SOL     OW86995   7.602   7.983   1.789
24978SOL    HW186996   7.619   7.884   1.794
24978SOL    HW286997   7.666   8.031   1.850
24979SOL     OW86998   9.041   8.944   1.028
24979SOL    HW186999   9.013   9.037   1.052
24979SOL    HW287000   9.091   8.903   1.104
24980SOL     OW87001   7.437   8.317   0.589
24980SOL    HW187002   7.444   8.416   0.576
24980SOL    HW287003   7.346   8.294   0.623
24981SOL     OW87004   7.946   8.115   1.527
24981SOL    HW187005   7.852   8.085   1.508
24981SOL    HW287006   7.955   8.212   1.504
24982SOL     OW87007   9.013   8.491   0.839
24982SOL    HW187008   8.975   8.580   0.812
24982SOL    HW287009   9.013   8.429   0.761
24983SOL     OW87010   8.024   8.748   1.235
24983SOL    HW187011   7.937   8.747   1.186
24983SOL    HW287012   8.090   8.688   1.188
24984SOL     OW87013   7.590   8.090   1.149
24984SOL    HW187014   7.628   8.149   1.220
24984SOL    HW287015   7.573   8.143   1.067
24985SOL     OW87016   7.761   8.736   1.447
24985SOL    HW187017   7.780   8.824   1.491
24985SOL    HW287018   7.666   8.710   1.465
24986SOL     OW87019   9.004   9.052   1.795
24986SOL    HW187020   8.973   8.974   1.740
24986SOL    HW287021   8.973   9.137   1.753
24987SOL     OW87022   8.712   8.590   0.516
24987SOL    HW187023   8.811   8.594   0.532
24987SOL    HW287024   8.695   8.576   0.418
24988SOL     OW87025   8.588   8.195   1.416
24988SOL    HW187026   8.687   8.204   1.406
24988SOL    HW287027   8.544   8.197   1.326
24989SOL     OW87028   8.082   8.155   0.818
24989SOL    HW187029   8.104   8.077   0.876
24989SOL    HW287030   8.091   8.129   0.722
24990SOL     OW87031   8.747   8.862   1.030
24990SOL    HW187032   8.661   8.819   1.059
24990SOL    HW287033   8.736   8.902   0.939
24991SOL     OW87034   8.477   8.863   2.537
24991SOL    HW187035   8.568   8.897   2.560
24991SOL    HW287036   8.449   8.901   2.449
24992SOL     OW87037   9.068   7.941   3.259
24992SOL    HW187038   8.970   7.933   3.281
24992SOL    HW287039   9.121   7.930   3.343
24993SOL     OW87040   7.735   7.578   1.864
24993SOL    HW187041   7.648   7.575   1.815
24993SOL    HW287042   7.786   7.660   1.836
24994SOL     OW87043   8.722   8.967   2.639
24994SOL    HW187044   8.711   9.064   2.662
24994SOL    HW287045   8.815   8.950   2.609
24995SOL     OW87046   8.600   7.478   3.197
24995SOL    HW187047   8.524   7.433   3.244
24995SOL    HW287048   8.629   7.423   3.119
24996SOL     OW87049   8.338   8.258   3.574
24996SOL    HW187050   8.303   8.233   3.484
24996SOL    HW287051   8.262   8.279   3.635
24997SOL     OW87052   7.945   8.932   2.268
24997SOL    HW187053   7.901   8.941   2.357
24997SOL    HW287054   8.016   8.862   2.272
24998SOL     OW87055   7.963   7.465   1.990
24998SOL    HW187056   8.051   7.493   1.951
24998SOL    HW287057   7.891   7.528   1.960
24999SOL     OW87058   8.933   8.450   3.373
24999SOL    HW187059   8.841   8.455   3.335
24999SOL    HW287060   8.998   8.488   3.307
25000SOL     OW87061   8.833   8.457   3.054
25000SOL    HW187062   8.758   8.446   3.119
25000SOL    HW287063   8.870   8.550   3.060
25001SOL     OW87064   8.329   8.712   3.354
25001SOL    HW187065   8.272   8.775   3.300
25001SOL    HW287066   8.362   8.638   3.295
25002SOL     OW87067   7.872   8.605   2.563
25002SOL    HW187068   7.805   8.559   2.622
25002SOL    HW287069   7.964   8.573   2.586
25003SOL     OW87070   8.099   8.011   2.394
25003SOL    HW187071   8.138   8.081   2.335
25003SOL    HW287072   8.073   7.931   2.340
25004SOL     OW87073   8.719   7.919   3.603
25004SOL    HW187074   8.815   7.923   3.629
25004SOL    HW287075   8.675   7.843   3.650
25005SOL     OW87076   7.802   8.774   2.047
25005SOL    HW187077   7.866   8.790   1.972
25005SOL    HW287078   7.826   8.832   2.125
25006SOL     OW87079   7.953   7.730   2.857
25006SOL    HW187080   8.029   7.795   2.853
25006SOL    HW287081   7.983   7.641   2.824
25007SOL     OW87082   7.650   8.156   2.275
25007SOL    HW187083   7.665   8.090   2.349
25007SOL    HW287084   7.600   8.235   2.310
25008SOL     OW87085   8.236   9.101   2.452
25008SOL    HW187086   8.301   9.034   2.416
25008SOL    HW287087   8.226   9.177   2.388
25009SOL     OW87088   9.128   8.983   2.194
25009SOL    HW187089   9.224   8.957   2.187
25009SOL    HW287090   9.104   9.043   2.118
25010SOL     OW87091   9.040   7.676   2.965
25010SOL    HW187092   9.091   7.748   2.918
25010SOL    HW287093   8.945   7.703   2.974
25011SOL     OW87094   8.440   7.705   2.234
25011SOL    HW187095   8.465   7.799   2.255
25011SOL    HW287096   8.441   7.651   2.318
25012SOL     OW87097   7.564   8.418   3.419
25012SOL    HW187098   7.660   8.433   3.437
25012SOL    HW287099   7.526   8.356   3.488
25013SOL     OW87100   8.063   8.987   2.660
25013SOL    HW187101   8.136   9.010   2.596
25013SOL    HW287102   7.992   8.934   2.614
25014SOL     OW87103   8.405   8.019   3.414
25014SOL    HW187104   8.438   7.936   3.461
25014SOL    HW287105   8.478   8.087   3.413
25015SOL     OW87106   9.009   8.819   2.636
25015SOL    HW187107   9.005   8.854   2.729
25015SOL    HW287108   9.068   8.878   2.580
25016SOL     OW87109   7.740   8.640   2.312
25016SOL    HW187110   7.786   8.614   2.397
25016SOL    HW287111   7.760   8.572   2.241
25017SOL     OW87112   8.598   7.695   2.023
25017SOL    HW187113   8.692   7.665   2.041
25017SOL    HW287114   8.546   7.695   2.109
25018SOL     OW87115   8.832   8.180   3.156
25018SOL    HW187116   8.836   8.274   3.121
25018SOL    HW287117   8.925   8.149   3.178
25019SOL     OW87118   7.785   7.672   2.277
25019SOL    HW187119   7.739   7.712   2.356
25019SOL    HW287120   7.733   7.691   2.195
25020SOL     OW87121   8.913   9.199   3.189
25020SOL    HW187122   8.856   9.150   3.123
25020SOL    HW287123   8.999   9.226   3.146
25021SOL     OW87124   9.208   7.917   3.044
25021SOL    HW187125   9.265   7.999   3.046
25021SOL    HW287126   9.149   7.916   3.124
25022SOL     OW87127   9.225   9.143   2.957
25022SOL    HW187128   9.271   9.153   3.045
25022SOL    HW287129   9.292   9.146   2.884
25023SOL     OW87130   8.338   7.883   2.519
25023SOL    HW187131   8.414   7.911   2.578
25023SOL    HW287132   8.294   7.963   2.480
25024SOL     OW87133   8.415   7.769   3.657
25024SOL    HW187134   8.478   7.774   3.734
25024SOL    HW287135   8.323   7.747   3.690
25025SOL     OW87136   8.450   9.154   2.023
25025SOL    HW187137   8.484   9.067   1.988
25025SOL    HW287138   8.418   9.142   2.117
25026SOL     OW87139   8.131   7.421   3.555
25026SOL    HW187140   8.138   7.327   3.522
25026SOL    HW287141   8.188   7.431   3.637
25027SOL     OW87142   9.054   8.022   2.823
25027SOL    HW187143   9.039   8.113   2.860
25027SOL    HW287144   9.124   7.975   2.877
25028SOL     OW87145   8.464   8.688   3.589
25028SOL    HW187146   8.486   8.598   3.551
25028SOL    HW287147   8.399   8.735   3.530
25029SOL     OW87148   8.119   8.530   3.593
25029SOL    HW187149   8.090   8.607   3.650
25029SOL    HW287150   8.129   8.449   3.651
25030SOL     OW87151   8.754   7.394   2.699
25030SOL    HW187152   8.703   7.478   2.681
25030SOL    HW287153   8.840   7.396   2.648
25031SOL     OW87154   9.109   7.600   3.628
25031SOL    HW187155   9.086   7.621   3.723
25031SOL    HW287156   9.085   7.505   3.608
25032SOL     OW87157   7.412   8.004   2.372
25032SOL    HW187158   7.414   7.955   2.459
25032SOL    HW287159   7.414   8.103   2.390
25033SOL     OW87160   8.384   8.262   2.767
25033SOL    HW187161   8.410   8.342   2.713
25033SOL    HW287162   8.378   8.182   2.707
25034SOL     OW87163   7.585   8.889   2.226
25034SOL    HW187164   7.612   8.795   2.246
25034SOL    HW287165   7.610   8.911   2.132
25035SOL     OW87166   8.867   8.758   3.100
25035SOL    HW187167   8.838   8.795   3.011
25035SOL    HW287168   8.789   8.758   3.162
25036SOL     OW87169   7.599   9.032   2.463
25036SOL    HW187170   7.515   9.083   2.481
25036SOL    HW287171   7.590   8.981   2.378
25037SOL     OW87172   9.120   8.829   3.138
25037SOL    HW187173   9.151   8.843   3.232
25037SOL    HW287174   9.021   8.816   3.137
25038SOL     OW87175   7.872   8.329   1.865
25038SOL    HW187176   7.841   8.363   1.777
25038SOL    HW287177   7.876   8.404   1.931
25039SOL     OW87178   8.389   8.516   3.164
25039SOL    HW187179   8.439   8.431   3.148
25039SOL    HW287180   8.343   8.543   3.079
25040SOL     OW87181   7.476   8.221   2.038
25040SOL    HW187182   7.536   8.168   2.098
25040SOL    HW287183   7.382   8.189   2.050
25041SOL     OW87184   8.244   9.206   2.886
25041SOL    HW187185   8.290   9.139   2.828
25041SOL    HW287186   8.170   9.162   2.936
25042SOL     OW87187   7.644   8.008   3.368
25042SOL    HW187188   7.664   7.913   3.343
25042SOL    HW287189   7.607   8.011   3.461
25043SOL     OW87190   8.424   8.284   3.023
25043SOL    HW187191   8.418   8.270   2.924
25043SOL    HW287192   8.343   8.245   3.067
25044SOL     OW87193   9.015   7.818   2.338
25044SOL    HW187194   9.111   7.789   2.335
25044SOL    HW287195   8.976   7.796   2.427
25045SOL     OW87196   8.299   8.893   2.775
25045SOL    HW187197   8.357   8.904   2.694
25045SOL    HW287198   8.205   8.917   2.753
25046SOL     OW87199   8.249   7.759   2.060
25046SOL    HW187200   8.158   7.772   2.098
25046SOL    HW287201   8.309   7.719   2.130
25047SOL     OW87202   9.111   8.999   2.480
25047SOL    HW187203   9.078   9.092   2.499
25047SOL    HW287204   9.109   8.983   2.381
25048SOL     OW87205   8.274   8.998   3.493
25048SOL    HW187206   8.262   8.929   3.422
25048SOL    HW287207   8.237   8.963   3.580
25049SOL     OW87208   8.718   8.312   2.672
25049SOL    HW187209   8.739   8.254   2.750
25049SOL    HW287210   8.727   8.408   2.698
25050SOL     OW87211   7.674   8.441   2.718
25050SOL    HW187212   7.597   8.503   2.711
25050SOL    HW287213   7.711   8.442   2.811
25051SOL     OW87214   8.611   8.777   3.256
25051SOL    HW187215   8.644   8.862   3.297
25051SOL    HW287216   8.512   8.773   3.263
25052SOL     OW87217   9.041   9.192   2.011
25052SOL    HW187218   9.131   9.236   2.013
25052SOL    HW287219   9.040   9.123   1.939
25053SOL     OW87220   8.205   8.159   3.169
25053SOL    HW187221   8.207   8.245   3.220
25053SOL    HW287222   8.262   8.091   3.216
25054SOL     OW87223   7.442   9.186   3.240
25054SOL    HW187224   7.450   9.286   3.238
25054SOL    HW287225   7.418   9.157   3.333
25055SOL     OW87226   7.742   9.121   2.044
25055SOL    HW187227   7.834   9.151   2.019
25055SOL    HW287228   7.717   9.160   2.133
25056SOL     OW87229   8.718   9.143   2.981
25056SOL    HW187230   8.737   9.206   2.907
25056SOL    HW287231   8.726   9.049   2.948
25057SOL     OW87232   7.423   8.538   2.793
25057SOL    HW187233   7.333   8.554   2.754
25057SOL    HW287234   7.421   8.454   2.848
25058SOL     OW87235   8.174   7.443   2.243
25058SOL    HW187236   8.135   7.432   2.152
25058SOL    HW287237   8.130   7.519   2.290
25059SOL     OW87238   7.419   8.579   2.337
25059SOL    HW187239   7.497   8.637   2.361
25059SOL    HW287240   7.438   8.530   2.252
25060SOL     OW87241   8.949   7.707   3.421
25060SOL    HW187242   8.888   7.785   3.418
25060SOL    HW287243   9.004   7.711   3.504
25061SOL     OW87244   8.665   7.653   2.712
25061SOL    HW187245   8.664   7.731   2.649
25061SOL    HW287246   8.708   7.680   2.798
25062SOL     OW87247   8.785   7.459   2.008
25062SOL    HW187248   8.865   7.399   2.005
25062SOL    HW287249   8.711   7.412   2.056
25063SOL     OW87250   8.998   7.431   3.442
25063SOL    HW187251   9.024   7.388   3.356
25063SOL    HW287252   8.948   7.515   3.424
25064SOL     OW87253   8.100   7.690   2.574
25064SOL    HW187254   8.089   7.632   2.655
25064SOL    HW287255   8.185   7.742   2.582
25065SOL     OW87256   8.680   8.041   2.966
25065SOL    HW187257   8.734   8.081   2.892
25065SOL    HW287258   8.718   8.070   3.054
25066SOL     OW87259   8.973   7.447   2.282
25066SOL    HW187260   8.980   7.401   2.194
25066SOL    HW287261   8.877   7.457   2.307
25067SOL     OW87262   7.949   8.762   3.645
25067SOL    HW187263   7.910   8.825   3.578
25067SOL    HW287264   8.032   8.802   3.685
25068SOL     OW87265   7.825   8.494   3.477
25068SOL    HW187266   7.844   8.518   3.382
25068SOL    HW287267   7.818   8.577   3.532
25069SOL     OW87268   7.486   8.784   2.951
25069SOL    HW187269   7.455   8.710   2.892
25069SOL    HW287270   7.418   8.802   3.022
25070SOL     OW87271   8.572   7.985   2.684
25070SOL    HW187272   8.654   7.962   2.632
25070SOL    HW287273   8.567   7.926   2.765
25071SOL     OW87274   9.172   8.012   3.520
25071SOL    HW187275   9.161   8.098   3.469
25071SOL    HW287276   9.266   8.003   3.550
25072SOL     OW87277   8.743   7.785   2.939
25072SOL    HW187278   8.717   7.882   2.945
25072SOL    HW287279   8.743   7.745   3.031
25073SOL     OW87280   8.973   7.917   3.690
25073SOL    HW187281   9.053   7.942   3.634
25073SOL    HW287282   9.004   7.882   3.778
25074SOL     OW87283   9.137   8.253   3.385
25074SOL    HW187284   9.039   8.274   3.387
25074SOL    HW287285   9.186   8.329   3.344
25075SOL     OW87286   8.991   7.673   2.064
25075SOL    HW187287   8.996   7.715   2.155
25075SOL    HW287288   8.924   7.598   2.066
25076SOL     OW87289   8.138   8.888   3.284
25076SOL    HW187290   8.075   8.966   3.291
25076SOL    HW287291   8.106   8.826   3.212
25077SOL     OW87292   7.409   9.097   3.493
25077SOL    HW187293   7.481   9.083   3.561
25077SOL    HW287294   7.320   9.100   3.538
25078SOL     OW87295   8.749   8.985   3.380
25078SOL    HW187296   8.702   9.053   3.435
25078SOL    HW287297   8.816   9.031   3.321
25079SOL     OW87298   7.714   7.944   2.115
25079SOL    HW187299   7.786   7.973   2.052
25079SOL    HW287300   7.670   8.024   2.155
25080SOL     OW87301   9.100   7.606   3.218
25080SOL    HW187302   9.056   7.654   3.294
25080SOL    HW287303   9.078   7.652   3.132
25081SOL     OW87304   7.829   9.207   2.581
25081SOL    HW187305   7.753   9.173   2.526
25081SOL    HW287306   7.915   9.170   2.546
25082SOL     OW87307   7.754   8.716   3.026
25082SOL    HW187308   7.766   8.732   3.123
25082SOL    HW287309   7.667   8.756   2.996
25083SOL     OW87310   8.638   8.920   3.672
25083SOL    HW187311   8.597   8.835   3.638
25083SOL    HW287312   8.618   8.994   3.608
25084SOL     OW87313   7.760   8.191   2.564
25084SOL    HW187314   7.752   8.289   2.582
25084SOL    HW287315   7.844   8.157   2.605
25085SOL     OW87316   7.606   7.671   2.079
25085SOL    HW187317   7.650   7.640   1.996
25085SOL    HW287318   7.607   7.771   2.083
25086SOL     OW87319   7.894   8.510   2.076
25086SOL    HW187320   7.994   8.510   2.087
25086SOL    HW287321   7.863   8.603   2.055
25087SOL     OW87322   8.520   8.102   1.892
25087SOL    HW187323   8.451   8.159   1.848
25087SOL    HW287324   8.601   8.096   1.833
25088SOL     OW87325   8.706   7.538   2.329
25088SOL    HW187326   8.616   7.522   2.370
25088SOL    HW287327   8.714   7.634   2.303
25089SOL     OW87328   8.820   7.938   3.345
25089SOL    HW187329   8.772   7.961   3.429
25089SOL    HW287330   8.754   7.908   3.276
25090SOL     OW87331   7.728   8.428   2.990
25090SOL    HW187332   7.739   8.383   3.079
25090SOL    HW287333   7.755   8.524   2.997
25091SOL     OW87334   8.009   8.041   3.012
25091SOL    HW187335   8.084   8.084   3.061
25091SOL    HW287336   7.942   8.006   3.078
25092SOL     OW87337   8.152   8.410   3.329
25092SOL    HW187338   8.221   8.462   3.279
25092SOL    HW287339   8.147   8.443   3.424
25093SOL     OW87340   8.544   8.431   3.489
25093SOL    HW187341   8.466   8.377   3.522
25093SOL    HW287342   8.625   8.409   3.544
25094SOL     OW87343   8.473   7.613   2.485
25094SOL    HW187344   8.532   7.673   2.540
25094SOL    HW287345   8.400   7.577   2.542
25095SOL     OW87346   8.583   9.145   3.525
25095SOL    HW187347   8.488   9.143   3.493
25095SOL    HW287348   8.604   9.236   3.562
25096SOL     OW87349   8.001   7.490   2.756
25096SOL    HW187350   7.929   7.423   2.742
25096SOL    HW287351   8.083   7.444   2.791
25097SOL     OW87352   7.701   9.155   3.123
25097SOL    HW187353   7.681   9.137   3.027
25097SOL    HW287354   7.628   9.117   3.180
25098SOL     OW87355   8.394   8.619   2.668
25098SOL    HW187356   8.433   8.662   2.587
25098SOL    HW287357   8.467   8.602   2.735
25099SOL     OW87358   8.088   8.347   2.870
25099SOL    HW187359   8.086   8.263   2.815
25099SOL    HW287360   8.037   8.333   2.955
25100SOL     OW87361   7.427   8.357   2.996
25100SOL    HW187362   7.516   8.335   3.036
25100SOL    HW287363   7.372   8.273   2.992
25101SOL     OW87364   8.071   8.019   3.604
25101SOL    HW187365   8.023   8.070   3.533
25101SOL    HW287366   8.164   7.998   3.574
25102SOL     OW87367   7.477   8.489   2.096
25102SOL    HW187368   7.467   8.392   2.075
25102SOL    HW287369   7.530   8.534   2.024
25103SOL     OW87370   9.174   7.601   2.697
25103SOL    HW187371   9.129   7.583   2.784
25103SOL    HW287372   9.272   7.618   2.713
25104SOL     OW87373   8.222   8.577   2.949
25104SOL    HW187374   8.173   8.492   2.930
25104SOL    HW287375   8.292   8.592   2.880
25105SOL     OW87376   8.921   8.815   3.485
25105SOL    HW187377   8.906   8.717   3.499
25105SOL    HW287378   8.838   8.857   3.449
25106SOL     OW87379   7.678   8.257   3.225
25106SOL    HW187380   7.642   8.167   3.251
25106SOL    HW287381   7.639   8.327   3.285
25107SOL     OW87382   8.180   8.883   1.883
25107SOL    HW187383   8.155   8.960   1.942
25107SOL    HW287384   8.244   8.823   1.931
25108SOL     OW87385   7.998   9.090   2.917
25108SOL    HW187386   8.018   9.060   2.824
25108SOL    HW287387   7.923   9.035   2.954
25109SOL     OW87388   8.141   8.501   2.634
25109SOL    HW187389   8.230   8.547   2.634
25109SOL    HW287390   8.134   8.441   2.713
25110SOL     OW87391   8.319   8.848   2.303
25110SOL    HW187392   8.369   8.836   2.218
25110SOL    HW287393   8.265   8.765   2.322
25111SOL     OW87394   7.509   8.195   2.703
25111SOL    HW187395   7.604   8.186   2.671
25111SOL    HW287396   7.475   8.287   2.682
25112SOL     OW87397   7.446   8.312   3.630
25112SOL    HW187398   7.361   8.263   3.611
25112SOL    HW287399   7.473   8.299   3.725
25113SOL     OW87400   8.343   9.221   3.336
25113SOL    HW187401   8.315   9.134   3.377
25113SOL    HW287402   8.287   9.295   3.373
25114SOL     OW87403   8.572   8.568   2.866
25114SOL    HW187404   8.556   8.662   2.897
25114SOL    HW287405   8.575   8.507   2.946
25115SOL     OW87406   7.846   7.839   3.630
25115SOL    HW187407   7.882   7.786   3.553
25115SOL    HW287408   7.907   7.916   3.648
25116SOL     OW87409   7.910   8.256   2.202
25116SOL    HW187410   7.860   8.321   2.146
25116SOL    HW287411   7.852   8.177   2.221
25117SOL     OW87412   8.991   8.287   2.900
25117SOL    HW187413   9.010   8.326   2.809
25117SOL    HW287414   8.945   8.356   2.956
25118SOL     OW87415   8.683   7.730   3.196
25118SOL    HW187416   8.754   7.702   3.260
25118SOL    HW287417   8.630   7.650   3.168
25119SOL     OW87418   8.605   7.530   3.638
25119SOL    HW187419   8.664   7.546   3.718
25119SOL    HW287420   8.552   7.613   3.619
25120SOL     OW87421   7.821   8.949   3.463
25120SOL    HW187422   7.763   9.014   3.512
25120SOL    HW287423   7.883   8.999   3.403
25121SOL     OW87424   9.177   8.836   3.404
25121SOL    HW187425   9.205   8.929   3.426
25121SOL    HW287426   9.084   8.820   3.437
25122SOL     OW87427   8.427   7.949   2.954
25122SOL    HW187428   8.513   8.000   2.953
25122SOL    HW287429   8.433   7.875   3.021
25123SOL     OW87430   7.831   8.895   2.526
25123SOL    HW187431   7.829   8.796   2.539
25123SOL    HW287432   7.740   8.928   2.503
25124SOL     OW87433   8.472   9.012   3.114
25124SOL    HW187434   8.398   9.076   3.132
25124SOL    HW287435   8.551   9.061   3.076
25125SOL     OW87436   7.681   9.142   3.613
25125SOL    HW187437   7.724   9.226   3.579
25125SOL    HW287438   7.706   9.129   3.709
25126SOL     OW87439   7.541   8.678   3.484
25126SOL    HW187440   7.520   8.583   3.457
25126SOL    HW287441   7.472   8.739   3.446
25127SOL     OW87442   7.630   9.043   2.888
25127SOL    HW187443   7.572   8.963   2.902
25127SOL    HW287444   7.654   9.050   2.791
25128SOL     OW87445   8.376   7.564   2.743
25128SOL    HW187446   8.472   7.565   2.771
25128SOL    HW287447   8.321   7.521   2.815
25129SOL     OW87448   9.029   7.837   2.623
25129SOL    HW187449   9.048   7.923   2.670
25129SOL    HW287450   9.097   7.768   2.651
25130SOL     OW87451   8.243   7.485   1.961
25130SOL    HW187452   8.318   7.419   1.973
25130SOL    HW287453   8.274   7.576   1.989
25131SOL     OW87454   7.922   7.914   2.573
25131SOL    HW187455   7.960   7.825   2.599
25131SOL    HW287456   7.989   7.964   2.518
25132SOL     OW87457   7.910   8.472   3.227
25132SOL    HW187458   8.006   8.452   3.247
25132SOL    HW287459   7.899   8.570   3.209
25133SOL     OW87460   9.132   8.515   3.196
25133SOL    HW187461   9.146   8.613   3.210
25133SOL    HW287462   9.189   8.484   3.120
25134SOL     OW87463   7.615   8.624   1.888
25134SOL    HW187464   7.607   8.636   1.789
25134SOL    HW287465   7.674   8.695   1.926
25135SOL     OW87466   8.042   9.063   2.048
25135SOL    HW187467   8.017   9.158   2.032
25135SOL    HW287468   8.009   9.035   2.138
25136SOL     OW87469   8.692   8.486   3.272
25136SOL    HW187470   8.636   8.445   3.343
25136SOL    HW287471   8.672   8.584   3.266
25137SOL     OW87472   7.959   9.102   3.272
25137SOL    HW187473   8.008   9.182   3.236
25137SOL    HW287474   7.867   9.100   3.233
25138SOL     OW87475   7.602   7.983   3.634
25138SOL    HW187476   7.619   7.884   3.639
25138SOL    HW287477   7.666   8.031   3.695
25139SOL     OW87478   9.041   8.944   2.873
25139SOL    HW187479   9.013   9.037   2.897
25139SOL    HW287480   9.091   8.903   2.949
25140SOL     OW87481   7.437   8.317   2.434
25140SOL    HW187482   7.444   8.416   2.421
25140SOL    HW287483   7.346   8.294   2.468
25141SOL     OW87484   7.946   8.115   3.372
25141SOL    HW187485   7.852   8.085   3.353
25141SOL    HW287486   7.955   8.212   3.349
25142SOL     OW87487   9.013   8.491   2.684
25142SOL    HW187488   8.975   8.580   2.657
25142SOL    HW287489   9.013   8.429   2.606
25143SOL     OW87490   8.171   7.897   2.853
25143SOL    HW187491   8.263   7.925   2.880
25143SOL    HW287492   8.103   7.948   2.907
25144SOL     OW87493   8.024   8.748   3.080
25144SOL    HW187494   7.937   8.747   3.031
25144SOL    HW287495   8.090   8.688   3.033
25145SOL     OW87496   7.590   8.090   2.994
25145SOL    HW187497   7.628   8.149   3.065
25145SOL    HW287498   7.573   8.143   2.912
25146SOL     OW87499   7.761   8.736   3.292
25146SOL    HW187500   7.780   8.824   3.336
25146SOL    HW287501   7.666   8.710   3.310
25147SOL     OW87502   9.004   9.052   3.640
25147SOL    HW187503   8.973   8.974   3.585
25147SOL    HW287504   8.973   9.137   3.598
25148SOL     OW87505   8.065   7.756   2.309
25148SOL    HW187506   7.967   7.750   2.289
25148SOL    HW287507   8.084   7.713   2.397
25149SOL     OW87508   8.985   7.439   2.568
25149SOL    HW187509   8.980   7.480   2.477
25149SOL    HW287510   9.066   7.473   2.615
25150SOL     OW87511   8.588   8.195   3.261
25150SOL    HW187512   8.687   8.204   3.251
25150SOL    HW287513   8.544   8.197   3.171
25151SOL     OW87514   8.082   8.155   2.663
25151SOL    HW187515   8.104   8.077   2.721
25151SOL    HW287516   8.091   8.129   2.567
25152SOL     OW87517   8.747   8.862   2.875
25152SOL    HW187518   8.661   8.819   2.904
25152SOL    HW287519   8.736   8.902   2.784
25153SOL     OW87520   8.477   8.863   4.383
25153SOL    HW187521   8.568   8.897   4.406
25153SOL    HW287522   8.449   8.901   4.295
25154SOL     OW87523   8.988   8.659   4.241
25154SOL    HW187524   8.999   8.743   4.295
25154SOL    HW287525   9.078   8.622   4.218
25155SOL     OW87526   9.068   7.941   5.105
25155SOL    HW187527   8.970   7.933   5.127
25155SOL    HW287528   9.121   7.930   5.189
25156SOL     OW87529   8.722   8.967   4.485
25156SOL    HW187530   8.711   9.064   4.508
25156SOL    HW287531   8.815   8.950   4.455
25157SOL     OW87532   8.600   7.478   5.043
25157SOL    HW187533   8.524   7.433   5.090
25157SOL    HW287534   8.629   7.423   4.965
25158SOL     OW87535   8.338   8.258   5.420
25158SOL    HW187536   8.303   8.233   5.330
25158SOL    HW287537   8.262   8.279   5.481
25159SOL     OW87538   7.945   8.932   4.114
25159SOL    HW187539   7.901   8.941   4.203
25159SOL    HW287540   8.016   8.862   4.118
25160SOL     OW87541   8.933   8.450   5.219
25160SOL    HW187542   8.841   8.455   5.181
25160SOL    HW287543   8.998   8.488   5.153
25161SOL     OW87544   8.833   8.457   4.900
25161SOL    HW187545   8.758   8.446   4.965
25161SOL    HW287546   8.870   8.550   4.906
25162SOL     OW87547   8.329   8.712   5.200
25162SOL    HW187548   8.272   8.775   5.146
25162SOL    HW287549   8.362   8.638   5.141
25163SOL     OW87550   7.872   8.605   4.409
25163SOL    HW187551   7.805   8.559   4.468
25163SOL    HW287552   7.964   8.573   4.432
25164SOL     OW87553   8.719   7.919   5.449
25164SOL    HW187554   8.815   7.923   5.475
25164SOL    HW287555   8.675   7.843   5.496
25165SOL     OW87556   7.802   8.774   3.893
25165SOL    HW187557   7.866   8.790   3.818
25165SOL    HW287558   7.826   8.832   3.971
25166SOL     OW87559   7.953   7.730   4.703
25166SOL    HW187560   8.029   7.795   4.699
25166SOL    HW287561   7.983   7.641   4.670
25167SOL     OW87562   7.650   8.156   4.121
25167SOL    HW187563   7.665   8.090   4.195
25167SOL    HW287564   7.600   8.235   4.156
25168SOL     OW87565   8.236   9.101   4.298
25168SOL    HW187566   8.301   9.034   4.262
25168SOL    HW287567   8.226   9.177   4.234
25169SOL     OW87568   9.128   8.983   4.040
25169SOL    HW187569   9.224   8.957   4.033
25169SOL    HW287570   9.104   9.043   3.964
25170SOL     OW87571   9.040   7.676   4.811
25170SOL    HW187572   9.091   7.748   4.764
25170SOL    HW287573   8.945   7.703   4.820
25171SOL     OW87574   8.440   7.705   4.080
25171SOL    HW187575   8.465   7.799   4.101
25171SOL    HW287576   8.441   7.651   4.164
25172SOL     OW87577   7.564   8.418   5.265
25172SOL    HW187578   7.660   8.433   5.283
25172SOL    HW287579   7.526   8.356   5.334
25173SOL     OW87580   8.063   8.987   4.506
25173SOL    HW187581   8.136   9.010   4.442
25173SOL    HW287582   7.992   8.934   4.460
25174SOL     OW87583   8.405   8.019   5.260
25174SOL    HW187584   8.438   7.936   5.307
25174SOL    HW287585   8.478   8.087   5.259
25175SOL     OW87586   9.009   8.819   4.482
25175SOL    HW187587   9.005   8.854   4.575
25175SOL    HW287588   9.068   8.878   4.426
25176SOL     OW87589   7.740   8.640   4.158
25176SOL    HW187590   7.786   8.614   4.243
25176SOL    HW287591   7.760   8.572   4.087
25177SOL     OW87592   8.598   7.695   3.869
25177SOL    HW187593   8.692   7.665   3.887
25177SOL    HW287594   8.546   7.695   3.955
25178SOL     OW87595   7.750   7.900   4.964
25178SOL    HW187596   7.740   7.813   4.916
25178SOL    HW287597   7.686   7.967   4.927
25179SOL     OW87598   8.832   8.180   5.002
25179SOL    HW187599   8.836   8.274   4.967
25179SOL    HW287600   8.925   8.149   5.024
25180SOL     OW87601   8.913   9.199   5.035
25180SOL    HW187602   8.856   9.150   4.969
25180SOL    HW287603   8.999   9.226   4.992
25181SOL     OW87604   9.208   7.917   4.890
25181SOL    HW187605   9.265   7.999   4.892
25181SOL    HW287606   9.149   7.916   4.970
25182SOL     OW87607   9.225   9.143   4.803
25182SOL    HW187608   9.271   9.153   4.891
25182SOL    HW287609   9.292   9.146   4.730
25183SOL     OW87610   8.338   7.883   4.365
25183SOL    HW187611   8.414   7.911   4.424
25183SOL    HW287612   8.294   7.963   4.326
25184SOL     OW87613   8.573   8.347   3.882
25184SOL    HW187614   8.610   8.297   3.960
25184SOL    HW287615   8.503   8.292   3.837
25185SOL     OW87616   8.415   7.769   5.503
25185SOL    HW187617   8.478   7.774   5.580
25185SOL    HW287618   8.323   7.747   5.536
25186SOL     OW87619   9.156   8.016   3.961
25186SOL    HW187620   9.177   7.935   3.907
25186SOL    HW287621   9.173   7.997   4.058
25187SOL     OW87622   8.450   9.154   3.869
25187SOL    HW187623   8.484   9.067   3.834
25187SOL    HW287624   8.418   9.142   3.963
25188SOL     OW87625   8.131   7.421   5.401
25188SOL    HW187626   8.138   7.327   5.368
25188SOL    HW287627   8.188   7.431   5.483
25189SOL     OW87628   9.054   8.022   4.669
25189SOL    HW187629   9.039   8.113   4.706
25189SOL    HW287630   9.124   7.975   4.723
25190SOL     OW87631   8.464   8.688   5.435
25190SOL    HW187632   8.486   8.598   5.397
25190SOL    HW287633   8.399   8.735   5.376
25191SOL     OW87634   8.119   8.530   5.439
25191SOL    HW187635   8.090   8.607   5.496
25191SOL    HW287636   8.129   8.449   5.497
25192SOL     OW87637   8.754   7.394   4.545
25192SOL    HW187638   8.703   7.478   4.527
25192SOL    HW287639   8.840   7.396   4.494
25193SOL     OW87640   9.109   7.600   5.474
25193SOL    HW187641   9.086   7.621   5.569
25193SOL    HW287642   9.085   7.505   5.454
25194SOL     OW87643   7.412   8.004   4.218
25194SOL    HW187644   7.414   7.955   4.305
25194SOL    HW287645   7.414   8.103   4.236
25195SOL     OW87646   7.733   7.592   4.539
25195SOL    HW187647   7.785   7.632   4.614
25195SOL    HW287648   7.786   7.519   4.496
25196SOL     OW87649   7.717   7.640   4.873
25196SOL    HW187650   7.682   7.547   4.873
25196SOL    HW287651   7.804   7.643   4.824
25197SOL     OW87652   8.384   8.262   4.613
25197SOL    HW187653   8.410   8.342   4.559
25197SOL    HW287654   8.378   8.182   4.553
25198SOL     OW87655   7.585   8.889   4.072
25198SOL    HW187656   7.612   8.795   4.092
25198SOL    HW287657   7.610   8.911   3.978
25199SOL     OW87658   8.867   8.758   4.946
25199SOL    HW187659   8.838   8.795   4.857
25199SOL    HW287660   8.789   8.758   5.008
25200SOL     OW87661   7.599   9.032   4.309
25200SOL    HW187662   7.515   9.083   4.327
25200SOL    HW287663   7.590   8.981   4.224
25201SOL     OW87664   9.120   8.829   4.984
25201SOL    HW187665   9.151   8.843   5.078
25201SOL    HW287666   9.021   8.816   4.983
25202SOL     OW87667   7.872   8.329   3.711
25202SOL    HW187668   7.841   8.363   3.623
25202SOL    HW287669   7.876   8.404   3.777
25203SOL     OW87670   8.389   8.516   5.010
25203SOL    HW187671   8.439   8.431   4.994
25203SOL    HW287672   8.343   8.543   4.925
25204SOL     OW87673   8.996   8.219   4.084
25204SOL    HW187674   9.064   8.153   4.051
25204SOL    HW287675   9.011   8.307   4.040
25205SOL     OW87676   8.244   9.206   4.732
25205SOL    HW187677   8.290   9.139   4.674
25205SOL    HW287678   8.170   9.162   4.782
25206SOL     OW87679   8.747   7.807   4.114
25206SOL    HW187680   8.684   7.865   4.062
25206SOL    HW287681   8.840   7.841   4.102
25207SOL     OW87682   7.644   8.008   5.214
25207SOL    HW187683   7.664   7.913   5.189
25207SOL    HW287684   7.607   8.011   5.307
25208SOL     OW87685   7.526   7.663   5.104
25208SOL    HW187686   7.598   7.673   5.035
25208SOL    HW287687   7.437   7.662   5.059
25209SOL     OW87688   8.424   8.284   4.869
25209SOL    HW187689   8.418   8.270   4.770
25209SOL    HW287690   8.343   8.245   4.913
25210SOL     OW87691   9.015   7.818   4.184
25210SOL    HW187692   9.111   7.789   4.181
25210SOL    HW287693   8.976   7.796   4.273
25211SOL     OW87694   8.299   8.893   4.621
25211SOL    HW187695   8.357   8.904   4.540
25211SOL    HW287696   8.205   8.917   4.599
25212SOL     OW87697   8.360   8.704   3.841
25212SOL    HW187698   8.413   8.644   3.901
25212SOL    HW287699   8.399   8.705   3.750
25213SOL     OW87700   9.111   8.999   4.326
25213SOL    HW187701   9.078   9.092   4.345
25213SOL    HW287702   9.109   8.983   4.227
25214SOL     OW87703   8.526   8.272   4.315
25214SOL    HW187704   8.591   8.300   4.386
25214SOL    HW287705   8.447   8.333   4.317
25215SOL     OW87706   8.274   8.998   5.339
25215SOL    HW187707   8.262   8.929   5.268
25215SOL    HW287708   8.237   8.963   5.426
25216SOL     OW87709   8.718   8.312   4.518
25216SOL    HW187710   8.739   8.254   4.596
25216SOL    HW287711   8.727   8.408   4.544
25217SOL     OW87712   7.674   8.441   4.564
25217SOL    HW187713   7.597   8.503   4.557
25217SOL    HW287714   7.711   8.442   4.657
25218SOL     OW87715   8.611   8.777   5.102
25218SOL    HW187716   8.644   8.862   5.143
25218SOL    HW287717   8.512   8.773   5.109
25219SOL     OW87718   7.418   7.694   4.166
25219SOL    HW187719   7.478   7.645   4.104
25219SOL    HW287720   7.473   7.746   4.231
25220SOL     OW87721   9.041   9.192   3.857
25220SOL    HW187722   9.131   9.236   3.859
25220SOL    HW287723   9.040   9.123   3.785
25221SOL     OW87724   8.205   8.159   5.015
25221SOL    HW187725   8.207   8.245   5.066
25221SOL    HW287726   8.262   8.091   5.062
25222SOL     OW87727   7.442   9.186   5.086
25222SOL    HW187728   7.450   9.286   5.084
25222SOL    HW287729   7.418   9.157   5.179
25223SOL     OW87730   7.745   7.923   4.619
25223SOL    HW187731   7.801   7.916   4.536
25223SOL    HW287732   7.802   7.901   4.699
25224SOL     OW87733   7.742   9.121   3.890
25224SOL    HW187734   7.834   9.151   3.865
25224SOL    HW287735   7.717   9.160   3.979
25225SOL     OW87736   8.718   9.143   4.827
25225SOL    HW187737   8.737   9.206   4.753
25225SOL    HW287738   8.726   9.049   4.794
25226SOL     OW87739   7.423   8.538   4.639
25226SOL    HW187740   7.333   8.554   4.600
25226SOL    HW287741   7.421   8.454   4.694
25227SOL     OW87742   8.174   7.443   4.089
25227SOL    HW187743   8.135   7.432   3.998
25227SOL    HW287744   8.130   7.519   4.136
25228SOL     OW87745   7.419   8.579   4.183
25228SOL    HW187746   7.497   8.637   4.207
25228SOL    HW287747   7.438   8.530   4.098
25229SOL     OW87748   8.949   7.707   5.267
25229SOL    HW187749   8.888   7.785   5.264
25229SOL    HW287750   9.004   7.711   5.350
25230SOL     OW87751   8.665   7.653   4.558
25230SOL    HW187752   8.664   7.731   4.495
25230SOL    HW287753   8.708   7.680   4.644
25231SOL     OW87754   8.785   7.459   3.854
25231SOL    HW187755   8.865   7.399   3.851
25231SOL    HW287756   8.711   7.412   3.902
25232SOL     OW87757   8.998   7.431   5.288
25232SOL    HW187758   9.024   7.388   5.202
25232SOL    HW287759   8.948   7.515   5.270
25233SOL     OW87760   8.100   7.690   4.420
25233SOL    HW187761   8.089   7.632   4.501
25233SOL    HW287762   8.185   7.742   4.428
25234SOL     OW87763   8.680   8.041   4.812
25234SOL    HW187764   8.734   8.081   4.738
25234SOL    HW287765   8.718   8.070   4.900
25235SOL     OW87766   8.973   7.447   4.128
25235SOL    HW187767   8.980   7.401   4.040
25235SOL    HW287768   8.877   7.457   4.153
25236SOL     OW87769   7.949   8.762   5.491
25236SOL    HW187770   7.910   8.825   5.424
25236SOL    HW287771   8.032   8.802   5.531
25237SOL     OW87772   7.825   8.494   5.323
25237SOL    HW187773   7.844   8.518   5.228
25237SOL    HW287774   7.818   8.577   5.378
25238SOL     OW87775   7.486   8.784   4.797
25238SOL    HW187776   7.455   8.710   4.738
25238SOL    HW287777   7.418   8.802   4.868
25239SOL     OW87778   8.572   7.985   4.530
25239SOL    HW187779   8.654   7.962   4.478
25239SOL    HW287780   8.567   7.926   4.611
25240SOL     OW87781   9.172   8.012   5.366
25240SOL    HW187782   9.161   8.098   5.315
25240SOL    HW287783   9.266   8.003   5.396
25241SOL     OW87784   8.743   7.785   4.785
25241SOL    HW187785   8.717   7.882   4.791
25241SOL    HW287786   8.743   7.745   4.877
25242SOL     OW87787   8.973   7.917   5.536
25242SOL    HW187788   9.053   7.942   5.480
25242SOL    HW287789   9.004   7.882   5.624
25243SOL     OW87790   8.684   8.220   4.116
25243SOL    HW187791   8.630   8.218   4.200
25243SOL    HW287792   8.761   8.283   4.127
25244SOL     OW87793   8.981   8.316   4.336
25244SOL    HW187794   8.995   8.279   4.243
25244SOL    HW287795   8.892   8.286   4.370
25245SOL     OW87796   9.137   8.253   5.231
25245SOL    HW187797   9.039   8.274   5.233
25245SOL    HW287798   9.186   8.329   5.190
25246SOL     OW87799   8.991   7.673   3.910
25246SOL    HW187800   8.996   7.715   4.001
25246SOL    HW287801   8.924   7.598   3.912
25247SOL     OW87802   8.138   8.888   5.130
25247SOL    HW187803   8.075   8.966   5.137
25247SOL    HW287804   8.106   8.826   5.058
25248SOL     OW87805   7.529   7.683   5.395
25248SOL    HW187806   7.547   7.672   5.297
25248SOL    HW287807   7.431   7.679   5.412
25249SOL     OW87808   7.409   9.097   5.339
25249SOL    HW187809   7.481   9.083   5.407
25249SOL    HW287810   7.320   9.100   5.384
25250SOL     OW87811   7.577   7.753   4.363
25250SOL    HW187812   7.520   7.808   4.424
25250SOL    HW287813   7.647   7.705   4.416
25251SOL     OW87814   8.749   8.985   5.226
25251SOL    HW187815   8.702   9.053   5.281
25251SOL    HW287816   8.816   9.031   5.167
25252SOL     OW87817   9.100   7.606   5.064
25252SOL    HW187818   9.056   7.654   5.140
25252SOL    HW287819   9.078   7.652   4.978
25253SOL     OW87820   7.829   9.207   4.427
25253SOL    HW187821   7.753   9.173   4.372
25253SOL    HW287822   7.915   9.170   4.392
25254SOL     OW87823   7.754   8.716   4.872
25254SOL    HW187824   7.766   8.732   4.969
25254SOL    HW287825   7.667   8.756   4.842
25255SOL     OW87826   8.638   8.920   5.518
25255SOL    HW187827   8.597   8.835   5.484
25255SOL    HW287828   8.618   8.994   5.454
25256SOL     OW87829   7.760   8.191   4.410
25256SOL    HW187830   7.752   8.289   4.428
25256SOL    HW287831   7.844   8.157   4.451
25257SOL     OW87832   7.459   7.923   4.536
25257SOL    HW187833   7.423   8.016   4.528
25257SOL    HW287834   7.542   7.924   4.592
25258SOL     OW87835   8.520   8.102   3.738
25258SOL    HW187836   8.451   8.159   3.694
25258SOL    HW287837   8.601   8.096   3.679
25259SOL     OW87838   8.255   8.021   3.881
25259SOL    HW187839   8.345   8.022   3.836
25259SOL    HW287840   8.232   7.927   3.906
25260SOL     OW87841   8.706   7.538   4.175
25260SOL    HW187842   8.616   7.522   4.216
25260SOL    HW287843   8.714   7.634   4.149
25261SOL     OW87844   8.820   7.938   5.191
25261SOL    HW187845   8.772   7.961   5.275
25261SOL    HW287846   8.754   7.908   5.122
25262SOL     OW87847   7.728   8.428   4.836
25262SOL    HW187848   7.739   8.383   4.925
25262SOL    HW287849   7.755   8.524   4.843
25263SOL     OW87850   9.027   8.440   3.936
25263SOL    HW187851   9.098   8.510   3.938
25263SOL    HW287852   9.014   8.410   3.841
25264SOL     OW87853   8.009   8.041   4.858
25264SOL    HW187854   8.084   8.084   4.907
25264SOL    HW287855   7.942   8.006   4.924
25265SOL     OW87856   8.152   8.410   5.175
25265SOL    HW187857   8.221   8.462   5.125
25265SOL    HW287858   8.147   8.443   5.270
25266SOL     OW87859   8.544   8.431   5.335
25266SOL    HW187860   8.466   8.377   5.368
25266SOL    HW287861   8.625   8.409   5.390
25267SOL     OW87862   8.473   7.613   4.331
25267SOL    HW187863   8.532   7.673   4.386
25267SOL    HW287864   8.400   7.577   4.388
25268SOL     OW87865   8.583   9.145   5.371
25268SOL    HW187866   8.488   9.143   5.339
25268SOL    HW287867   8.604   9.236   5.408
25269SOL     OW87868   8.001   7.490   4.602
25269SOL    HW187869   7.929   7.423   4.588
25269SOL    HW287870   8.083   7.444   4.637
25270SOL     OW87871   7.701   9.155   4.969
25270SOL    HW187872   7.681   9.137   4.873
25270SOL    HW287873   7.628   9.117   5.026
25271SOL     OW87874   8.394   8.619   4.514
25271SOL    HW187875   8.433   8.662   4.433
25271SOL    HW287876   8.467   8.602   4.581
25272SOL     OW87877   8.088   8.347   4.716
25272SOL    HW187878   8.086   8.263   4.661
25272SOL    HW287879   8.037   8.333   4.801
25273SOL     OW87880   7.427   8.357   4.842
25273SOL    HW187881   7.516   8.335   4.882
25273SOL    HW287882   7.372   8.273   4.838
25274SOL     OW87883   7.655   7.402   4.122
25274SOL    HW187884   7.693   7.490   4.149
25274SOL    HW287885   7.578   7.378   4.182
25275SOL     OW87886   8.071   8.019   5.450
25275SOL    HW187887   8.023   8.070   5.379
25275SOL    HW287888   8.164   7.998   5.420
25276SOL     OW87889   7.477   8.489   3.942
25276SOL    HW187890   7.467   8.392   3.921
25276SOL    HW287891   7.530   8.534   3.870
25277SOL     OW87892   9.174   7.601   4.543
25277SOL    HW187893   9.129   7.583   4.630
25277SOL    HW287894   9.272   7.618   4.559
25278SOL     OW87895   8.222   8.577   4.795
25278SOL    HW187896   8.173   8.492   4.776
25278SOL    HW287897   8.292   8.592   4.726
25279SOL     OW87898   8.560   8.000   4.004
25279SOL    HW187899   8.612   8.072   4.050
25279SOL    HW287900   8.573   8.007   3.906
25280SOL     OW87901   8.921   8.815   5.331
25280SOL    HW187902   8.906   8.717   5.345
25280SOL    HW287903   8.838   8.857   5.295
25281SOL     OW87904   7.678   8.257   5.071
25281SOL    HW187905   7.642   8.167   5.097
25281SOL    HW287906   7.639   8.327   5.131
25282SOL     OW87907   8.180   8.883   3.729
25282SOL    HW187908   8.155   8.960   3.788
25282SOL    HW287909   8.244   8.823   3.777
25283SOL     OW87910   7.998   9.090   4.763
25283SOL    HW187911   8.018   9.060   4.670
25283SOL    HW287912   7.923   9.035   4.800
25284SOL     OW87913   8.141   8.501   4.480
25284SOL    HW187914   8.230   8.547   4.480
25284SOL    HW287915   8.134   8.441   4.559
25285SOL     OW87916   8.319   8.848   4.149
25285SOL    HW187917   8.369   8.836   4.064
25285SOL    HW287918   8.265   8.765   4.168
25286SOL     OW87919   7.509   8.195   4.549
25286SOL    HW187920   7.604   8.186   4.517
25286SOL    HW287921   7.475   8.287   4.528
25287SOL     OW87922   7.446   8.312   5.476
25287SOL    HW187923   7.361   8.263   5.457
25287SOL    HW287924   7.473   8.299   5.571
25288SOL     OW87925   8.343   9.221   5.182
25288SOL    HW187926   8.315   9.134   5.223
25288SOL    HW287927   8.287   9.295   5.219
25289SOL     OW87928   8.572   8.568   4.712
25289SOL    HW187929   8.556   8.662   4.743
25289SOL    HW287930   8.575   8.507   4.792
25290SOL     OW87931   7.846   7.839   5.476
25290SOL    HW187932   7.882   7.786   5.399
25290SOL    HW287933   7.907   7.916   5.494
25291SOL     OW87934   8.991   8.287   4.746
25291SOL    HW187935   9.010   8.326   4.655
25291SOL    HW287936   8.945   8.356   4.802
25292SOL     OW87937   8.683   7.730   5.042
25292SOL    HW187938   8.754   7.702   5.106
25292SOL    HW287939   8.630   7.650   5.014
25293SOL     OW87940   7.384   7.429   4.243
25293SOL    HW187941   7.297   7.416   4.196
25293SOL    HW287942   7.392   7.524   4.273
25294SOL     OW87943   8.605   7.530   5.484
25294SOL    HW187944   8.664   7.546   5.564
25294SOL    HW287945   8.552   7.613   5.465
25295SOL     OW87946   7.821   8.949   5.309
25295SOL    HW187947   7.763   9.014   5.358
25295SOL    HW287948   7.883   8.999   5.249
25296SOL     OW87949   9.177   8.836   5.250
25296SOL    HW187950   9.205   8.929   5.272
25296SOL    HW287951   9.084   8.820   5.283
25297SOL     OW87952   8.427   7.949   4.800
25297SOL    HW187953   8.513   8.000   4.799
25297SOL    HW287954   8.433   7.875   4.867
25298SOL     OW87955   7.831   8.895   4.372
25298SOL    HW187956   7.829   8.796   4.385
25298SOL    HW287957   7.740   8.928   4.349
25299SOL     OW87958   8.472   9.012   4.960
25299SOL    HW187959   8.398   9.076   4.978
25299SOL    HW287960   8.551   9.061   4.922
25300SOL     OW87961   7.681   9.142   5.459
25300SOL    HW187962   7.724   9.226   5.425
25300SOL    HW287963   7.706   9.129   5.555
25301SOL     OW87964   7.541   8.678   5.330
25301SOL    HW187965   7.520   8.583   5.303
25301SOL    HW287966   7.472   8.739   5.292
25302SOL     OW87967   7.630   9.043   4.734
25302SOL    HW187968   7.572   8.963   4.748
25302SOL    HW287969   7.654   9.050   4.637
25303SOL     OW87970   8.376   7.564   4.589
25303SOL    HW187971   8.472   7.565   4.617
25303SOL    HW287972   8.321   7.521   4.661
25304SOL     OW87973   8.438   8.570   4.105
25304SOL    HW187974   8.518   8.606   4.153
25304SOL    HW287975   8.396   8.497   4.161
25305SOL     OW87976   9.029   7.837   4.469
25305SOL    HW187977   9.048   7.923   4.516
25305SOL    HW287978   9.097   7.768   4.497
25306SOL     OW87979   8.243   7.485   3.807
25306SOL    HW187980   8.318   7.419   3.819
25306SOL    HW287981   8.274   7.576   3.835
25307SOL     OW87982   7.910   8.472   5.073
25307SOL    HW187983   8.006   8.452   5.093
25307SOL    HW287984   7.899   8.570   5.055
25308SOL     OW87985   9.132   8.515   5.042
25308SOL    HW187986   9.146   8.613   5.056
25308SOL    HW287987   9.189   8.484   4.966
25309SOL     OW87988   7.615   8.624   3.734
25309SOL    HW187989   7.607   8.636   3.635
25309SOL    HW287990   7.674   8.695   3.772
25310SOL     OW87991   8.042   9.063   3.894
25310SOL    HW187992   8.017   9.158   3.878
25310SOL    HW287993   8.009   9.035   3.984
25311SOL     OW87994   8.692   8.486   5.118
25311SOL    HW187995   8.636   8.445   5.189
25311SOL    HW287996   8.672   8.584   5.112
25312SOL     OW87997   7.959   9.102   5.118
25312SOL    HW187998   8.008   9.182   5.082
25312SOL    HW287999   7.867   9.100   5.079
25313SOL     OW88000   7.602   7.983   5.480
25313SOL    HW188001   7.619   7.884   5.485
25313SOL    HW288002   7.666   8.031   5.541
25314SOL     OW88003   9.041   8.944   4.719
25314SOL    HW188004   9.013   9.037   4.743
25314SOL    HW288005   9.091   8.903   4.795
25315SOL     OW88006   7.437   8.317   4.280
25315SOL    HW188007   7.444   8.416   4.267
25315SOL    HW288008   7.346   8.294   4.314
25316SOL     OW88009   7.946   8.115   5.218
25316SOL    HW188010   7.852   8.085   5.199
25316SOL    HW288011   7.955   8.212   5.195
25317SOL     OW88012   9.013   8.491   4.530
25317SOL    HW188013   8.975   8.580   4.503
25317SOL    HW288014   9.013   8.429   4.452
25318SOL     OW88015   8.171   7.897   4.699
25318SOL    HW188016   8.263   7.925   4.726
25318SOL    HW288017   8.103   7.948   4.753
25319SOL     OW88018   8.024   8.748   4.926
25319SOL    HW188019   7.937   8.747   4.877
25319SOL    HW288020   8.090   8.688   4.879
25320SOL     OW88021   7.590   8.090   4.840
25320SOL    HW188022   7.628   8.149   4.911
25320SOL    HW288023   7.573   8.143   4.758
25321SOL     OW88024   7.761   8.736   5.138
25321SOL    HW188025   7.780   8.824   5.182
25321SOL    HW288026   7.666   8.710   5.156
25322SOL     OW88027   9.004   9.052   5.486
25322SOL    HW188028   8.973   8.974   5.431
25322SOL    HW288029   8.973   9.137   5.444
25323SOL     OW88030   8.712   8.590   4.207
25323SOL    HW188031   8.811   8.594   4.223
25323SOL    HW288032   8.695   8.576   4.109
25324SOL     OW88033   8.985   7.439   4.414
25324SOL    HW188034   8.980   7.480   4.323
25324SOL    HW288035   9.066   7.473   4.461
25325SOL     OW88036   8.588   8.195   5.107
25325SOL    HW188037   8.687   8.204   5.097
25325SOL    HW288038   8.544   8.197   5.017
25326SOL     OW88039   8.747   8.862   4.721
25326SOL    HW188040   8.661   8.819   4.750
25326SOL    HW288041   8.736   8.902   4.630
25327SOL     OW88042   8.750   7.847   4.396
25327SOL    HW188043   8.749   7.839   4.297
25327SOL    HW288044   8.839   7.819   4.431
25328SOL     OW88045   8.477   8.863   6.228
25328SOL    HW188046   8.568   8.897   6.251
25328SOL    HW288047   8.449   8.901   6.140
25329SOL     OW88048   8.988   8.659   6.086
25329SOL    HW188049   8.999   8.743   6.140
25329SOL    HW288050   9.078   8.622   6.063
25330SOL     OW88051   9.068   7.941   6.950
25330SOL    HW188052   8.970   7.933   6.972
25330SOL    HW288053   9.121   7.930   7.034
25331SOL     OW88054   7.735   7.578   5.555
25331SOL    HW188055   7.648   7.575   5.506
25331SOL    HW288056   7.786   7.660   5.527
25332SOL     OW88057   8.722   8.967   6.330
25332SOL    HW188058   8.711   9.064   6.353
25332SOL    HW288059   8.815   8.950   6.300
25333SOL     OW88060   8.600   7.478   6.888
25333SOL    HW188061   8.524   7.433   6.935
25333SOL    HW288062   8.629   7.423   6.810
25334SOL     OW88063   8.338   8.258   7.265
25334SOL    HW188064   8.303   8.233   7.175
25334SOL    HW288065   8.262   8.279   7.326
25335SOL     OW88066   7.945   8.932   5.959
25335SOL    HW188067   7.901   8.941   6.048
25335SOL    HW288068   8.016   8.862   5.963
25336SOL     OW88069   7.963   7.465   5.681
25336SOL    HW188070   8.051   7.493   5.642
25336SOL    HW288071   7.891   7.528   5.651
25337SOL     OW88072   8.933   8.450   7.064
25337SOL    HW188073   8.841   8.455   7.026
25337SOL    HW288074   8.998   8.488   6.998
25338SOL     OW88075   8.833   8.457   6.745
25338SOL    HW188076   8.758   8.446   6.810
25338SOL    HW288077   8.870   8.550   6.751
25339SOL     OW88078   8.329   8.712   7.045
25339SOL    HW188079   8.272   8.775   6.991
25339SOL    HW288080   8.362   8.638   6.986
25340SOL     OW88081   7.872   8.605   6.254
25340SOL    HW188082   7.805   8.559   6.313
25340SOL    HW288083   7.964   8.573   6.277
25341SOL     OW88084   8.099   8.011   6.085
25341SOL    HW188085   8.138   8.081   6.026
25341SOL    HW288086   8.073   7.931   6.031
25342SOL     OW88087   8.719   7.919   7.294
25342SOL    HW188088   8.815   7.923   7.320
25342SOL    HW288089   8.675   7.843   7.341
25343SOL     OW88090   7.802   8.774   5.738
25343SOL    HW188091   7.866   8.790   5.663
25343SOL    HW288092   7.826   8.832   5.816
25344SOL     OW88093   7.953   7.730   6.548
25344SOL    HW188094   8.029   7.795   6.544
25344SOL    HW288095   7.983   7.641   6.515
25345SOL     OW88096   7.650   8.156   5.966
25345SOL    HW188097   7.665   8.090   6.040
25345SOL    HW288098   7.600   8.235   6.001
25346SOL     OW88099   8.236   9.101   6.143
25346SOL    HW188100   8.301   9.034   6.107
25346SOL    HW288101   8.226   9.177   6.079
25347SOL     OW88102   9.128   8.983   5.885
25347SOL    HW188103   9.224   8.957   5.878
25347SOL    HW288104   9.104   9.043   5.809
25348SOL     OW88105   9.040   7.676   6.656
25348SOL    HW188106   9.091   7.748   6.609
25348SOL    HW288107   8.945   7.703   6.665
25349SOL     OW88108   8.440   7.705   5.925
25349SOL    HW188109   8.465   7.799   5.946
25349SOL    HW288110   8.441   7.651   6.009
25350SOL     OW88111   7.564   8.418   7.110
25350SOL    HW188112   7.660   8.433   7.128
25350SOL    HW288113   7.526   8.356   7.179
25351SOL     OW88114   7.890   8.063   5.653
25351SOL    HW188115   7.850   8.142   5.606
25351SOL    HW288116   7.979   8.042   5.613
25352SOL     OW88117   8.063   8.987   6.351
25352SOL    HW188118   8.136   9.010   6.287
25352SOL    HW288119   7.992   8.934   6.305
25353SOL     OW88120   8.405   8.019   7.105
25353SOL    HW188121   8.438   7.936   7.152
25353SOL    HW288122   8.478   8.087   7.104
25354SOL     OW88123   9.009   8.819   6.327
25354SOL    HW188124   9.005   8.854   6.420
25354SOL    HW288125   9.068   8.878   6.271
25355SOL     OW88126   7.740   8.640   6.003
25355SOL    HW188127   7.786   8.614   6.088
25355SOL    HW288128   7.760   8.572   5.932
25356SOL     OW88129   8.598   7.695   5.714
25356SOL    HW188130   8.692   7.665   5.732
25356SOL    HW288131   8.546   7.695   5.800
25357SOL     OW88132   7.750   7.900   6.809
25357SOL    HW188133   7.740   7.813   6.761
25357SOL    HW288134   7.686   7.967   6.772
25358SOL     OW88135   8.832   8.180   6.847
25358SOL    HW188136   8.836   8.274   6.812
25358SOL    HW288137   8.925   8.149   6.869
25359SOL     OW88138   7.785   7.672   5.968
25359SOL    HW188139   7.739   7.712   6.047
25359SOL    HW288140   7.733   7.691   5.886
25360SOL     OW88141   8.913   9.199   6.880
25360SOL    HW188142   8.856   9.150   6.814
25360SOL    HW288143   8.999   9.226   6.837
25361SOL     OW88144   9.208   7.917   6.735
25361SOL    HW188145   9.265   7.999   6.737
25361SOL    HW288146   9.149   7.916   6.815
25362SOL     OW88147   9.225   9.143   6.648
25362SOL    HW188148   9.271   9.153   6.736
25362SOL    HW288149   9.292   9.146   6.575
25363SOL     OW88150   8.338   7.883   6.210
25363SOL    HW188151   8.414   7.911   6.269
25363SOL    HW288152   8.294   7.963   6.171
25364SOL     OW88153   8.573   8.347   5.727
25364SOL    HW188154   8.610   8.297   5.805
25364SOL    HW288155   8.503   8.292   5.682
25365SOL     OW88156   8.415   7.769   7.348
25365SOL    HW188157   8.478   7.774   7.425
25365SOL    HW288158   8.323   7.747   7.381
25366SOL     OW88159   9.156   8.016   5.806
25366SOL    HW188160   9.177   7.935   5.752
25366SOL    HW288161   9.173   7.997   5.903
25367SOL     OW88162   8.450   9.154   5.714
25367SOL    HW188163   8.484   9.067   5.679
25367SOL    HW288164   8.418   9.142   5.808
25368SOL     OW88165   8.131   7.421   7.246
25368SOL    HW188166   8.138   7.327   7.213
25368SOL    HW288167   8.188   7.431   7.328
25369SOL     OW88168   9.054   8.022   6.514
25369SOL    HW188169   9.039   8.113   6.551
25369SOL    HW288170   9.124   7.975   6.568
25370SOL     OW88171   8.464   8.688   7.280
25370SOL    HW188172   8.486   8.598   7.242
25370SOL    HW288173   8.399   8.735   7.221
25371SOL     OW88174   8.119   8.530   7.284
25371SOL    HW188175   8.090   8.607   7.341
25371SOL    HW288176   8.129   8.449   7.342
25372SOL     OW88177   8.754   7.394   6.390
25372SOL    HW188178   8.703   7.478   6.372
25372SOL    HW288179   8.840   7.396   6.339
25373SOL     OW88180   9.109   7.600   7.319
25373SOL    HW188181   9.086   7.621   7.414
25373SOL    HW288182   9.085   7.505   7.299
25374SOL     OW88183   7.412   8.004   6.063
25374SOL    HW188184   7.414   7.955   6.150
25374SOL    HW288185   7.414   8.103   6.081
25375SOL     OW88186   7.733   7.592   6.384
25375SOL    HW188187   7.785   7.632   6.459
25375SOL    HW288188   7.786   7.519   6.341
25376SOL     OW88189   7.717   7.640   6.718
25376SOL    HW188190   7.682   7.547   6.718
25376SOL    HW288191   7.804   7.643   6.669
25377SOL     OW88192   8.384   8.262   6.458
25377SOL    HW188193   8.410   8.342   6.404
25377SOL    HW288194   8.378   8.182   6.398
25378SOL     OW88195   7.585   8.889   5.917
25378SOL    HW188196   7.612   8.795   5.937
25378SOL    HW288197   7.610   8.911   5.823
25379SOL     OW88198   8.867   8.758   6.791
25379SOL    HW188199   8.838   8.795   6.702
25379SOL    HW288200   8.789   8.758   6.853
25380SOL     OW88201   7.599   9.032   6.154
25380SOL    HW188202   7.515   9.083   6.172
25380SOL    HW288203   7.590   8.981   6.069
25381SOL     OW88204   9.120   8.829   6.829
25381SOL    HW188205   9.151   8.843   6.923
25381SOL    HW288206   9.021   8.816   6.828
25382SOL     OW88207   7.872   8.329   5.556
25382SOL    HW188208   7.841   8.363   5.468
25382SOL    HW288209   7.876   8.404   5.622
25383SOL     OW88210   8.389   8.516   6.855
25383SOL    HW188211   8.439   8.431   6.839
25383SOL    HW288212   8.343   8.543   6.770
25384SOL     OW88213   7.476   8.221   5.729
25384SOL    HW188214   7.536   8.168   5.789
25384SOL    HW288215   7.382   8.189   5.741
25385SOL     OW88216   8.996   8.219   5.929
25385SOL    HW188217   9.064   8.153   5.896
25385SOL    HW288218   9.011   8.307   5.885
25386SOL     OW88219   8.244   9.206   6.577
25386SOL    HW188220   8.290   9.139   6.519
25386SOL    HW288221   8.170   9.162   6.627
25387SOL     OW88222   8.151   8.275   5.613
25387SOL    HW188223   8.180   8.194   5.664
25387SOL    HW288224   8.051   8.274   5.604
25388SOL     OW88225   8.747   7.807   5.959
25388SOL    HW188226   8.684   7.865   5.907
25388SOL    HW288227   8.840   7.841   5.947
25389SOL     OW88228   7.644   8.008   7.059
25389SOL    HW188229   7.664   7.913   7.034
25389SOL    HW288230   7.607   8.011   7.152
25390SOL     OW88231   7.526   7.663   6.949
25390SOL    HW188232   7.598   7.673   6.880
25390SOL    HW288233   7.437   7.662   6.904
25391SOL     OW88234   8.424   8.284   6.714
25391SOL    HW188235   8.418   8.270   6.615
25391SOL    HW288236   8.343   8.245   6.758
25392SOL     OW88237   9.015   7.818   6.029
25392SOL    HW188238   9.111   7.789   6.026
25392SOL    HW288239   8.976   7.796   6.118
25393SOL     OW88240   8.299   8.893   6.466
25393SOL    HW188241   8.357   8.904   6.385
25393SOL    HW288242   8.205   8.917   6.444
25394SOL     OW88243   8.249   7.759   5.751
25394SOL    HW188244   8.158   7.772   5.789
25394SOL    HW288245   8.309   7.719   5.821
25395SOL     OW88246   8.360   8.704   5.686
25395SOL    HW188247   8.413   8.644   5.746
25395SOL    HW288248   8.399   8.705   5.595
25396SOL     OW88249   9.111   8.999   6.171
25396SOL    HW188250   9.078   9.092   6.190
25396SOL    HW288251   9.109   8.983   6.072
25397SOL     OW88252   8.526   8.272   6.160
25397SOL    HW188253   8.591   8.300   6.231
25397SOL    HW288254   8.447   8.333   6.162
25398SOL     OW88255   8.274   8.998   7.184
25398SOL    HW188256   8.262   8.929   7.113
25398SOL    HW288257   8.237   8.963   7.271
25399SOL     OW88258   8.718   8.312   6.363
25399SOL    HW188259   8.739   8.254   6.441
25399SOL    HW288260   8.727   8.408   6.389
25400SOL     OW88261   7.674   8.441   6.409
25400SOL    HW188262   7.597   8.503   6.402
25400SOL    HW288263   7.711   8.442   6.502
25401SOL     OW88264   8.307   8.389   6.108
25401SOL    HW188265   8.294   8.300   6.065
25401SOL    HW288266   8.238   8.403   6.179
25402SOL     OW88267   8.611   8.777   6.947
25402SOL    HW188268   8.644   8.862   6.988
25402SOL    HW288269   8.512   8.773   6.954
25403SOL     OW88270   7.418   7.694   6.011
25403SOL    HW188271   7.478   7.645   5.949
25403SOL    HW288272   7.473   7.746   6.076
25404SOL     OW88273   9.041   9.192   5.702
25404SOL    HW188274   9.131   9.236   5.704
25404SOL    HW288275   9.040   9.123   5.630
25405SOL     OW88276   8.205   8.159   6.860
25405SOL    HW188277   8.207   8.245   6.911
25405SOL    HW288278   8.262   8.091   6.907
25406SOL     OW88279   7.442   9.186   6.931
25406SOL    HW188280   7.450   9.286   6.929
25406SOL    HW288281   7.418   9.157   7.024
25407SOL     OW88282   8.223   8.205   5.925
25407SOL    HW188283   8.134   8.233   5.890
25407SOL    HW288284   8.264   8.139   5.861
25408SOL     OW88285   7.745   7.923   6.464
25408SOL    HW188286   7.801   7.916   6.381
25408SOL    HW288287   7.802   7.901   6.544
25409SOL     OW88288   7.742   9.121   5.735
25409SOL    HW188289   7.834   9.151   5.710
25409SOL    HW288290   7.717   9.160   5.824
25410SOL     OW88291   8.718   9.143   6.672
25410SOL    HW188292   8.737   9.206   6.598
25410SOL    HW288293   8.726   9.049   6.639
25411SOL     OW88294   7.423   8.538   6.484
25411SOL    HW188295   7.333   8.554   6.445
25411SOL    HW288296   7.421   8.454   6.539
25412SOL     OW88297   8.174   7.443   5.934
25412SOL    HW188298   8.135   7.432   5.843
25412SOL    HW288299   8.130   7.519   5.981
25413SOL     OW88300   7.419   8.579   6.028
25413SOL    HW188301   7.497   8.637   6.052
25413SOL    HW288302   7.438   8.530   5.943
25414SOL     OW88303   8.949   7.707   7.112
25414SOL    HW188304   8.888   7.785   7.109
25414SOL    HW288305   9.004   7.711   7.195
25415SOL     OW88306   8.665   7.653   6.403
25415SOL    HW188307   8.664   7.731   6.340
25415SOL    HW288308   8.708   7.680   6.489
25416SOL     OW88309   8.785   7.459   5.699
25416SOL    HW188310   8.865   7.399   5.696
25416SOL    HW288311   8.711   7.412   5.747
25417SOL     OW88312   8.998   7.431   7.133
25417SOL    HW188313   9.024   7.388   7.047
25417SOL    HW288314   8.948   7.515   7.115
25418SOL     OW88315   8.100   7.690   6.265
25418SOL    HW188316   8.089   7.632   6.346
25418SOL    HW288317   8.185   7.742   6.273
25419SOL     OW88318   8.680   8.041   6.657
25419SOL    HW188319   8.734   8.081   6.583
25419SOL    HW288320   8.718   8.070   6.745
25420SOL     OW88321   8.973   7.447   5.973
25420SOL    HW188322   8.980   7.401   5.885
25420SOL    HW288323   8.877   7.457   5.998
25421SOL     OW88324   7.949   8.762   7.336
25421SOL    HW188325   7.910   8.825   7.269
25421SOL    HW288326   8.032   8.802   7.376
25422SOL     OW88327   7.825   8.494   7.168
25422SOL    HW188328   7.844   8.518   7.073
25422SOL    HW288329   7.818   8.577   7.223
25423SOL     OW88330   7.486   8.784   6.642
25423SOL    HW188331   7.455   8.710   6.583
25423SOL    HW288332   7.418   8.802   6.713
25424SOL     OW88333   8.572   7.985   6.375
25424SOL    HW188334   8.654   7.962   6.323
25424SOL    HW288335   8.567   7.926   6.456
25425SOL     OW88336   9.172   8.012   7.211
25425SOL    HW188337   9.161   8.098   7.160
25425SOL    HW288338   9.266   8.003   7.241
25426SOL     OW88339   8.743   7.785   6.630
25426SOL    HW188340   8.717   7.882   6.636
25426SOL    HW288341   8.743   7.745   6.722
25427SOL     OW88342   8.973   7.917   7.381
25427SOL    HW188343   9.053   7.942   7.325
25427SOL    HW288344   9.004   7.882   7.469
25428SOL     OW88345   8.684   8.220   5.961
25428SOL    HW188346   8.630   8.218   6.045
25428SOL    HW288347   8.761   8.283   5.972
25429SOL     OW88348   8.981   8.316   6.181
25429SOL    HW188349   8.995   8.279   6.088
25429SOL    HW288350   8.892   8.286   6.215
25430SOL     OW88351   9.137   8.253   7.076
25430SOL    HW188352   9.039   8.274   7.078
25430SOL    HW288353   9.186   8.329   7.035
25431SOL     OW88354   8.991   7.673   5.755
25431SOL    HW188355   8.996   7.715   5.846
25431SOL    HW288356   8.924   7.598   5.757
25432SOL     OW88357   8.138   8.888   6.975
25432SOL    HW188358   8.075   8.966   6.982
25432SOL    HW288359   8.106   8.826   6.903
25433SOL     OW88360   7.529   7.683   7.240
25433SOL    HW188361   7.547   7.672   7.142
25433SOL    HW288362   7.431   7.679   7.257
25434SOL     OW88363   7.409   9.097   7.184
25434SOL    HW188364   7.481   9.083   7.252
25434SOL    HW288365   7.320   9.100   7.229
25435SOL     OW88366   7.577   7.753   6.208
25435SOL    HW188367   7.520   7.808   6.269
25435SOL    HW288368   7.647   7.705   6.261
25436SOL     OW88369   8.749   8.985   7.071
25436SOL    HW188370   8.702   9.053   7.126
25436SOL    HW288371   8.816   9.031   7.012
25437SOL     OW88372   7.714   7.944   5.806
25437SOL    HW188373   7.786   7.973   5.743
25437SOL    HW288374   7.670   8.024   5.846
25438SOL     OW88375   9.100   7.606   6.909
25438SOL    HW188376   9.056   7.654   6.985
25438SOL    HW288377   9.078   7.652   6.823
25439SOL     OW88378   7.829   9.207   6.272
25439SOL    HW188379   7.753   9.173   6.217
25439SOL    HW288380   7.915   9.170   6.237
25440SOL     OW88381   7.754   8.716   6.717
25440SOL    HW188382   7.766   8.732   6.814
25440SOL    HW288383   7.667   8.756   6.687
25441SOL     OW88384   8.638   8.920   7.363
25441SOL    HW188385   8.597   8.835   7.329
25441SOL    HW288386   8.618   8.994   7.299
25442SOL     OW88387   8.128   8.640   6.053
25442SOL    HW188388   8.171   8.571   5.995
25442SOL    HW288389   8.092   8.597   6.136
25443SOL     OW88390   7.760   8.191   6.255
25443SOL    HW188391   7.752   8.289   6.273
25443SOL    HW288392   7.844   8.157   6.296
25444SOL     OW88393   7.606   7.671   5.770
25444SOL    HW188394   7.650   7.640   5.687
25444SOL    HW288395   7.607   7.771   5.774
25445SOL     OW88396   7.459   7.923   6.381
25445SOL    HW188397   7.423   8.016   6.373
25445SOL    HW288398   7.542   7.924   6.437
25446SOL     OW88399   7.894   8.510   5.767
25446SOL    HW188400   7.994   8.510   5.778
25446SOL    HW288401   7.863   8.603   5.746
25447SOL     OW88402   8.520   8.102   5.583
25447SOL    HW188403   8.451   8.159   5.539
25447SOL    HW288404   8.601   8.096   5.524
25448SOL     OW88405   8.255   8.021   5.726
25448SOL    HW188406   8.345   8.022   5.681
25448SOL    HW288407   8.232   7.927   5.751
25449SOL     OW88408   8.706   7.538   6.020
25449SOL    HW188409   8.616   7.522   6.061
25449SOL    HW288410   8.714   7.634   5.994
25450SOL     OW88411   8.820   7.938   7.036
25450SOL    HW188412   8.772   7.961   7.120
25450SOL    HW288413   8.754   7.908   6.967
25451SOL     OW88414   7.455   7.453   5.680
25451SOL    HW188415   7.518   7.376   5.688
25451SOL    HW288416   7.475   7.521   5.751
25452SOL     OW88417   7.728   8.428   6.681
25452SOL    HW188418   7.739   8.383   6.770
25452SOL    HW288419   7.755   8.524   6.688
25453SOL     OW88420   9.027   8.440   5.781
25453SOL    HW188421   9.098   8.510   5.783
25453SOL    HW288422   9.014   8.410   5.686
25454SOL     OW88423   8.009   8.041   6.703
25454SOL    HW188424   8.084   8.084   6.752
25454SOL    HW288425   7.942   8.006   6.769
25455SOL     OW88426   8.152   8.410   7.020
25455SOL    HW188427   8.221   8.462   6.970
25455SOL    HW288428   8.147   8.443   7.115
25456SOL     OW88429   8.544   8.431   7.180
25456SOL    HW188430   8.466   8.377   7.213
25456SOL    HW288431   8.625   8.409   7.235
25457SOL     OW88432   8.473   7.613   6.176
25457SOL    HW188433   8.532   7.673   6.231
25457SOL    HW288434   8.400   7.577   6.233
25458SOL     OW88435   8.583   9.145   7.216
25458SOL    HW188436   8.488   9.143   7.184
25458SOL    HW288437   8.604   9.236   7.253
25459SOL     OW88438   8.001   7.490   6.447
25459SOL    HW188439   7.929   7.423   6.433
25459SOL    HW288440   8.083   7.444   6.482
25460SOL     OW88441   7.701   9.155   6.814
25460SOL    HW188442   7.681   9.137   6.718
25460SOL    HW288443   7.628   9.117   6.871
25461SOL     OW88444   8.394   8.619   6.359
25461SOL    HW188445   8.433   8.662   6.278
25461SOL    HW288446   8.467   8.602   6.426
25462SOL     OW88447   8.088   8.347   6.561
25462SOL    HW188448   8.086   8.263   6.506
25462SOL    HW288449   8.037   8.333   6.646
25463SOL     OW88450   7.427   8.357   6.687
25463SOL    HW188451   7.516   8.335   6.727
25463SOL    HW288452   7.372   8.273   6.683
25464SOL     OW88453   7.655   7.402   5.967
25464SOL    HW188454   7.693   7.490   5.994
25464SOL    HW288455   7.578   7.378   6.027
25465SOL     OW88456   8.071   8.019   7.295
25465SOL    HW188457   8.023   8.070   7.224
25465SOL    HW288458   8.164   7.998   7.265
25466SOL     OW88459   7.477   8.489   5.787
25466SOL    HW188460   7.467   8.392   5.766
25466SOL    HW288461   7.530   8.534   5.715
25467SOL     OW88462   9.174   7.601   6.388
25467SOL    HW188463   9.129   7.583   6.475
25467SOL    HW288464   9.272   7.618   6.404
25468SOL     OW88465   8.222   8.577   6.640
25468SOL    HW188466   8.173   8.492   6.621
25468SOL    HW288467   8.292   8.592   6.571
25469SOL     OW88468   8.560   8.000   5.849
25469SOL    HW188469   8.612   8.072   5.895
25469SOL    HW288470   8.573   8.007   5.751
25470SOL     OW88471   8.921   8.815   7.176
25470SOL    HW188472   8.906   8.717   7.190
25470SOL    HW288473   8.838   8.857   7.140
25471SOL     OW88474   7.678   8.257   6.916
25471SOL    HW188475   7.642   8.167   6.942
25471SOL    HW288476   7.639   8.327   6.976
25472SOL     OW88477   8.180   8.883   5.574
25472SOL    HW188478   8.155   8.960   5.633
25472SOL    HW288479   8.244   8.823   5.622
25473SOL     OW88480   7.998   9.090   6.608
25473SOL    HW188481   8.018   9.060   6.515
25473SOL    HW288482   7.923   9.035   6.645
25474SOL     OW88483   8.141   8.501   6.325
25474SOL    HW188484   8.230   8.547   6.325
25474SOL    HW288485   8.134   8.441   6.404
25475SOL     OW88486   8.319   8.848   5.994
25475SOL    HW188487   8.369   8.836   5.909
25475SOL    HW288488   8.265   8.765   6.013
25476SOL     OW88489   7.509   8.195   6.394
25476SOL    HW188490   7.604   8.186   6.362
25476SOL    HW288491   7.475   8.287   6.373
25477SOL     OW88492   7.446   8.312   7.321
25477SOL    HW188493   7.361   8.263   7.302
25477SOL    HW288494   7.473   8.299   7.416
25478SOL     OW88495   8.343   9.221   7.027
25478SOL    HW188496   8.315   9.134   7.068
25478SOL    HW288497   8.287   9.295   7.064
25479SOL     OW88498   8.572   8.568   6.557
25479SOL    HW188499   8.556   8.662   6.588
25479SOL    HW288500   8.575   8.507   6.637
25480SOL     OW88501   7.846   7.839   7.321
25480SOL    HW188502   7.882   7.786   7.244
25480SOL    HW288503   7.907   7.916   7.339
25481SOL     OW88504   7.910   8.256   5.893
25481SOL    HW188505   7.860   8.321   5.837
25481SOL    HW288506   7.852   8.177   5.912
25482SOL     OW88507   8.991   8.287   6.591
25482SOL    HW188508   9.010   8.326   6.500
25482SOL    HW288509   8.945   8.356   6.647
25483SOL     OW88510   8.683   7.730   6.887
25483SOL    HW188511   8.754   7.702   6.951
25483SOL    HW288512   8.630   7.650   6.859
25484SOL     OW88513   7.384   7.429   6.088
25484SOL    HW188514   7.297   7.416   6.041
25484SOL    HW288515   7.392   7.524   6.118
25485SOL     OW88516   8.605   7.530   7.329
25485SOL    HW188517   8.664   7.546   7.409
25485SOL    HW288518   8.552   7.613   7.310
25486SOL     OW88519   7.821   8.949   7.154
25486SOL    HW188520   7.763   9.014   7.203
25486SOL    HW288521   7.883   8.999   7.094
25487SOL     OW88522   9.177   8.836   7.095
25487SOL    HW188523   9.205   8.929   7.117
25487SOL    HW288524   9.084   8.820   7.128
25488SOL     OW88525   8.427   7.949   6.645
25488SOL    HW188526   8.513   8.000   6.644
25488SOL    HW288527   8.433   7.875   6.712
25489SOL     OW88528   7.831   8.895   6.217
25489SOL    HW188529   7.829   8.796   6.230
25489SOL    HW288530   7.740   8.928   6.194
25490SOL     OW88531   8.472   9.012   6.805
25490SOL    HW188532   8.398   9.076   6.823
25490SOL    HW288533   8.551   9.061   6.767
25491SOL     OW88534   7.681   9.142   7.304
25491SOL    HW188535   7.724   9.226   7.270
25491SOL    HW288536   7.706   9.129   7.400
25492SOL     OW88537   7.541   8.678   7.175
25492SOL    HW188538   7.520   8.583   7.148
25492SOL    HW288539   7.472   8.739   7.137
25493SOL     OW88540   7.630   9.043   6.579
25493SOL    HW188541   7.572   8.963   6.593
25493SOL    HW288542   7.654   9.050   6.482
25494SOL     OW88543   8.376   7.564   6.434
25494SOL    HW188544   8.472   7.565   6.462
25494SOL    HW288545   8.321   7.521   6.506
25495SOL     OW88546   8.438   8.570   5.950
25495SOL    HW188547   8.518   8.606   5.998
25495SOL    HW288548   8.396   8.497   6.006
25496SOL     OW88549   9.029   7.837   6.314
25496SOL    HW188550   9.048   7.923   6.361
25496SOL    HW288551   9.097   7.768   6.342
25497SOL     OW88552   8.172   8.509   5.800
25497SOL    HW188553   8.244   8.568   5.765
25497SOL    HW288554   8.212   8.425   5.836
25498SOL     OW88555   8.243   7.485   5.652
25498SOL    HW188556   8.318   7.419   5.664
25498SOL    HW288557   8.274   7.576   5.680
25499SOL     OW88558   7.922   7.914   6.264
25499SOL    HW188559   7.960   7.825   6.290
25499SOL    HW288560   7.989   7.964   6.209
25500SOL     OW88561   7.910   8.472   6.918
25500SOL    HW188562   8.006   8.452   6.938
25500SOL    HW288563   7.899   8.570   6.900
25501SOL     OW88564   9.132   8.515   6.887
25501SOL    HW188565   9.146   8.613   6.901
25501SOL    HW288566   9.189   8.484   6.811
25502SOL     OW88567   7.615   8.624   5.579
25502SOL    HW188568   7.607   8.636   5.480
25502SOL    HW288569   7.674   8.695   5.617
25503SOL     OW88570   8.042   9.063   5.739
25503SOL    HW188571   8.017   9.158   5.723
25503SOL    HW288572   8.009   9.035   5.829
25504SOL     OW88573   8.692   8.486   6.963
25504SOL    HW188574   8.636   8.445   7.034
25504SOL    HW288575   8.672   8.584   6.957
25505SOL     OW88576   7.959   9.102   6.963
25505SOL    HW188577   8.008   9.182   6.927
25505SOL    HW288578   7.867   9.100   6.924
25506SOL     OW88579   7.602   7.983   7.325
25506SOL    HW188580   7.619   7.884   7.330
25506SOL    HW288581   7.666   8.031   7.386
25507SOL     OW88582   9.041   8.944   6.564
25507SOL    HW188583   9.013   9.037   6.588
25507SOL    HW288584   9.091   8.903   6.640
25508SOL     OW88585   7.437   8.317   6.125
25508SOL    HW188586   7.444   8.416   6.112
25508SOL    HW288587   7.346   8.294   6.159
25509SOL     OW88588   7.946   8.115   7.063
25509SOL    HW188589   7.852   8.085   7.044
25509SOL    HW288590   7.955   8.212   7.040
25510SOL     OW88591   9.013   8.491   6.375
25510SOL    HW188592   8.975   8.580   6.348
25510SOL    HW288593   9.013   8.429   6.297
25511SOL     OW88594   8.171   7.897   6.544
25511SOL    HW188595   8.263   7.925   6.571
25511SOL    HW288596   8.103   7.948   6.598
25512SOL     OW88597   8.024   8.748   6.771
25512SOL    HW188598   7.937   8.747   6.722
25512SOL    HW288599   8.090   8.688   6.724
25513SOL     OW88600   7.590   8.090   6.685
25513SOL    HW188601   7.628   8.149   6.756
25513SOL    HW288602   7.573   8.143   6.603
25514SOL     OW88603   7.761   8.736   6.983
25514SOL    HW188604   7.780   8.824   7.027
25514SOL    HW288605   7.666   8.710   7.001
25515SOL     OW88606   9.004   9.052   7.331
25515SOL    HW188607   8.973   8.974   7.276
25515SOL    HW288608   8.973   9.137   7.289
25516SOL     OW88609   8.712   8.590   6.052
25516SOL    HW188610   8.811   8.594   6.068
25516SOL    HW288611   8.695   8.576   5.954
25517SOL     OW88612   8.065   7.756   6.000
25517SOL    HW188613   7.967   7.750   5.980
25517SOL    HW288614   8.084   7.713   6.088
25518SOL     OW88615   8.985   7.439   6.259
25518SOL    HW188616   8.980   7.480   6.168
25518SOL    HW288617   9.066   7.473   6.306
25519SOL     OW88618   8.588   8.195   6.952
25519SOL    HW188619   8.687   8.204   6.942
25519SOL    HW288620   8.544   8.197   6.862
25520SOL     OW88621   8.082   8.155   6.354
25520SOL    HW188622   8.104   8.077   6.412
25520SOL    HW288623   8.091   8.129   6.258
25521SOL     OW88624   8.747   8.862   6.566
25521SOL    HW188625   8.661   8.819   6.595
25521SOL    HW288626   8.736   8.902   6.475
25522SOL     OW88627   8.750   7.847   6.241
25522SOL    HW188628   8.749   7.839   6.142
25522SOL    HW288629   8.839   7.819   6.276
25523SOL     OW88630   8.477   8.863   8.074
25523SOL    HW188631   8.568   8.897   8.097
25523SOL    HW288632   8.449   8.901   7.986
25524SOL     OW88633   8.988   8.659   7.932
25524SOL    HW188634   8.999   8.743   7.986
25524SOL    HW288635   9.078   8.622   7.909
25525SOL     OW88636   9.068   7.941   8.796
25525SOL    HW188637   8.970   7.933   8.818
25525SOL    HW288638   9.121   7.930   8.880
25526SOL     OW88639   7.735   7.578   7.401
25526SOL    HW188640   7.648   7.575   7.352
25526SOL    HW288641   7.786   7.660   7.373
25527SOL     OW88642   8.722   8.967   8.176
25527SOL    HW188643   8.711   9.064   8.199
25527SOL    HW288644   8.815   8.950   8.146
25528SOL     OW88645   8.600   7.478   8.734
25528SOL    HW188646   8.524   7.433   8.781
25528SOL    HW288647   8.629   7.423   8.656
25529SOL     OW88648   8.338   8.258   9.111
25529SOL    HW188649   8.303   8.233   9.021
25529SOL    HW288650   8.262   8.279   9.172
25530SOL     OW88651   7.945   8.932   7.805
25530SOL    HW188652   7.901   8.941   7.894
25530SOL    HW288653   8.016   8.862   7.809
25531SOL     OW88654   7.963   7.465   7.527
25531SOL    HW188655   8.051   7.493   7.488
25531SOL    HW288656   7.891   7.528   7.497
25532SOL     OW88657   8.933   8.450   8.910
25532SOL    HW188658   8.841   8.455   8.872
25532SOL    HW288659   8.998   8.488   8.844
25533SOL     OW88660   8.833   8.457   8.591
25533SOL    HW188661   8.758   8.446   8.656
25533SOL    HW288662   8.870   8.550   8.597
25534SOL     OW88663   8.329   8.712   8.891
25534SOL    HW188664   8.272   8.775   8.837
25534SOL    HW288665   8.362   8.638   8.832
25535SOL     OW88666   7.872   8.605   8.100
25535SOL    HW188667   7.805   8.559   8.159
25535SOL    HW288668   7.964   8.573   8.123
25536SOL     OW88669   8.099   8.011   7.931
25536SOL    HW188670   8.138   8.081   7.872
25536SOL    HW288671   8.073   7.931   7.877
25537SOL     OW88672   8.719   7.919   9.140
25537SOL    HW188673   8.815   7.923   9.166
25537SOL    HW288674   8.675   7.843   9.187
25538SOL     OW88675   7.802   8.774   7.584
25538SOL    HW188676   7.866   8.790   7.509
25538SOL    HW288677   7.826   8.832   7.662
25539SOL     OW88678   7.953   7.730   8.394
25539SOL    HW188679   8.029   7.795   8.390
25539SOL    HW288680   7.983   7.641   8.361
25540SOL     OW88681   7.650   8.156   7.812
25540SOL    HW188682   7.665   8.090   7.886
25540SOL    HW288683   7.600   8.235   7.847
25541SOL     OW88684   8.236   9.101   7.989
25541SOL    HW188685   8.301   9.034   7.953
25541SOL    HW288686   8.226   9.177   7.925
25542SOL     OW88687   9.128   8.983   7.731
25542SOL    HW188688   9.224   8.957   7.724
25542SOL    HW288689   9.104   9.043   7.655
25543SOL     OW88690   9.040   7.676   8.502
25543SOL    HW188691   9.091   7.748   8.455
25543SOL    HW288692   8.945   7.703   8.511
25544SOL     OW88693   8.440   7.705   7.771
25544SOL    HW188694   8.465   7.799   7.792
25544SOL    HW288695   8.441   7.651   7.855
25545SOL     OW88696   7.564   8.418   8.956
25545SOL    HW188697   7.660   8.433   8.974
25545SOL    HW288698   7.526   8.356   9.025
25546SOL     OW88699   7.890   8.063   7.499
25546SOL    HW188700   7.850   8.142   7.452
25546SOL    HW288701   7.979   8.042   7.459
25547SOL     OW88702   8.063   8.987   8.197
25547SOL    HW188703   8.136   9.010   8.133
25547SOL    HW288704   7.992   8.934   8.151
25548SOL     OW88705   8.405   8.019   8.951
25548SOL    HW188706   8.438   7.936   8.998
25548SOL    HW288707   8.478   8.087   8.950
25549SOL     OW88708   9.009   8.819   8.173
25549SOL    HW188709   9.005   8.854   8.266
25549SOL    HW288710   9.068   8.878   8.117
25550SOL     OW88711   7.740   8.640   7.849
25550SOL    HW188712   7.786   8.614   7.934
25550SOL    HW288713   7.760   8.572   7.778
25551SOL     OW88714   8.598   7.695   7.560
25551SOL    HW188715   8.692   7.665   7.578
25551SOL    HW288716   8.546   7.695   7.646
25552SOL     OW88717   7.750   7.900   8.655
25552SOL    HW188718   7.740   7.813   8.607
25552SOL    HW288719   7.686   7.967   8.618
25553SOL     OW88720   8.832   8.180   8.693
25553SOL    HW188721   8.836   8.274   8.658
25553SOL    HW288722   8.925   8.149   8.715
25554SOL     OW88723   7.785   7.672   7.814
25554SOL    HW188724   7.739   7.712   7.893
25554SOL    HW288725   7.733   7.691   7.732
25555SOL     OW88726   8.913   9.199   8.726
25555SOL    HW188727   8.856   9.150   8.660
25555SOL    HW288728   8.999   9.226   8.683
25556SOL     OW88729   9.208   7.917   8.581
25556SOL    HW188730   9.265   7.999   8.583
25556SOL    HW288731   9.149   7.916   8.661
25557SOL     OW88732   8.338   7.883   8.056
25557SOL    HW188733   8.414   7.911   8.115
25557SOL    HW288734   8.294   7.963   8.017
25558SOL     OW88735   8.573   8.347   7.573
25558SOL    HW188736   8.610   8.297   7.651
25558SOL    HW288737   8.503   8.292   7.528
25559SOL     OW88738   8.415   7.769   9.194
25559SOL    HW188739   8.478   7.774   9.271
25559SOL    HW288740   8.323   7.747   9.227
25560SOL     OW88741   9.156   8.016   7.652
25560SOL    HW188742   9.177   7.935   7.598
25560SOL    HW288743   9.173   7.997   7.749
25561SOL     OW88744   8.450   9.154   7.560
25561SOL    HW188745   8.484   9.067   7.525
25561SOL    HW288746   8.418   9.142   7.654
25562SOL     OW88747   8.131   7.421   9.092
25562SOL    HW188748   8.138   7.327   9.059
25562SOL    HW288749   8.188   7.431   9.174
25563SOL     OW88750   9.054   8.022   8.360
25563SOL    HW188751   9.039   8.113   8.397
25563SOL    HW288752   9.124   7.975   8.414
25564SOL     OW88753   8.464   8.688   9.126
25564SOL    HW188754   8.486   8.598   9.088
25564SOL    HW288755   8.399   8.735   9.067
25565SOL     OW88756   8.119   8.530   9.130
25565SOL    HW188757   8.090   8.607   9.187
25565SOL    HW288758   8.129   8.449   9.188
25566SOL     OW88759   8.754   7.394   8.236
25566SOL    HW188760   8.703   7.478   8.218
25566SOL    HW288761   8.840   7.396   8.185
25567SOL     OW88762   9.109   7.600   9.165
25567SOL    HW188763   9.086   7.621   9.260
25567SOL    HW288764   9.085   7.505   9.145
25568SOL     OW88765   7.412   8.004   7.909
25568SOL    HW188766   7.414   7.955   7.996
25568SOL    HW288767   7.414   8.103   7.927
25569SOL     OW88768   7.733   7.592   8.230
25569SOL    HW188769   7.785   7.632   8.305
25569SOL    HW288770   7.786   7.519   8.187
25570SOL     OW88771   7.717   7.640   8.564
25570SOL    HW188772   7.682   7.547   8.564
25570SOL    HW288773   7.804   7.643   8.515
25571SOL     OW88774   8.384   8.262   8.304
25571SOL    HW188775   8.410   8.342   8.250
25571SOL    HW288776   8.378   8.182   8.244
25572SOL     OW88777   7.585   8.889   7.763
25572SOL    HW188778   7.612   8.795   7.783
25572SOL    HW288779   7.610   8.911   7.669
25573SOL     OW88780   8.867   8.758   8.637
25573SOL    HW188781   8.838   8.795   8.548
25573SOL    HW288782   8.789   8.758   8.699
25574SOL     OW88783   7.599   9.032   8.000
25574SOL    HW188784   7.515   9.083   8.018
25574SOL    HW288785   7.590   8.981   7.915
25575SOL     OW88786   9.120   8.829   8.675
25575SOL    HW188787   9.151   8.843   8.769
25575SOL    HW288788   9.021   8.816   8.674
25576SOL     OW88789   7.872   8.329   7.402
25576SOL    HW188790   7.841   8.363   7.314
25576SOL    HW288791   7.876   8.404   7.468
25577SOL     OW88792   8.389   8.516   8.701
25577SOL    HW188793   8.439   8.431   8.685
25577SOL    HW288794   8.343   8.543   8.616
25578SOL     OW88795   7.476   8.221   7.575
25578SOL    HW188796   7.536   8.168   7.635
25578SOL    HW288797   7.382   8.189   7.587
25579SOL     OW88798   8.996   8.219   7.775
25579SOL    HW188799   9.064   8.153   7.742
25579SOL    HW288800   9.011   8.307   7.731
25580SOL     OW88801   8.244   9.206   8.423
25580SOL    HW188802   8.290   9.139   8.365
25580SOL    HW288803   8.170   9.162   8.473
25581SOL     OW88804   8.151   8.275   7.459
25581SOL    HW188805   8.180   8.194   7.510
25581SOL    HW288806   8.051   8.274   7.450
25582SOL     OW88807   8.747   7.807   7.805
25582SOL    HW188808   8.684   7.865   7.753
25582SOL    HW288809   8.840   7.841   7.793
25583SOL     OW88810   7.644   8.008   8.905
25583SOL    HW188811   7.664   7.913   8.880
25583SOL    HW288812   7.607   8.011   8.998
25584SOL     OW88813   7.526   7.663   8.795
25584SOL    HW188814   7.598   7.673   8.726
25584SOL    HW288815   7.437   7.662   8.750
25585SOL     OW88816   8.424   8.284   8.560
25585SOL    HW188817   8.418   8.270   8.461
25585SOL    HW288818   8.343   8.245   8.604
25586SOL     OW88819   9.015   7.818   7.875
25586SOL    HW188820   9.111   7.789   7.872
25586SOL    HW288821   8.976   7.796   7.964
25587SOL     OW88822   8.299   8.893   8.312
25587SOL    HW188823   8.357   8.904   8.231
25587SOL    HW288824   8.205   8.917   8.290
25588SOL     OW88825   8.249   7.759   7.597
25588SOL    HW188826   8.158   7.772   7.635
25588SOL    HW288827   8.309   7.719   7.667
25589SOL     OW88828   8.360   8.704   7.532
25589SOL    HW188829   8.413   8.644   7.592
25589SOL    HW288830   8.399   8.705   7.441
25590SOL     OW88831   9.111   8.999   8.017
25590SOL    HW188832   9.078   9.092   8.036
25590SOL    HW288833   9.109   8.983   7.918
25591SOL     OW88834   8.526   8.272   8.006
25591SOL    HW188835   8.591   8.300   8.077
25591SOL    HW288836   8.447   8.333   8.008
25592SOL     OW88837   8.274   8.998   9.030
25592SOL    HW188838   8.262   8.929   8.959
25592SOL    HW288839   8.237   8.963   9.117
25593SOL     OW88840   8.718   8.312   8.209
25593SOL    HW188841   8.739   8.254   8.287
25593SOL    HW288842   8.727   8.408   8.235
25594SOL     OW88843   7.674   8.441   8.255
25594SOL    HW188844   7.597   8.503   8.248
25594SOL    HW288845   7.711   8.442   8.348
25595SOL     OW88846   8.307   8.389   7.954
25595SOL    HW188847   8.294   8.300   7.911
25595SOL    HW288848   8.238   8.403   8.025
25596SOL     OW88849   8.611   8.777   8.793
25596SOL    HW188850   8.644   8.862   8.834
25596SOL    HW288851   8.512   8.773   8.800
25597SOL     OW88852   7.418   7.694   7.857
25597SOL    HW188853   7.478   7.645   7.795
25597SOL    HW288854   7.473   7.746   7.922
25598SOL     OW88855   9.041   9.192   7.548
25598SOL    HW188856   9.131   9.236   7.550
25598SOL    HW288857   9.040   9.123   7.476
25599SOL     OW88858   8.205   8.159   8.706
25599SOL    HW188859   8.207   8.245   8.757
25599SOL    HW288860   8.262   8.091   8.753
25600SOL     OW88861   7.442   9.186   8.777
25600SOL    HW188862   7.450   9.286   8.775
25600SOL    HW288863   7.418   9.157   8.870
25601SOL     OW88864   8.223   8.205   7.771
25601SOL    HW188865   8.134   8.233   7.736
25601SOL    HW288866   8.264   8.139   7.707
25602SOL     OW88867   7.745   7.923   8.310
25602SOL    HW188868   7.801   7.916   8.227
25602SOL    HW288869   7.802   7.901   8.390
25603SOL     OW88870   7.742   9.121   7.581
25603SOL    HW188871   7.834   9.151   7.556
25603SOL    HW288872   7.717   9.160   7.670
25604SOL     OW88873   8.718   9.143   8.518
25604SOL    HW188874   8.737   9.206   8.444
25604SOL    HW288875   8.726   9.049   8.485
25605SOL     OW88876   8.174   7.443   7.780
25605SOL    HW188877   8.135   7.432   7.689
25605SOL    HW288878   8.130   7.519   7.827
25606SOL     OW88879   7.419   8.579   7.874
25606SOL    HW188880   7.497   8.637   7.898
25606SOL    HW288881   7.438   8.530   7.789
25607SOL     OW88882   8.949   7.707   8.958
25607SOL    HW188883   8.888   7.785   8.955
25607SOL    HW288884   9.004   7.711   9.041
25608SOL     OW88885   8.665   7.653   8.249
25608SOL    HW188886   8.664   7.731   8.186
25608SOL    HW288887   8.708   7.680   8.335
25609SOL     OW88888   8.785   7.459   7.545
25609SOL    HW188889   8.865   7.399   7.542
25609SOL    HW288890   8.711   7.412   7.593
25610SOL     OW88891   8.998   7.431   8.979
25610SOL    HW188892   9.024   7.388   8.893
25610SOL    HW288893   8.948   7.515   8.961
25611SOL     OW88894   8.100   7.690   8.111
25611SOL    HW188895   8.089   7.632   8.192
25611SOL    HW288896   8.185   7.742   8.119
25612SOL     OW88897   8.680   8.041   8.503
25612SOL    HW188898   8.734   8.081   8.429
25612SOL    HW288899   8.718   8.070   8.591
25613SOL     OW88900   8.973   7.447   7.819
25613SOL    HW188901   8.980   7.401   7.731
25613SOL    HW288902   8.877   7.457   7.844
25614SOL     OW88903   7.949   8.762   9.182
25614SOL    HW188904   7.910   8.825   9.115
25614SOL    HW288905   8.032   8.802   9.222
25615SOL     OW88906   7.825   8.494   9.014
25615SOL    HW188907   7.844   8.518   8.919
25615SOL    HW288908   7.818   8.577   9.069
25616SOL     OW88909   8.572   7.985   8.221
25616SOL    HW188910   8.654   7.962   8.169
25616SOL    HW288911   8.567   7.926   8.302
25617SOL     OW88912   9.172   8.012   9.057
25617SOL    HW188913   9.161   8.098   9.006
25617SOL    HW288914   9.266   8.003   9.087
25618SOL     OW88915   8.743   7.785   8.476
25618SOL    HW188916   8.717   7.882   8.482
25618SOL    HW288917   8.743   7.745   8.568
25619SOL     OW88918   8.973   7.917   9.227
25619SOL    HW188919   9.053   7.942   9.171
25619SOL    HW288920   9.004   7.882   9.315
25620SOL     OW88921   8.684   8.220   7.807
25620SOL    HW188922   8.630   8.218   7.891
25620SOL    HW288923   8.761   8.283   7.818
25621SOL     OW88924   8.981   8.316   8.027
25621SOL    HW188925   8.995   8.279   7.934
25621SOL    HW288926   8.892   8.286   8.061
25622SOL     OW88927   9.137   8.253   8.922
25622SOL    HW188928   9.039   8.274   8.924
25622SOL    HW288929   9.186   8.329   8.881
25623SOL     OW88930   8.991   7.673   7.601
25623SOL    HW188931   8.996   7.715   7.692
25623SOL    HW288932   8.924   7.598   7.603
25624SOL     OW88933   8.138   8.888   8.821
25624SOL    HW188934   8.075   8.966   8.828
25624SOL    HW288935   8.106   8.826   8.749
25625SOL     OW88936   7.529   7.683   9.086
25625SOL    HW188937   7.547   7.672   8.988
25625SOL    HW288938   7.431   7.679   9.103
25626SOL     OW88939   7.409   9.097   9.030
25626SOL    HW188940   7.481   9.083   9.098
25626SOL    HW288941   7.320   9.100   9.075
25627SOL     OW88942   7.577   7.753   8.054
25627SOL    HW188943   7.520   7.808   8.115
25627SOL    HW288944   7.647   7.705   8.107
25628SOL     OW88945   8.749   8.985   8.917
25628SOL    HW188946   8.702   9.053   8.972
25628SOL    HW288947   8.816   9.031   8.858
25629SOL     OW88948   7.714   7.944   7.652
25629SOL    HW188949   7.786   7.973   7.589
25629SOL    HW288950   7.670   8.024   7.692
25630SOL     OW88951   9.100   7.606   8.755
25630SOL    HW188952   9.056   7.654   8.831
25630SOL    HW288953   9.078   7.652   8.669
25631SOL     OW88954   7.829   9.207   8.118
25631SOL    HW188955   7.753   9.173   8.063
25631SOL    HW288956   7.915   9.170   8.083
25632SOL     OW88957   7.754   8.716   8.563
25632SOL    HW188958   7.766   8.732   8.660
25632SOL    HW288959   7.667   8.756   8.533
25633SOL     OW88960   8.638   8.920   9.209
25633SOL    HW188961   8.597   8.835   9.175
25633SOL    HW288962   8.618   8.994   9.145
25634SOL     OW88963   8.128   8.640   7.899
25634SOL    HW188964   8.171   8.571   7.841
25634SOL    HW288965   8.092   8.597   7.982
25635SOL     OW88966   7.760   8.191   8.101
25635SOL    HW188967   7.752   8.289   8.119
25635SOL    HW288968   7.844   8.157   8.142
25636SOL     OW88969   7.606   7.671   7.616
25636SOL    HW188970   7.650   7.640   7.533
25636SOL    HW288971   7.607   7.771   7.620
25637SOL     OW88972   7.459   7.923   8.227
25637SOL    HW188973   7.423   8.016   8.219
25637SOL    HW288974   7.542   7.924   8.283
25638SOL     OW88975   7.894   8.510   7.613
25638SOL    HW188976   7.994   8.510   7.624
25638SOL    HW288977   7.863   8.603   7.592
25639SOL     OW88978   8.520   8.102   7.429
25639SOL    HW188979   8.451   8.159   7.385
25639SOL    HW288980   8.601   8.096   7.370
25640SOL     OW88981   8.255   8.021   7.572
25640SOL    HW188982   8.345   8.022   7.527
25640SOL    HW288983   8.232   7.927   7.597
25641SOL     OW88984   8.706   7.538   7.866
25641SOL    HW188985   8.616   7.522   7.907
25641SOL    HW288986   8.714   7.634   7.840
25642SOL     OW88987   8.820   7.938   8.882
25642SOL    HW188988   8.772   7.961   8.966
25642SOL    HW288989   8.754   7.908   8.813
25643SOL     OW88990   9.027   8.440   7.627
25643SOL    HW188991   9.098   8.510   7.629
25643SOL    HW288992   9.014   8.410   7.532
25644SOL     OW88993   8.009   8.041   8.549
25644SOL    HW188994   8.084   8.084   8.598
25644SOL    HW288995   7.942   8.006   8.615
25645SOL     OW88996   8.152   8.410   8.866
25645SOL    HW188997   8.221   8.462   8.816
25645SOL    HW288998   8.147   8.443   8.961
25646SOL     OW88999   8.544   8.431   9.026
25646SOL    HW189000   8.466   8.377   9.059
25646SOL    HW289001   8.625   8.409   9.081
25647SOL     OW89002   8.473   7.613   8.022
25647SOL    HW189003   8.532   7.673   8.077
25647SOL    HW289004   8.400   7.577   8.079
25648SOL     OW89005   8.583   9.145   9.062
25648SOL    HW189006   8.488   9.143   9.030
25648SOL    HW289007   8.604   9.236   9.099
25649SOL     OW89008   8.001   7.490   8.293
25649SOL    HW189009   7.929   7.423   8.279
25649SOL    HW289010   8.083   7.444   8.328
25650SOL     OW89011   7.701   9.155   8.660
25650SOL    HW189012   7.681   9.137   8.564
25650SOL    HW289013   7.628   9.117   8.717
25651SOL     OW89014   8.394   8.619   8.205
25651SOL    HW189015   8.433   8.662   8.124
25651SOL    HW289016   8.467   8.602   8.272
25652SOL     OW89017   8.088   8.347   8.407
25652SOL    HW189018   8.086   8.263   8.352
25652SOL    HW289019   8.037   8.333   8.492
25653SOL     OW89020   8.071   8.019   9.141
25653SOL    HW189021   8.023   8.070   9.070
25653SOL    HW289022   8.164   7.998   9.111
25654SOL     OW89023   7.477   8.489   7.633
25654SOL    HW189024   7.467   8.392   7.612
25654SOL    HW289025   7.530   8.534   7.561
25655SOL     OW89026   9.174   7.601   8.234
25655SOL    HW189027   9.129   7.583   8.321
25655SOL    HW289028   9.272   7.618   8.250
25656SOL     OW89029   8.222   8.577   8.486
25656SOL    HW189030   8.173   8.492   8.467
25656SOL    HW289031   8.292   8.592   8.417
25657SOL     OW89032   8.560   8.000   7.695
25657SOL    HW189033   8.612   8.072   7.741
25657SOL    HW289034   8.573   8.007   7.597
25658SOL     OW89035   8.921   8.815   9.022
25658SOL    HW189036   8.906   8.717   9.036
25658SOL    HW289037   8.838   8.857   8.986
25659SOL     OW89038   7.678   8.257   8.762
25659SOL    HW189039   7.642   8.167   8.788
25659SOL    HW289040   7.639   8.327   8.822
25660SOL     OW89041   8.180   8.883   7.420
25660SOL    HW189042   8.155   8.960   7.479
25660SOL    HW289043   8.244   8.823   7.468
25661SOL     OW89044   7.998   9.090   8.454
25661SOL    HW189045   8.018   9.060   8.361
25661SOL    HW289046   7.923   9.035   8.491
25662SOL     OW89047   8.141   8.501   8.171
25662SOL    HW189048   8.230   8.547   8.171
25662SOL    HW289049   8.134   8.441   8.250
25663SOL     OW89050   8.319   8.848   7.840
25663SOL    HW189051   8.369   8.836   7.755
25663SOL    HW289052   8.265   8.765   7.859
25664SOL     OW89053   7.509   8.195   8.240
25664SOL    HW189054   7.604   8.186   8.208
25664SOL    HW289055   7.475   8.287   8.219
25665SOL     OW89056   7.446   8.312   9.167
25665SOL    HW189057   7.361   8.263   9.148
25665SOL    HW289058   7.473   8.299   9.262
25666SOL     OW89059   8.343   9.221   8.873
25666SOL    HW189060   8.315   9.134   8.914
25666SOL    HW289061   8.287   9.295   8.910
25667SOL     OW89062   8.572   8.568   8.403
25667SOL    HW189063   8.556   8.662   8.434
25667SOL    HW289064   8.575   8.507   8.483
25668SOL     OW89065   7.846   7.839   9.167
25668SOL    HW189066   7.882   7.786   9.090
25668SOL    HW289067   7.907   7.916   9.185
25669SOL     OW89068   7.910   8.256   7.739
25669SOL    HW189069   7.860   8.321   7.683
25669SOL    HW289070   7.852   8.177   7.758
25670SOL     OW89071   8.991   8.287   8.437
25670SOL    HW189072   9.010   8.326   8.346
25670SOL    HW289073   8.945   8.356   8.493
25671SOL     OW89074   8.683   7.730   8.733
25671SOL    HW189075   8.754   7.702   8.797
25671SOL    HW289076   8.630   7.650   8.705
25672SOL     OW89077   7.384   7.429   7.934
25672SOL    HW189078   7.297   7.416   7.887
25672SOL    HW289079   7.392   7.524   7.964
25673SOL     OW89080   8.605   7.530   9.175
25673SOL    HW189081   8.664   7.546   9.255
25673SOL    HW289082   8.552   7.613   9.156
25674SOL     OW89083   7.821   8.949   9.000
25674SOL    HW189084   7.763   9.014   9.049
25674SOL    HW289085   7.883   8.999   8.940
25675SOL     OW89086   9.177   8.836   8.941
25675SOL    HW189087   9.205   8.929   8.963
25675SOL    HW289088   9.084   8.820   8.974
25676SOL     OW89089   8.427   7.949   8.491
25676SOL    HW189090   8.513   8.000   8.490
25676SOL    HW289091   8.433   7.875   8.558
25677SOL     OW89092   7.831   8.895   8.063
25677SOL    HW189093   7.829   8.796   8.076
25677SOL    HW289094   7.740   8.928   8.040
25678SOL     OW89095   8.472   9.012   8.651
25678SOL    HW189096   8.398   9.076   8.669
25678SOL    HW289097   8.551   9.061   8.613
25679SOL     OW89098   7.681   9.142   9.150
25679SOL    HW189099   7.724   9.226   9.116
25679SOL    HW289100   7.706   9.129   9.246
25680SOL     OW89101   7.541   8.678   9.021
25680SOL    HW189102   7.520   8.583   8.994
25680SOL    HW289103   7.472   8.739   8.983
25681SOL     OW89104   7.630   9.043   8.425
25681SOL    HW189105   7.572   8.963   8.439
25681SOL    HW289106   7.654   9.050   8.328
25682SOL     OW89107   8.376   7.564   8.280
25682SOL    HW189108   8.472   7.565   8.308
25682SOL    HW289109   8.321   7.521   8.352
25683SOL     OW89110   8.438   8.570   7.796
25683SOL    HW189111   8.518   8.606   7.844
25683SOL    HW289112   8.396   8.497   7.852
25684SOL     OW89113   9.029   7.837   8.160
25684SOL    HW189114   9.048   7.923   8.207
25684SOL    HW289115   9.097   7.768   8.188
25685SOL     OW89116   8.172   8.509   7.646
25685SOL    HW189117   8.244   8.568   7.611
25685SOL    HW289118   8.212   8.425   7.682
25686SOL     OW89119   8.243   7.485   7.498
25686SOL    HW189120   8.318   7.419   7.510
25686SOL    HW289121   8.274   7.576   7.526
25687SOL     OW89122   7.922   7.914   8.110
25687SOL    HW189123   7.960   7.825   8.136
25687SOL    HW289124   7.989   7.964   8.055
25688SOL     OW89125   7.910   8.472   8.764
25688SOL    HW189126   8.006   8.452   8.784
25688SOL    HW289127   7.899   8.570   8.746
25689SOL     OW89128   9.132   8.515   8.733
25689SOL    HW189129   9.146   8.613   8.747
25689SOL    HW289130   9.189   8.484   8.657
25690SOL     OW89131   7.615   8.624   7.425
25690SOL    HW189132   7.607   8.636   7.326
25690SOL    HW289133   7.674   8.695   7.463
25691SOL     OW89134   8.042   9.063   7.585
25691SOL    HW189135   8.017   9.158   7.569
25691SOL    HW289136   8.009   9.035   7.675
25692SOL     OW89137   8.692   8.486   8.809
25692SOL    HW189138   8.636   8.445   8.880
25692SOL    HW289139   8.672   8.584   8.803
25693SOL     OW89140   7.959   9.102   8.809
25693SOL    HW189141   8.008   9.182   8.773
25693SOL    HW289142   7.867   9.100   8.770
25694SOL     OW89143   7.602   7.983   9.171
25694SOL    HW189144   7.619   7.884   9.176
25694SOL    HW289145   7.666   8.031   9.232
25695SOL     OW89146   7.437   8.317   7.971
25695SOL    HW189147   7.444   8.416   7.958
25695SOL    HW289148   7.346   8.294   8.005
25696SOL     OW89149   7.946   8.115   8.909
25696SOL    HW189150   7.852   8.085   8.890
25696SOL    HW289151   7.955   8.212   8.886
25697SOL     OW89152   9.013   8.491   8.221
25697SOL    HW189153   8.975   8.580   8.194
25697SOL    HW289154   9.013   8.429   8.143
25698SOL     OW89155   8.171   7.897   8.390
25698SOL    HW189156   8.263   7.925   8.417
25698SOL    HW289157   8.103   7.948   8.444
25699SOL     OW89158   8.024   8.748   8.617
25699SOL    HW189159   7.937   8.747   8.568
25699SOL    HW289160   8.090   8.688   8.570
25700SOL     OW89161   7.761   8.736   8.829
25700SOL    HW189162   7.780   8.824   8.873
25700SOL    HW289163   7.666   8.710   8.847
25701SOL     OW89164   9.004   9.052   9.177
25701SOL    HW189165   8.973   8.974   9.122
25701SOL    HW289166   8.973   9.137   9.135
25702SOL     OW89167   8.712   8.590   7.898
25702SOL    HW189168   8.811   8.594   7.914
25702SOL    HW289169   8.695   8.576   7.800
25703SOL     OW89170   8.065   7.756   7.846
25703SOL    HW189171   7.967   7.750   7.826
25703SOL    HW289172   8.084   7.713   7.934
25704SOL     OW89173   8.985   7.439   8.105
25704SOL    HW189174   8.980   7.480   8.014
25704SOL    HW289175   9.066   7.473   8.152
25705SOL     OW89176   8.588   8.195   8.798
25705SOL    HW189177   8.687   8.204   8.788
25705SOL    HW289178   8.544   8.197   8.708
25706SOL     OW89179   8.082   8.155   8.200
25706SOL    HW189180   8.104   8.077   8.258
25706SOL    HW289181   8.091   8.129   8.104
25707SOL     OW89182   8.747   8.862   8.412
25707SOL    HW189183   8.661   8.819   8.441
25707SOL    HW289184   8.736   8.902   8.321
25708SOL     OW89185   8.750   7.847   8.087
25708SOL    HW189186   8.749   7.839   7.988
25708SOL    HW289187   8.839   7.819   8.122
25709SOL     OW89188   8.477   8.863   9.919
25709SOL    HW189189   8.568   8.897   9.942
25709SOL    HW289190   8.449   8.901   9.831
25710SOL     OW89191   8.988   8.659   9.777
25710SOL    HW189192   8.999   8.743   9.831
25710SOL    HW289193   9.078   8.622   9.754
25711SOL     OW89194   7.735   7.578   9.246
25711SOL    HW189195   7.648   7.575   9.197
25711SOL    HW289196   7.786   7.660   9.218
25712SOL     OW89197   7.945   8.932   9.650
25712SOL    HW189198   7.901   8.941   9.739
25712SOL    HW289199   8.016   8.862   9.654
25713SOL     OW89200   7.963   7.465   9.372
25713SOL    HW189201   8.051   7.493   9.333
25713SOL    HW289202   7.891   7.528   9.342
25714SOL     OW89203   7.872   8.605   9.945
25714SOL    HW189204   7.805   8.559  10.004
25714SOL    HW289205   7.964   8.573   9.968
25715SOL     OW89206   8.099   8.011   9.776
25715SOL    HW189207   8.138   8.081   9.717
25715SOL    HW289208   8.073   7.931   9.722
25716SOL     OW89209   7.802   8.774   9.429
25716SOL    HW189210   7.866   8.790   9.354
25716SOL    HW289211   7.826   8.832   9.507
25717SOL     OW89212   7.650   8.156   9.657
25717SOL    HW189213   7.665   8.090   9.731
25717SOL    HW289214   7.600   8.235   9.692
25718SOL     OW89215   8.236   9.101   9.834
25718SOL    HW189216   8.301   9.034   9.798
25718SOL    HW289217   8.226   9.177   9.770
25719SOL     OW89218   8.440   7.705   9.616
25719SOL    HW189219   8.465   7.799   9.637
25719SOL    HW289220   8.441   7.651   9.700
25720SOL     OW89221   7.890   8.063   9.344
25720SOL    HW189222   7.850   8.142   9.297
25720SOL    HW289223   7.979   8.042   9.304
25721SOL     OW89224   9.009   8.819  10.018
25721SOL    HW189225   9.005   8.854  10.111
25721SOL    HW289226   9.068   8.878   9.962
25722SOL     OW89227   7.740   8.640   9.694
25722SOL    HW189228   7.786   8.614   9.779
25722SOL    HW289229   7.760   8.572   9.623
25723SOL     OW89230   8.598   7.695   9.405
25723SOL    HW189231   8.692   7.665   9.423
25723SOL    HW289232   8.546   7.695   9.491
25724SOL     OW89233   7.785   7.672   9.659
25724SOL    HW189234   7.739   7.712   9.738
25724SOL    HW289235   7.733   7.691   9.577
25725SOL     OW89236   8.338   7.883   9.901
25725SOL    HW189237   8.414   7.911   9.960
25725SOL    HW289238   8.294   7.963   9.862
25726SOL     OW89239   8.573   8.347   9.418
25726SOL    HW189240   8.610   8.297   9.496
25726SOL    HW289241   8.503   8.292   9.373
25727SOL     OW89242   9.156   8.016   9.497
25727SOL    HW189243   9.177   7.935   9.443
25727SOL    HW289244   9.173   7.997   9.594
25728SOL     OW89245   8.450   9.154   9.405
25728SOL    HW189246   8.484   9.067   9.370
25728SOL    HW289247   8.418   9.142   9.499
25729SOL     OW89248   7.412   8.004   9.754
25729SOL    HW189249   7.414   7.955   9.841
25729SOL    HW289250   7.414   8.103   9.772
25730SOL     OW89251   7.585   8.889   9.608
25730SOL    HW189252   7.612   8.795   9.628
25730SOL    HW289253   7.610   8.911   9.514
25731SOL     OW89254   7.599   9.032   9.845
25731SOL    HW189255   7.515   9.083   9.863
25731SOL    HW289256   7.590   8.981   9.760
25732SOL     OW89257   7.872   8.329   9.247
25732SOL    HW189258   7.841   8.363   9.159
25732SOL    HW289259   7.876   8.404   9.313
25733SOL     OW89260   7.476   8.221   9.420
25733SOL    HW189261   7.536   8.168   9.480
25733SOL    HW289262   7.382   8.189   9.432
25734SOL     OW89263   8.996   8.219   9.620
25734SOL    HW189264   9.064   8.153   9.587
25734SOL    HW289265   9.011   8.307   9.576
25735SOL     OW89266   8.151   8.275   9.304
25735SOL    HW189267   8.180   8.194   9.355
25735SOL    HW289268   8.051   8.274   9.295
25736SOL     OW89269   8.747   7.807   9.650
25736SOL    HW189270   8.684   7.865   9.598
25736SOL    HW289271   8.840   7.841   9.638
25737SOL     OW89272   9.015   7.818   9.720
25737SOL    HW189273   9.111   7.789   9.717
25737SOL    HW289274   8.976   7.796   9.809
25738SOL     OW89275   8.249   7.759   9.442
25738SOL    HW189276   8.158   7.772   9.480
25738SOL    HW289277   8.309   7.719   9.512
25739SOL     OW89278   8.360   8.704   9.377
25739SOL    HW189279   8.413   8.644   9.437
25739SOL    HW289280   8.399   8.705   9.286
25740SOL     OW89281   8.526   8.272   9.851
25740SOL    HW189282   8.591   8.300   9.922
25740SOL    HW289283   8.447   8.333   9.853
25741SOL     OW89284   8.718   8.312  10.054
25741SOL    HW189285   8.739   8.254  10.132
25741SOL    HW289286   8.727   8.408  10.080
25742SOL     OW89287   8.307   8.389   9.799
25742SOL    HW189288   8.294   8.300   9.756
25742SOL    HW289289   8.238   8.403   9.870
25743SOL     OW89290   7.418   7.694   9.702
25743SOL    HW189291   7.478   7.645   9.640
25743SOL    HW289292   7.473   7.746   9.767
25744SOL     OW89293   8.223   8.205   9.616
25744SOL    HW189294   8.134   8.233   9.581
25744SOL    HW289295   8.264   8.139   9.552
25745SOL     OW89296   7.742   9.121   9.426
25745SOL    HW189297   7.834   9.151   9.401
25745SOL    HW289298   7.717   9.160   9.515
25746SOL     OW89299   7.419   8.579   9.719
25746SOL    HW189300   7.497   8.637   9.743
25746SOL    HW289301   7.438   8.530   9.634
25747SOL     OW89302   8.785   7.459   9.390
25747SOL    HW189303   8.865   7.399   9.387
25747SOL    HW289304   8.711   7.412   9.438
25748SOL     OW89305   8.973   7.447   9.664
25748SOL    HW189306   8.980   7.401   9.576
25748SOL    HW289307   8.877   7.457   9.689
25749SOL     OW89308   8.684   8.220   9.652
25749SOL    HW189309   8.630   8.218   9.736
25749SOL    HW289310   8.761   8.283   9.663
25750SOL     OW89311   8.981   8.316   9.872
25750SOL    HW189312   8.995   8.279   9.779
25750SOL    HW289313   8.892   8.286   9.906
25751SOL     OW89314   8.991   7.673   9.446
25751SOL    HW189315   8.996   7.715   9.537
25751SOL    HW289316   8.924   7.598   9.448
25752SOL     OW89317   7.714   7.944   9.497
25752SOL    HW189318   7.786   7.973   9.434
25752SOL    HW289319   7.670   8.024   9.537
25753SOL     OW89320   7.829   9.207   9.963
25753SOL    HW189321   7.753   9.173   9.908
25753SOL    HW289322   7.915   9.170   9.928
25754SOL     OW89323   8.128   8.640   9.744
25754SOL    HW189324   8.171   8.571   9.686
25754SOL    HW289325   8.092   8.597   9.827
25755SOL     OW89326   7.606   7.671   9.461
25755SOL    HW189327   7.650   7.640   9.378
25755SOL    HW289328   7.607   7.771   9.465
25756SOL     OW89329   7.459   7.923  10.072
25756SOL    HW189330   7.423   8.016  10.064
25756SOL    HW289331   7.542   7.924  10.128
25757SOL     OW89332   7.894   8.510   9.458
25757SOL    HW189333   7.994   8.510   9.469
25757SOL    HW289334   7.863   8.603   9.437
25758SOL     OW89335   8.520   8.102   9.274
25758SOL    HW189336   8.451   8.159   9.230
25758SOL    HW289337   8.601   8.096   9.215
25759SOL     OW89338   8.255   8.021   9.417
25759SOL    HW189339   8.345   8.022   9.372
25759SOL    HW289340   8.232   7.927   9.442
25760SOL     OW89341   8.706   7.538   9.711
25760SOL    HW189342   8.616   7.522   9.752
25760SOL    HW289343   8.714   7.634   9.685
25761SOL     OW89344   7.455   7.453   9.371
25761SOL    HW189345   7.518   7.376   9.379
25761SOL    HW289346   7.475   7.521   9.442
25762SOL     OW89347   9.027   8.440   9.472
25762SOL    HW189348   9.098   8.510   9.474
25762SOL    HW289349   9.014   8.410   9.377
25763SOL     OW89350   7.655   7.402   9.658
25763SOL    HW189351   7.693   7.490   9.685
25763SOL    HW289352   7.578   7.378   9.718
25764SOL     OW89353   7.477   8.489   9.478
25764SOL    HW189354   7.467   8.392   9.457
25764SOL    HW289355   7.530   8.534   9.406
25765SOL     OW89356   9.174   7.601  10.079
25765SOL    HW189357   9.129   7.583  10.166
25765SOL    HW289358   9.272   7.618  10.095
25766SOL     OW89359   8.560   8.000   9.540
25766SOL    HW189360   8.612   8.072   9.586
25766SOL    HW289361   8.573   8.007   9.442
25767SOL     OW89362   8.180   8.883   9.265
25767SOL    HW189363   8.155   8.960   9.324
25767SOL    HW289364   8.244   8.823   9.313
25768SOL     OW89365   8.141   8.501  10.016
25768SOL    HW189366   8.230   8.547  10.016
25768SOL    HW289367   8.134   8.441  10.095
25769SOL     OW89368   8.319   8.848   9.685
25769SOL    HW189369   8.369   8.836   9.600
25769SOL    HW289370   8.265   8.765   9.704
25770SOL     OW89371   7.910   8.256   9.584
25770SOL    HW189372   7.860   8.321   9.528
25770SOL    HW289373   7.852   8.177   9.603
25771SOL     OW89374   7.384   7.429   9.779
25771SOL    HW189375   7.297   7.416   9.732
25771SOL    HW289376   7.392   7.524   9.809
25772SOL     OW89377   7.831   8.895   9.908
25772SOL    HW189378   7.829   8.796   9.921
25772SOL    HW289379   7.740   8.928   9.885
25773SOL     OW89380   8.438   8.570   9.641
25773SOL    HW189381   8.518   8.606   9.689
25773SOL    HW289382   8.396   8.497   9.697
25774SOL     OW89383   9.029   7.837  10.005
25774SOL    HW189384   9.048   7.923  10.052
25774SOL    HW289385   9.097   7.768  10.033
25775SOL     OW89386   8.172   8.509   9.491
25775SOL    HW189387   8.244   8.568   9.456
25775SOL    HW289388   8.212   8.425   9.527
25776SOL     OW89389   8.243   7.485   9.343
25776SOL    HW189390   8.318   7.419   9.355
25776SOL    HW289391   8.274   7.576   9.371
25777SOL     OW89392   7.615   8.624   9.270
25777SOL    HW189393   7.607   8.636   9.171
25777SOL    HW289394   7.674   8.695   9.308
25778SOL     OW89395   8.042   9.063   9.430
25778SOL    HW189396   8.017   9.158   9.414
25778SOL    HW289397   8.009   9.035   9.520
25779SOL     OW89398   7.437   8.317   9.816
25779SOL    HW189399   7.444   8.416   9.803
25779SOL    HW289400   7.346   8.294   9.850
25780SOL     OW89401   8.712   8.590   9.743
25780SOL    HW189402   8.811   8.594   9.759
25780SOL    HW289403   8.695   8.576   9.645
25781SOL     OW89404   8.065   7.756   9.691
25781SOL    HW189405   7.967   7.750   9.671
25781SOL    HW289406   8.084   7.713   9.779
25782SOL     OW89407   8.985   7.439   9.950
25782SOL    HW189408   8.980   7.480   9.859
25782SOL    HW289409   9.066   7.473   9.997
25783SOL     OW89410   8.750   7.847   9.932
25783SOL    HW189411   8.749   7.839   9.833
25783SOL    HW289412   8.839   7.819   9.967
25784SOL     OW89413   7.735   9.423   0.019
25784SOL    HW189414   7.648   9.420  -0.030
25784SOL    HW289415   7.786   9.505  -0.009
25785SOL     OW89416   8.600   9.323   1.352
25785SOL    HW189417   8.524   9.278   1.399
25785SOL    HW289418   8.629   9.268   1.274
25786SOL     OW89419   7.963   9.310   0.145
25786SOL    HW189420   8.051   9.338   0.106
25786SOL    HW289421   7.891   9.373   0.115
25787SOL     OW89422   8.099   9.856   0.549
25787SOL    HW189423   8.138   9.926   0.490
25787SOL    HW289424   8.073   9.776   0.495
25788SOL     OW89425   7.953   9.575   1.012
25788SOL    HW189426   8.029   9.640   1.008
25788SOL    HW289427   7.983   9.486   0.979
25789SOL     OW89428   8.440   9.550   0.389
25789SOL    HW189429   8.465   9.644   0.410
25789SOL    HW289430   8.441   9.496   0.473
25790SOL     OW89431   7.890   9.908   0.117
25790SOL    HW189432   7.850   9.987   0.070
25790SOL    HW289433   7.979   9.887   0.077
25791SOL     OW89434   8.598   9.540   0.178
25791SOL    HW189435   8.692   9.510   0.196
25791SOL    HW289436   8.546   9.540   0.264
25792SOL     OW89437   7.750   9.745   1.273
25792SOL    HW189438   7.740   9.658   1.225
25792SOL    HW289439   7.686   9.812   1.236
25793SOL     OW89440   8.832  10.025   1.311
25793SOL    HW189441   8.836  10.119   1.276
25793SOL    HW289442   8.925   9.994   1.333
25794SOL     OW89443   7.785   9.517   0.432
25794SOL    HW189444   7.739   9.557   0.511
25794SOL    HW289445   7.733   9.536   0.350
25795SOL     OW89446   8.338   9.728   0.674
25795SOL    HW189447   8.414   9.756   0.733
25795SOL    HW289448   8.294   9.808   0.635
25796SOL     OW89449   8.415   9.614   1.812
25796SOL    HW189450   8.478   9.619   1.889
25796SOL    HW289451   8.323   9.592   1.845
25797SOL     OW89452   9.156   9.861   0.270
25797SOL    HW189453   9.177   9.780   0.216
25797SOL    HW289454   9.173   9.842   0.367
25798SOL     OW89455   8.131   9.266   1.710
25798SOL    HW189456   8.138   9.172   1.677
25798SOL    HW289457   8.188   9.276   1.792
25799SOL     OW89458   8.754   9.239   0.854
25799SOL    HW189459   8.703   9.323   0.836
25799SOL    HW289460   8.840   9.241   0.803
25800SOL     OW89461   7.733   9.437   0.848
25800SOL    HW189462   7.785   9.477   0.923
25800SOL    HW289463   7.786   9.364   0.805
25801SOL     OW89464   7.717   9.485   1.182
25801SOL    HW189465   7.682   9.392   1.182
25801SOL    HW289466   7.804   9.488   1.133
25802SOL     OW89467   8.747   9.652   0.423
25802SOL    HW189468   8.684   9.710   0.371
25802SOL    HW289469   8.840   9.686   0.411
25803SOL     OW89470   7.644   9.853   1.523
25803SOL    HW189471   7.664   9.758   1.498
25803SOL    HW289472   7.607   9.856   1.616
25804SOL     OW89473   7.526   9.508   1.413
25804SOL    HW189474   7.598   9.518   1.344
25804SOL    HW289475   7.437   9.507   1.368
25805SOL     OW89476   8.249   9.604   0.215
25805SOL    HW189477   8.158   9.617   0.253
25805SOL    HW289478   8.309   9.564   0.285
25806SOL     OW89479   8.307  10.234   0.572
25806SOL    HW189480   8.294  10.145   0.529
25806SOL    HW289481   8.238  10.248   0.643
25807SOL     OW89482   7.418   9.539   0.475
25807SOL    HW189483   7.478   9.490   0.413
25807SOL    HW289484   7.473   9.591   0.540
25808SOL     OW89485   7.745   9.768   0.928
25808SOL    HW189486   7.801   9.761   0.845
25808SOL    HW289487   7.802   9.746   1.008
25809SOL     OW89488   8.174   9.288   0.398
25809SOL    HW189489   8.135   9.277   0.307
25809SOL    HW289490   8.130   9.364   0.445
25810SOL     OW89491   8.665   9.498   0.867
25810SOL    HW189492   8.664   9.576   0.804
25810SOL    HW289493   8.708   9.525   0.953
25811SOL     OW89494   8.785   9.304   0.163
25811SOL    HW189495   8.865   9.244   0.160
25811SOL    HW289496   8.711   9.257   0.211
25812SOL     OW89497   8.998   9.276   1.597
25812SOL    HW189498   9.024   9.233   1.511
25812SOL    HW289499   8.948   9.360   1.579
25813SOL     OW89500   8.100   9.535   0.729
25813SOL    HW189501   8.089   9.477   0.810
25813SOL    HW289502   8.185   9.587   0.737
25814SOL     OW89503   8.973   9.292   0.437
25814SOL    HW189504   8.980   9.246   0.349
25814SOL    HW289505   8.877   9.302   0.462
25815SOL     OW89506   8.572   9.830   0.839
25815SOL    HW189507   8.654   9.807   0.787
25815SOL    HW289508   8.567   9.771   0.920
25816SOL     OW89509   8.743   9.630   1.094
25816SOL    HW189510   8.717   9.727   1.100
25816SOL    HW289511   8.743   9.590   1.186
25817SOL     OW89512   8.991   9.518   0.219
25817SOL    HW189513   8.996   9.560   0.310
25817SOL    HW289514   8.924   9.443   0.221
25818SOL     OW89515   7.529   9.528   1.704
25818SOL    HW189516   7.547   9.517   1.606
25818SOL    HW289517   7.431   9.524   1.721
25819SOL     OW89518   7.577   9.598   0.672
25819SOL    HW189519   7.520   9.653   0.733
25819SOL    HW289520   7.647   9.550   0.725
25820SOL     OW89521   7.714   9.789   0.270
25820SOL    HW189522   7.786   9.818   0.207
25820SOL    HW289523   7.670   9.869   0.310
25821SOL     OW89524   7.606   9.516   0.234
25821SOL    HW189525   7.650   9.485   0.151
25821SOL    HW289526   7.607   9.616   0.238
25822SOL     OW89527   7.459   9.768   0.845
25822SOL    HW189528   7.423   9.861   0.837
25822SOL    HW289529   7.542   9.769   0.901
25823SOL     OW89530   8.520   9.947   0.047
25823SOL    HW189531   8.451  10.004   0.003
25823SOL    HW289532   8.601   9.941  -0.012
25824SOL     OW89533   8.255   9.866   0.190
25824SOL    HW189534   8.345   9.867   0.145
25824SOL    HW289535   8.232   9.772   0.215
25825SOL     OW89536   8.706   9.383   0.484
25825SOL    HW189537   8.616   9.367   0.525
25825SOL    HW289538   8.714   9.479   0.458
25826SOL     OW89539   7.455   9.298   0.144
25826SOL    HW189540   7.518   9.221   0.152
25826SOL    HW289541   7.475   9.366   0.215
25827SOL     OW89542   8.473   9.458   0.640
25827SOL    HW189543   8.532   9.518   0.695
25827SOL    HW289544   8.400   9.422   0.697
25828SOL     OW89545   8.001   9.335   0.911
25828SOL    HW189546   7.929   9.268   0.897
25828SOL    HW289547   8.083   9.289   0.946
25829SOL     OW89548   7.427  10.202   1.151
25829SOL    HW189549   7.516  10.180   1.191
25829SOL    HW289550   7.372  10.118   1.147
25830SOL     OW89551   7.655   9.247   0.431
25830SOL    HW189552   7.693   9.335   0.458
25830SOL    HW289553   7.578   9.223   0.491
25831SOL     OW89554   8.560   9.845   0.313
25831SOL    HW189555   8.612   9.917   0.359
25831SOL    HW289556   8.573   9.852   0.215
25832SOL     OW89557   7.678  10.102   1.380
25832SOL    HW189558   7.642  10.012   1.406
25832SOL    HW289559   7.639  10.172   1.440
25833SOL     OW89560   7.846   9.684   1.785
25833SOL    HW189561   7.882   9.631   1.708
25833SOL    HW289562   7.907   9.761   1.803
25834SOL     OW89563   7.910  10.101   0.357
25834SOL    HW189564   7.860  10.166   0.301
25834SOL    HW289565   7.852  10.022   0.376
25835SOL     OW89566   8.683   9.575   1.351
25835SOL    HW189567   8.754   9.547   1.415
25835SOL    HW289568   8.630   9.495   1.323
25836SOL     OW89569   7.384   9.274   0.552
25836SOL    HW189570   7.297   9.261   0.505
25836SOL    HW289571   7.392   9.369   0.582
25837SOL     OW89572   8.605   9.375   1.793
25837SOL    HW189573   8.664   9.391   1.873
25837SOL    HW289574   8.552   9.458   1.774
25838SOL     OW89575   8.427   9.794   1.109
25838SOL    HW189576   8.513   9.845   1.108
25838SOL    HW289577   8.433   9.720   1.176
25839SOL     OW89578   8.376   9.409   0.898
25839SOL    HW189579   8.472   9.410   0.926
25839SOL    HW289580   8.321   9.366   0.970
25840SOL     OW89581   8.243   9.330   0.116
25840SOL    HW189582   8.318   9.264   0.128
25840SOL    HW289583   8.274   9.421   0.144
25841SOL     OW89584   7.922   9.759   0.728
25841SOL    HW189585   7.960   9.670   0.754
25841SOL    HW289586   7.989   9.809   0.673
25842SOL     OW89587   7.602   9.828   1.789
25842SOL    HW189588   7.619   9.729   1.794
25842SOL    HW289589   7.666   9.876   1.850
25843SOL     OW89590   7.590   9.935   1.149
25843SOL    HW189591   7.628   9.994   1.220
25843SOL    HW289592   7.573   9.988   1.067
25844SOL     OW89593   8.065   9.601   0.464
25844SOL    HW189594   7.967   9.595   0.444
25844SOL    HW289595   8.084   9.558   0.552
25845SOL     OW89596   8.985   9.284   0.723
25845SOL    HW189597   8.980   9.325   0.632
25845SOL    HW289598   9.066   9.318   0.770
25846SOL     OW89599   9.068   9.786   3.259
25846SOL    HW189600   8.970   9.778   3.281
25846SOL    HW289601   9.121   9.775   3.343
25847SOL     OW89602   7.735   9.423   1.864
25847SOL    HW189603   7.648   9.420   1.815
25847SOL    HW289604   7.786   9.505   1.836
25848SOL     OW89605   8.600   9.323   3.197
25848SOL    HW189606   8.524   9.278   3.244
25848SOL    HW289607   8.629   9.268   3.119
25849SOL     OW89608   7.963   9.310   1.990
25849SOL    HW189609   8.051   9.338   1.951
25849SOL    HW289610   7.891   9.373   1.960
25850SOL     OW89611   8.719   9.764   3.603
25850SOL    HW189612   8.815   9.768   3.629
25850SOL    HW289613   8.675   9.688   3.650
25851SOL     OW89614   7.953   9.575   2.857
25851SOL    HW189615   8.029   9.640   2.853
25851SOL    HW289616   7.983   9.486   2.824
25852SOL     OW89617   9.040   9.521   2.965
25852SOL    HW189618   9.091   9.593   2.918
25852SOL    HW289619   8.945   9.548   2.974
25853SOL     OW89620   8.440   9.550   2.234
25853SOL    HW189621   8.465   9.644   2.255
25853SOL    HW289622   8.441   9.496   2.318
25854SOL     OW89623   7.890   9.908   1.962
25854SOL    HW189624   7.850   9.987   1.915
25854SOL    HW289625   7.979   9.887   1.922
25855SOL     OW89626   8.405   9.864   3.414
25855SOL    HW189627   8.438   9.781   3.461
25855SOL    HW289628   8.478   9.932   3.413
25856SOL     OW89629   8.598   9.540   2.023
25856SOL    HW189630   8.692   9.510   2.041
25856SOL    HW289631   8.546   9.540   2.109
25857SOL     OW89632   7.750   9.745   3.118
25857SOL    HW189633   7.740   9.658   3.070
25857SOL    HW289634   7.686   9.812   3.081
25858SOL     OW89635   8.832  10.025   3.156
25858SOL    HW189636   8.836  10.119   3.121
25858SOL    HW289637   8.925   9.994   3.178
25859SOL     OW89638   9.208   9.762   3.044
25859SOL    HW189639   9.265   9.844   3.046
25859SOL    HW289640   9.149   9.761   3.124
25860SOL     OW89641   8.338   9.728   2.519
25860SOL    HW189642   8.414   9.756   2.578
25860SOL    HW289643   8.294   9.808   2.480
25861SOL     OW89644   8.415   9.614   3.657
25861SOL    HW189645   8.478   9.619   3.734
25861SOL    HW289646   8.323   9.592   3.690
25862SOL     OW89647   8.131   9.266   3.555
25862SOL    HW189648   8.138   9.172   3.522
25862SOL    HW289649   8.188   9.276   3.637
25863SOL     OW89650   9.054   9.867   2.823
25863SOL    HW189651   9.039   9.958   2.860
25863SOL    HW289652   9.124   9.820   2.877
25864SOL     OW89653   8.754   9.239   2.699
25864SOL    HW189654   8.703   9.323   2.681
25864SOL    HW289655   8.840   9.241   2.648
25865SOL     OW89656   9.109   9.445   3.628
25865SOL    HW189657   9.086   9.466   3.723
25865SOL    HW289658   9.085   9.350   3.608
25866SOL     OW89659   7.733   9.437   2.693
25866SOL    HW189660   7.785   9.477   2.768
25866SOL    HW289661   7.786   9.364   2.650
25867SOL     OW89662   7.717   9.485   3.027
25867SOL    HW189663   7.682   9.392   3.027
25867SOL    HW289664   7.804   9.488   2.978
25868SOL     OW89665   8.389  10.361   3.164
25868SOL    HW189666   8.439  10.276   3.148
25868SOL    HW289667   8.343  10.388   3.079
25869SOL     OW89668   8.747   9.652   2.268
25869SOL    HW189669   8.684   9.710   2.216
25869SOL    HW289670   8.840   9.686   2.256
25870SOL     OW89671   7.644   9.853   3.368
25870SOL    HW189672   7.664   9.758   3.343
25870SOL    HW289673   7.607   9.856   3.461
25871SOL     OW89674   7.526   9.508   3.258
25871SOL    HW189675   7.598   9.518   3.189
25871SOL    HW289676   7.437   9.507   3.213
25872SOL     OW89677   8.424  10.129   3.023
25872SOL    HW189678   8.418  10.115   2.924
25872SOL    HW289679   8.343  10.090   3.067
25873SOL     OW89680   9.015   9.663   2.338
25873SOL    HW189681   9.111   9.634   2.335
25873SOL    HW289682   8.976   9.641   2.427
25874SOL     OW89683   8.249   9.604   2.060
25874SOL    HW189684   8.158   9.617   2.098
25874SOL    HW289685   8.309   9.564   2.130
25875SOL     OW89686   8.307  10.234   2.417
25875SOL    HW189687   8.294  10.145   2.374
25875SOL    HW289688   8.238  10.248   2.488
25876SOL     OW89689   7.418   9.539   2.320
25876SOL    HW189690   7.478   9.490   2.258
25876SOL    HW289691   7.473   9.591   2.385
25877SOL     OW89692   8.205  10.004   3.169
25877SOL    HW189693   8.207  10.090   3.220
25877SOL    HW289694   8.262   9.936   3.216
25878SOL     OW89695   7.745   9.768   2.773
25878SOL    HW189696   7.801   9.761   2.690
25878SOL    HW289697   7.802   9.746   2.853
25879SOL     OW89698   8.174   9.288   2.243
25879SOL    HW189699   8.135   9.277   2.152
25879SOL    HW289700   8.130   9.364   2.290
25880SOL     OW89701   8.949   9.552   3.421
25880SOL    HW189702   8.888   9.630   3.418
25880SOL    HW289703   9.004   9.556   3.504
25881SOL     OW89704   8.665   9.498   2.712
25881SOL    HW189705   8.664   9.576   2.649
25881SOL    HW289706   8.708   9.525   2.798
25882SOL     OW89707   8.785   9.304   2.008
25882SOL    HW189708   8.865   9.244   2.005
25882SOL    HW289709   8.711   9.257   2.056
25883SOL     OW89710   8.998   9.276   3.442
25883SOL    HW189711   9.024   9.233   3.356
25883SOL    HW289712   8.948   9.360   3.424
25884SOL     OW89713   8.100   9.535   2.574
25884SOL    HW189714   8.089   9.477   2.655
25884SOL    HW289715   8.185   9.587   2.582
25885SOL     OW89716   8.680   9.886   2.966
25885SOL    HW189717   8.734   9.926   2.892
25885SOL    HW289718   8.718   9.915   3.054
25886SOL     OW89719   8.973   9.292   2.282
25886SOL    HW189720   8.980   9.246   2.194
25886SOL    HW289721   8.877   9.302   2.307
25887SOL     OW89722   8.572   9.830   2.684
25887SOL    HW189723   8.654   9.807   2.632
25887SOL    HW289724   8.567   9.771   2.765
25888SOL     OW89725   9.172   9.857   3.520
25888SOL    HW189726   9.161   9.943   3.469
25888SOL    HW289727   9.266   9.848   3.550
25889SOL     OW89728   8.743   9.630   2.939
25889SOL    HW189729   8.717   9.727   2.945
25889SOL    HW289730   8.743   9.590   3.031
25890SOL     OW89731   8.973   9.762   3.690
25890SOL    HW189732   9.053   9.787   3.634
25890SOL    HW289733   9.004   9.727   3.778
25891SOL     OW89734   7.529   9.528   3.549
25891SOL    HW189735   7.547   9.517   3.451
25891SOL    HW289736   7.431   9.524   3.566
25892SOL     OW89737   7.577   9.598   2.517
25892SOL    HW189738   7.520   9.653   2.578
25892SOL    HW289739   7.647   9.550   2.570
25893SOL     OW89740   9.100   9.451   3.218
25893SOL    HW189741   9.056   9.499   3.294
25893SOL    HW289742   9.078   9.497   3.132
25894SOL     OW89743   7.459   9.768   2.690
25894SOL    HW189744   7.423   9.861   2.682
25894SOL    HW289745   7.542   9.769   2.746
25895SOL     OW89746   8.520   9.947   1.892
25895SOL    HW189747   8.451  10.004   1.848
25895SOL    HW289748   8.601   9.941   1.833
25896SOL     OW89749   8.255   9.866   2.035
25896SOL    HW189750   8.345   9.867   1.990
25896SOL    HW289751   8.232   9.772   2.060
25897SOL     OW89752   8.706   9.383   2.329
25897SOL    HW189753   8.616   9.367   2.370
25897SOL    HW289754   8.714   9.479   2.303
25898SOL     OW89755   8.820   9.783   3.345
25898SOL    HW189756   8.772   9.806   3.429
25898SOL    HW289757   8.754   9.753   3.276
25899SOL     OW89758   7.455   9.298   1.989
25899SOL    HW189759   7.518   9.221   1.997
25899SOL    HW289760   7.475   9.366   2.060
25900SOL     OW89761   8.009   9.886   3.012
25900SOL    HW189762   8.084   9.929   3.061
25900SOL    HW289763   7.942   9.851   3.078
25901SOL     OW89764   8.473   9.458   2.485
25901SOL    HW189765   8.532   9.518   2.540
25901SOL    HW289766   8.400   9.422   2.542
25902SOL     OW89767   8.001   9.335   2.756
25902SOL    HW189768   7.929   9.268   2.742
25902SOL    HW289769   8.083   9.289   2.791
25903SOL     OW89770   7.427  10.202   2.996
25903SOL    HW189771   7.516  10.180   3.036
25903SOL    HW289772   7.372  10.118   2.992
25904SOL     OW89773   7.655   9.247   2.276
25904SOL    HW189774   7.693   9.335   2.303
25904SOL    HW289775   7.578   9.223   2.336
25905SOL     OW89776   9.174   9.446   2.697
25905SOL    HW189777   9.129   9.428   2.784
25905SOL    HW289778   9.272   9.463   2.713
25906SOL     OW89779   8.560   9.845   2.158
25906SOL    HW189780   8.612   9.917   2.204
25906SOL    HW289781   8.573   9.852   2.060
25907SOL     OW89782   7.678  10.102   3.225
25907SOL    HW189783   7.642  10.012   3.251
25907SOL    HW289784   7.639  10.172   3.285
25908SOL     OW89785   7.846   9.684   3.630
25908SOL    HW189786   7.882   9.631   3.553
25908SOL    HW289787   7.907   9.761   3.648
25909SOL     OW89788   7.910  10.101   2.202
25909SOL    HW189789   7.860  10.166   2.146
25909SOL    HW289790   7.852  10.022   2.221
25910SOL     OW89791   8.683   9.575   3.196
25910SOL    HW189792   8.754   9.547   3.260
25910SOL    HW289793   8.630   9.495   3.168
25911SOL     OW89794   7.384   9.274   2.397
25911SOL    HW189795   7.297   9.261   2.350
25911SOL    HW289796   7.392   9.369   2.427
25912SOL     OW89797   8.605   9.375   3.638
25912SOL    HW189798   8.664   9.391   3.718
25912SOL    HW289799   8.552   9.458   3.619
25913SOL     OW89800   8.427   9.794   2.954
25913SOL    HW189801   8.513   9.845   2.953
25913SOL    HW289802   8.433   9.720   3.021
25914SOL     OW89803   8.376   9.409   2.743
25914SOL    HW189804   8.472   9.410   2.771
25914SOL    HW289805   8.321   9.366   2.815
25915SOL     OW89806   9.029   9.682   2.623
25915SOL    HW189807   9.048   9.768   2.670
25915SOL    HW289808   9.097   9.613   2.651
25916SOL     OW89809   8.243   9.330   1.961
25916SOL    HW189810   8.318   9.264   1.973
25916SOL    HW289811   8.274   9.421   1.989
25917SOL     OW89812   7.922   9.759   2.573
25917SOL    HW189813   7.960   9.670   2.599
25917SOL    HW289814   7.989   9.809   2.518
25918SOL     OW89815   7.602   9.828   3.634
25918SOL    HW189816   7.619   9.729   3.639
25918SOL    HW289817   7.666   9.876   3.695
25919SOL     OW89818   8.171   9.742   2.853
25919SOL    HW189819   8.263   9.770   2.880
25919SOL    HW289820   8.103   9.793   2.907
25920SOL     OW89821   7.590   9.935   2.994
25920SOL    HW189822   7.628   9.994   3.065
25920SOL    HW289823   7.573   9.988   2.912
25921SOL     OW89824   8.985   9.284   2.568
25921SOL    HW189825   8.980   9.325   2.477
25921SOL    HW289826   9.066   9.318   2.615
25922SOL     OW89827   8.750   9.692   2.550
25922SOL    HW189828   8.749   9.684   2.451
25922SOL    HW289829   8.839   9.664   2.585
25923SOL     OW89830   9.068   9.786   5.105
25923SOL    HW189831   8.970   9.778   5.127
25923SOL    HW289832   9.121   9.775   5.189
25924SOL     OW89833   7.735   9.423   3.710
25924SOL    HW189834   7.648   9.420   3.661
25924SOL    HW289835   7.786   9.505   3.682
25925SOL     OW89836   8.600   9.323   5.043
25925SOL    HW189837   8.524   9.278   5.090
25925SOL    HW289838   8.629   9.268   4.965
25926SOL     OW89839   7.963   9.310   3.836
25926SOL    HW189840   8.051   9.338   3.797
25926SOL    HW289841   7.891   9.373   3.806
25927SOL     OW89842   8.099   9.856   4.240
25927SOL    HW189843   8.138   9.926   4.181
25927SOL    HW289844   8.073   9.776   4.186
25928SOL     OW89845   7.953   9.575   4.703
25928SOL    HW189846   8.029   9.640   4.699
25928SOL    HW289847   7.983   9.486   4.670
25929SOL     OW89848   9.040   9.521   4.811
25929SOL    HW189849   9.091   9.593   4.764
25929SOL    HW289850   8.945   9.548   4.820
25930SOL     OW89851   8.440   9.550   4.080
25930SOL    HW189852   8.465   9.644   4.101
25930SOL    HW289853   8.441   9.496   4.164
25931SOL     OW89854   7.890   9.908   3.808
25931SOL    HW189855   7.850   9.987   3.761
25931SOL    HW289856   7.979   9.887   3.768
25932SOL     OW89857   8.405   9.864   5.260
25932SOL    HW189858   8.438   9.781   5.307
25932SOL    HW289859   8.478   9.932   5.259
25933SOL     OW89860   8.598   9.540   3.869
25933SOL    HW189861   8.692   9.510   3.887
25933SOL    HW289862   8.546   9.540   3.955
25934SOL     OW89863   7.750   9.745   4.964
25934SOL    HW189864   7.740   9.658   4.916
25934SOL    HW289865   7.686   9.812   4.927
25935SOL     OW89866   8.832  10.025   5.002
25935SOL    HW189867   8.836  10.119   4.967
25935SOL    HW289868   8.925   9.994   5.024
25936SOL     OW89869   7.785   9.517   4.123
25936SOL    HW189870   7.739   9.557   4.202
25936SOL    HW289871   7.733   9.536   4.041
25937SOL     OW89872   9.208   9.762   4.890
25937SOL    HW189873   9.265   9.844   4.892
25937SOL    HW289874   9.149   9.761   4.970
25938SOL     OW89875   8.338   9.728   4.365
25938SOL    HW189876   8.414   9.756   4.424
25938SOL    HW289877   8.294   9.808   4.326
25939SOL     OW89878   8.415   9.614   5.503
25939SOL    HW189879   8.478   9.619   5.580
25939SOL    HW289880   8.323   9.592   5.536
25940SOL     OW89881   9.156   9.861   3.961
25940SOL    HW189882   9.177   9.780   3.907
25940SOL    HW289883   9.173   9.842   4.058
25941SOL     OW89884   8.131   9.266   5.401
25941SOL    HW189885   8.138   9.172   5.368
25941SOL    HW289886   8.188   9.276   5.483
25942SOL     OW89887   9.054   9.867   4.669
25942SOL    HW189888   9.039   9.958   4.706
25942SOL    HW289889   9.124   9.820   4.723
25943SOL     OW89890   8.754   9.239   4.545
25943SOL    HW189891   8.703   9.323   4.527
25943SOL    HW289892   8.840   9.241   4.494
25944SOL     OW89893   9.109   9.445   5.474
25944SOL    HW189894   9.086   9.466   5.569
25944SOL    HW289895   9.085   9.350   5.454
25945SOL     OW89896   7.733   9.437   4.539
25945SOL    HW189897   7.785   9.477   4.614
25945SOL    HW289898   7.786   9.364   4.496
25946SOL     OW89899   7.717   9.485   4.873
25946SOL    HW189900   7.682   9.392   4.873
25946SOL    HW289901   7.804   9.488   4.824
25947SOL     OW89902   8.389  10.361   5.010
25947SOL    HW189903   8.439  10.276   4.994
25947SOL    HW289904   8.343  10.388   4.925
25948SOL     OW89905   8.747   9.652   4.114
25948SOL    HW189906   8.684   9.710   4.062
25948SOL    HW289907   8.840   9.686   4.102
25949SOL     OW89908   7.644   9.853   5.214
25949SOL    HW189909   7.664   9.758   5.189
25949SOL    HW289910   7.607   9.856   5.307
25950SOL     OW89911   7.526   9.508   5.104
25950SOL    HW189912   7.598   9.518   5.035
25950SOL    HW289913   7.437   9.507   5.059
25951SOL     OW89914   8.424  10.129   4.869
25951SOL    HW189915   8.418  10.115   4.770
25951SOL    HW289916   8.343  10.090   4.913
25952SOL     OW89917   9.015   9.663   4.184
25952SOL    HW189918   9.111   9.634   4.181
25952SOL    HW289919   8.976   9.641   4.273
25953SOL     OW89920   8.249   9.604   3.906
25953SOL    HW189921   8.158   9.617   3.944
25953SOL    HW289922   8.309   9.564   3.976
25954SOL     OW89923   8.307  10.234   4.263
25954SOL    HW189924   8.294  10.145   4.220
25954SOL    HW289925   8.238  10.248   4.334
25955SOL     OW89926   7.418   9.539   4.166
25955SOL    HW189927   7.478   9.490   4.104
25955SOL    HW289928   7.473   9.591   4.231
25956SOL     OW89929   8.205  10.004   5.015
25956SOL    HW189930   8.207  10.090   5.066
25956SOL    HW289931   8.262   9.936   5.062
25957SOL     OW89932   7.745   9.768   4.619
25957SOL    HW189933   7.801   9.761   4.536
25957SOL    HW289934   7.802   9.746   4.699
25958SOL     OW89935   8.174   9.288   4.089
25958SOL    HW189936   8.135   9.277   3.998
25958SOL    HW289937   8.130   9.364   4.136
25959SOL     OW89938   8.949   9.552   5.267
25959SOL    HW189939   8.888   9.630   5.264
25959SOL    HW289940   9.004   9.556   5.350
25960SOL     OW89941   8.665   9.498   4.558
25960SOL    HW189942   8.664   9.576   4.495
25960SOL    HW289943   8.708   9.525   4.644
25961SOL     OW89944   8.785   9.304   3.854
25961SOL    HW189945   8.865   9.244   3.851
25961SOL    HW289946   8.711   9.257   3.902
25962SOL     OW89947   8.998   9.276   5.288
25962SOL    HW189948   9.024   9.233   5.202
25962SOL    HW289949   8.948   9.360   5.270
25963SOL     OW89950   8.100   9.535   4.420
25963SOL    HW189951   8.089   9.477   4.501
25963SOL    HW289952   8.185   9.587   4.428
25964SOL     OW89953   8.680   9.886   4.812
25964SOL    HW189954   8.734   9.926   4.738
25964SOL    HW289955   8.718   9.915   4.900
25965SOL     OW89956   8.973   9.292   4.128
25965SOL    HW189957   8.980   9.246   4.040
25965SOL    HW289958   8.877   9.302   4.153
25966SOL     OW89959   8.572   9.830   4.530
25966SOL    HW189960   8.654   9.807   4.478
25966SOL    HW289961   8.567   9.771   4.611
25967SOL     OW89962   9.172   9.857   5.366
25967SOL    HW189963   9.161   9.943   5.315
25967SOL    HW289964   9.266   9.848   5.396
25968SOL     OW89965   8.743   9.630   4.785
25968SOL    HW189966   8.717   9.727   4.791
25968SOL    HW289967   8.743   9.590   4.877
25969SOL     OW89968   8.991   9.518   3.910
25969SOL    HW189969   8.996   9.560   4.001
25969SOL    HW289970   8.924   9.443   3.912
25970SOL     OW89971   7.529   9.528   5.395
25970SOL    HW189972   7.547   9.517   5.297
25970SOL    HW289973   7.431   9.524   5.412
25971SOL     OW89974   7.577   9.598   4.363
25971SOL    HW189975   7.520   9.653   4.424
25971SOL    HW289976   7.647   9.550   4.416
25972SOL     OW89977   7.714   9.789   3.961
25972SOL    HW189978   7.786   9.818   3.898
25972SOL    HW289979   7.670   9.869   4.001
25973SOL     OW89980   9.100   9.451   5.064
25973SOL    HW189981   9.056   9.499   5.140
25973SOL    HW289982   9.078   9.497   4.978
25974SOL     OW89983   7.606   9.516   3.925
25974SOL    HW189984   7.650   9.485   3.842
25974SOL    HW289985   7.607   9.616   3.929
25975SOL     OW89986   7.459   9.768   4.536
25975SOL    HW189987   7.423   9.861   4.528
25975SOL    HW289988   7.542   9.769   4.592
25976SOL     OW89989   8.520   9.947   3.738
25976SOL    HW189990   8.451  10.004   3.694
25976SOL    HW289991   8.601   9.941   3.679
25977SOL     OW89992   8.255   9.866   3.881
25977SOL    HW189993   8.345   9.867   3.836
25977SOL    HW289994   8.232   9.772   3.906
25978SOL     OW89995   8.706   9.383   4.175
25978SOL    HW189996   8.616   9.367   4.216
25978SOL    HW289997   8.714   9.479   4.149
25979SOL     OW89998   8.820   9.783   5.191
25979SOL    HW189999   8.772   9.806   5.275
25979SOL    HW290000   8.754   9.753   5.122
25980SOL     OW90001   7.455   9.298   3.835
25980SOL    HW190002   7.518   9.221   3.843
25980SOL    HW290003   7.475   9.366   3.906
25981SOL     OW90004   8.009   9.886   4.858
25981SOL    HW190005   8.084   9.929   4.907
25981SOL    HW290006   7.942   9.851   4.924
25982SOL     OW90007   8.473   9.458   4.331
25982SOL    HW190008   8.532   9.518   4.386
25982SOL    HW290009   8.400   9.422   4.388
25983SOL     OW90010   8.001   9.335   4.602
25983SOL    HW190011   7.929   9.268   4.588
25983SOL    HW290012   8.083   9.289   4.637
25984SOL     OW90013   7.427  10.202   4.842
25984SOL    HW190014   7.516  10.180   4.882
25984SOL    HW290015   7.372  10.118   4.838
25985SOL     OW90016   7.655   9.247   4.122
25985SOL    HW190017   7.693   9.335   4.149
25985SOL    HW290018   7.578   9.223   4.182
25986SOL     OW90019   9.174   9.446   4.543
25986SOL    HW190020   9.129   9.428   4.630
25986SOL    HW290021   9.272   9.463   4.559
25987SOL     OW90022   8.560   9.845   4.004
25987SOL    HW190023   8.612   9.917   4.050
25987SOL    HW290024   8.573   9.852   3.906
25988SOL     OW90025   7.678  10.102   5.071
25988SOL    HW190026   7.642  10.012   5.097
25988SOL    HW290027   7.639  10.172   5.131
25989SOL     OW90028   7.846   9.684   5.476
25989SOL    HW190029   7.882   9.631   5.399
25989SOL    HW290030   7.907   9.761   5.494
25990SOL     OW90031   7.910  10.101   4.048
25990SOL    HW190032   7.860  10.166   3.992
25990SOL    HW290033   7.852  10.022   4.067
25991SOL     OW90034   8.683   9.575   5.042
25991SOL    HW190035   8.754   9.547   5.106
25991SOL    HW290036   8.630   9.495   5.014
25992SOL     OW90037   7.384   9.274   4.243
25992SOL    HW190038   7.297   9.261   4.196
25992SOL    HW290039   7.392   9.369   4.273
25993SOL     OW90040   8.605   9.375   5.484
25993SOL    HW190041   8.664   9.391   5.564
25993SOL    HW290042   8.552   9.458   5.465
25994SOL     OW90043   8.427   9.794   4.800
25994SOL    HW190044   8.513   9.845   4.799
25994SOL    HW290045   8.433   9.720   4.867
25995SOL     OW90046   8.376   9.409   4.589
25995SOL    HW190047   8.472   9.410   4.617
25995SOL    HW290048   8.321   9.366   4.661
25996SOL     OW90049   9.029   9.682   4.469
25996SOL    HW190050   9.048   9.768   4.516
25996SOL    HW290051   9.097   9.613   4.497
25997SOL     OW90052   8.243   9.330   3.807
25997SOL    HW190053   8.318   9.264   3.819
25997SOL    HW290054   8.274   9.421   3.835
25998SOL     OW90055   7.922   9.759   4.419
25998SOL    HW190056   7.960   9.670   4.445
25998SOL    HW290057   7.989   9.809   4.364
25999SOL     OW90058   7.602   9.828   5.480
25999SOL    HW190059   7.619   9.729   5.485
25999SOL    HW290060   7.666   9.876   5.541
26000SOL     OW90061   8.171   9.742   4.699
26000SOL    HW190062   8.263   9.770   4.726
26000SOL    HW290063   8.103   9.793   4.753
26001SOL     OW90064   7.590   9.935   4.840
26001SOL    HW190065   7.628   9.994   4.911
26001SOL    HW290066   7.573   9.988   4.758
26002SOL     OW90067   8.065   9.601   4.155
26002SOL    HW190068   7.967   9.595   4.135
26002SOL    HW290069   8.084   9.558   4.243
26003SOL     OW90070   8.985   9.284   4.414
26003SOL    HW190071   8.980   9.325   4.323
26003SOL    HW290072   9.066   9.318   4.461
26004SOL     OW90073   8.750   9.692   4.396
26004SOL    HW190074   8.749   9.684   4.297
26004SOL    HW290075   8.839   9.664   4.431
26005SOL     OW90076   9.068   9.786   6.950
26005SOL    HW190077   8.970   9.778   6.972
26005SOL    HW290078   9.121   9.775   7.034
26006SOL     OW90079   7.735   9.423   5.555
26006SOL    HW190080   7.648   9.420   5.506
26006SOL    HW290081   7.786   9.505   5.527
26007SOL     OW90082   8.600   9.323   6.888
26007SOL    HW190083   8.524   9.278   6.935
26007SOL    HW290084   8.629   9.268   6.810
26008SOL     OW90085   7.963   9.310   5.681
26008SOL    HW190086   8.051   9.338   5.642
26008SOL    HW290087   7.891   9.373   5.651
26009SOL     OW90088   8.099   9.856   6.085
26009SOL    HW190089   8.138   9.926   6.026
26009SOL    HW290090   8.073   9.776   6.031
26010SOL     OW90091   7.953   9.575   6.548
26010SOL    HW190092   8.029   9.640   6.544
26010SOL    HW290093   7.983   9.486   6.515
26011SOL     OW90094   9.040   9.521   6.656
26011SOL    HW190095   9.091   9.593   6.609
26011SOL    HW290096   8.945   9.548   6.665
26012SOL     OW90097   8.440   9.550   5.925
26012SOL    HW190098   8.465   9.644   5.946
26012SOL    HW290099   8.441   9.496   6.009
26013SOL     OW90100   7.890   9.908   5.653
26013SOL    HW190101   7.850   9.987   5.606
26013SOL    HW290102   7.979   9.887   5.613
26014SOL     OW90103   8.405   9.864   7.105
26014SOL    HW190104   8.438   9.781   7.152
26014SOL    HW290105   8.478   9.932   7.104
26015SOL     OW90106   8.598   9.540   5.714
26015SOL    HW190107   8.692   9.510   5.732
26015SOL    HW290108   8.546   9.540   5.800
26016SOL     OW90109   7.750   9.745   6.809
26016SOL    HW190110   7.740   9.658   6.761
26016SOL    HW290111   7.686   9.812   6.772
26017SOL     OW90112   8.832  10.025   6.847
26017SOL    HW190113   8.836  10.119   6.812
26017SOL    HW290114   8.925   9.994   6.869
26018SOL     OW90115   7.785   9.517   5.968
26018SOL    HW190116   7.739   9.557   6.047
26018SOL    HW290117   7.733   9.536   5.886
26019SOL     OW90118   9.208   9.762   6.735
26019SOL    HW190119   9.265   9.844   6.737
26019SOL    HW290120   9.149   9.761   6.815
26020SOL     OW90121   8.338   9.728   6.210
26020SOL    HW190122   8.414   9.756   6.269
26020SOL    HW290123   8.294   9.808   6.171
26021SOL     OW90124   8.415   9.614   7.348
26021SOL    HW190125   8.478   9.619   7.425
26021SOL    HW290126   8.323   9.592   7.381
26022SOL     OW90127   9.156   9.861   5.806
26022SOL    HW190128   9.177   9.780   5.752
26022SOL    HW290129   9.173   9.842   5.903
26023SOL     OW90130   8.131   9.266   7.246
26023SOL    HW190131   8.138   9.172   7.213
26023SOL    HW290132   8.188   9.276   7.328
26024SOL     OW90133   9.054   9.867   6.514
26024SOL    HW190134   9.039   9.958   6.551
26024SOL    HW290135   9.124   9.820   6.568
26025SOL     OW90136   8.754   9.239   6.390
26025SOL    HW190137   8.703   9.323   6.372
26025SOL    HW290138   8.840   9.241   6.339
26026SOL     OW90139   9.109   9.445   7.319
26026SOL    HW190140   9.086   9.466   7.414
26026SOL    HW290141   9.085   9.350   7.299
26027SOL     OW90142   7.733   9.437   6.384
26027SOL    HW190143   7.785   9.477   6.459
26027SOL    HW290144   7.786   9.364   6.341
26028SOL     OW90145   7.717   9.485   6.718
26028SOL    HW190146   7.682   9.392   6.718
26028SOL    HW290147   7.804   9.488   6.669
26029SOL     OW90148   8.389  10.361   6.855
26029SOL    HW190149   8.439  10.276   6.839
26029SOL    HW290150   8.343  10.388   6.770
26030SOL     OW90151   8.747   9.652   5.959
26030SOL    HW190152   8.684   9.710   5.907
26030SOL    HW290153   8.840   9.686   5.947
26031SOL     OW90154   7.644   9.853   7.059
26031SOL    HW190155   7.664   9.758   7.034
26031SOL    HW290156   7.607   9.856   7.152
26032SOL     OW90157   7.526   9.508   6.949
26032SOL    HW190158   7.598   9.518   6.880
26032SOL    HW290159   7.437   9.507   6.904
26033SOL     OW90160   8.424  10.129   6.714
26033SOL    HW190161   8.418  10.115   6.615
26033SOL    HW290162   8.343  10.090   6.758
26034SOL     OW90163   9.015   9.663   6.029
26034SOL    HW190164   9.111   9.634   6.026
26034SOL    HW290165   8.976   9.641   6.118
26035SOL     OW90166   8.249   9.604   5.751
26035SOL    HW190167   8.158   9.617   5.789
26035SOL    HW290168   8.309   9.564   5.821
26036SOL     OW90169   8.307  10.234   6.108
26036SOL    HW190170   8.294  10.145   6.065
26036SOL    HW290171   8.238  10.248   6.179
26037SOL     OW90172   7.418   9.539   6.011
26037SOL    HW190173   7.478   9.490   5.949
26037SOL    HW290174   7.473   9.591   6.076
26038SOL     OW90175   8.205  10.004   6.860
26038SOL    HW190176   8.207  10.090   6.911
26038SOL    HW290177   8.262   9.936   6.907
26039SOL     OW90178   7.745   9.768   6.464
26039SOL    HW190179   7.801   9.761   6.381
26039SOL    HW290180   7.802   9.746   6.544
26040SOL     OW90181   8.174   9.288   5.934
26040SOL    HW190182   8.135   9.277   5.843
26040SOL    HW290183   8.130   9.364   5.981
26041SOL     OW90184   8.949   9.552   7.112
26041SOL    HW190185   8.888   9.630   7.109
26041SOL    HW290186   9.004   9.556   7.195
26042SOL     OW90187   8.665   9.498   6.403
26042SOL    HW190188   8.664   9.576   6.340
26042SOL    HW290189   8.708   9.525   6.489
26043SOL     OW90190   8.785   9.304   5.699
26043SOL    HW190191   8.865   9.244   5.696
26043SOL    HW290192   8.711   9.257   5.747
26044SOL     OW90193   8.998   9.276   7.133
26044SOL    HW190194   9.024   9.233   7.047
26044SOL    HW290195   8.948   9.360   7.115
26045SOL     OW90196   8.100   9.535   6.265
26045SOL    HW190197   8.089   9.477   6.346
26045SOL    HW290198   8.185   9.587   6.273
26046SOL     OW90199   8.680   9.886   6.657
26046SOL    HW190200   8.734   9.926   6.583
26046SOL    HW290201   8.718   9.915   6.745
26047SOL     OW90202   8.973   9.292   5.973
26047SOL    HW190203   8.980   9.246   5.885
26047SOL    HW290204   8.877   9.302   5.998
26048SOL     OW90205   8.572   9.830   6.375
26048SOL    HW190206   8.654   9.807   6.323
26048SOL    HW290207   8.567   9.771   6.456
26049SOL     OW90208   8.743   9.630   6.630
26049SOL    HW190209   8.717   9.727   6.636
26049SOL    HW290210   8.743   9.590   6.722
26050SOL     OW90211   8.991   9.518   5.755
26050SOL    HW190212   8.996   9.560   5.846
26050SOL    HW290213   8.924   9.443   5.757
26051SOL     OW90214   7.529   9.528   7.240
26051SOL    HW190215   7.547   9.517   7.142
26051SOL    HW290216   7.431   9.524   7.257
26052SOL     OW90217   7.577   9.598   6.208
26052SOL    HW190218   7.520   9.653   6.269
26052SOL    HW290219   7.647   9.550   6.261
26053SOL     OW90220   7.714   9.789   5.806
26053SOL    HW190221   7.786   9.818   5.743
26053SOL    HW290222   7.670   9.869   5.846
26054SOL     OW90223   9.100   9.451   6.909
26054SOL    HW190224   9.056   9.499   6.985
26054SOL    HW290225   9.078   9.497   6.823
26055SOL     OW90226   7.606   9.516   5.770
26055SOL    HW190227   7.650   9.485   5.687
26055SOL    HW290228   7.607   9.616   5.774
26056SOL     OW90229   7.459   9.768   6.381
26056SOL    HW190230   7.423   9.861   6.373
26056SOL    HW290231   7.542   9.769   6.437
26057SOL     OW90232   8.255   9.866   5.726
26057SOL    HW190233   8.345   9.867   5.681
26057SOL    HW290234   8.232   9.772   5.751
26058SOL     OW90235   8.706   9.383   6.020
26058SOL    HW190236   8.616   9.367   6.061
26058SOL    HW290237   8.714   9.479   5.994
26059SOL     OW90238   8.820   9.783   7.036
26059SOL    HW190239   8.772   9.806   7.120
26059SOL    HW290240   8.754   9.753   6.967
26060SOL     OW90241   7.455   9.298   5.680
26060SOL    HW190242   7.518   9.221   5.688
26060SOL    HW290243   7.475   9.366   5.751
26061SOL     OW90244   8.009   9.886   6.703
26061SOL    HW190245   8.084   9.929   6.752
26061SOL    HW290246   7.942   9.851   6.769
26062SOL     OW90247   8.473   9.458   6.176
26062SOL    HW190248   8.532   9.518   6.231
26062SOL    HW290249   8.400   9.422   6.233
26063SOL     OW90250   8.001   9.335   6.447
26063SOL    HW190251   7.929   9.268   6.433
26063SOL    HW290252   8.083   9.289   6.482
26064SOL     OW90253   7.427  10.202   6.687
26064SOL    HW190254   7.516  10.180   6.727
26064SOL    HW290255   7.372  10.118   6.683
26065SOL     OW90256   7.655   9.247   5.967
26065SOL    HW190257   7.693   9.335   5.994
26065SOL    HW290258   7.578   9.223   6.027
26066SOL     OW90259   9.174   9.446   6.388
26066SOL    HW190260   9.129   9.428   6.475
26066SOL    HW290261   9.272   9.463   6.404
26067SOL     OW90262   8.560   9.845   5.849
26067SOL    HW190263   8.612   9.917   5.895
26067SOL    HW290264   8.573   9.852   5.751
26068SOL     OW90265   7.678  10.102   6.916
26068SOL    HW190266   7.642  10.012   6.942
26068SOL    HW290267   7.639  10.172   6.976
26069SOL     OW90268   7.846   9.684   7.321
26069SOL    HW190269   7.882   9.631   7.244
26069SOL    HW290270   7.907   9.761   7.339
26070SOL     OW90271   7.910  10.101   5.893
26070SOL    HW190272   7.860  10.166   5.837
26070SOL    HW290273   7.852  10.022   5.912
26071SOL     OW90274   8.683   9.575   6.887
26071SOL    HW190275   8.754   9.547   6.951
26071SOL    HW290276   8.630   9.495   6.859
26072SOL     OW90277   7.384   9.274   6.088
26072SOL    HW190278   7.297   9.261   6.041
26072SOL    HW290279   7.392   9.369   6.118
26073SOL     OW90280   8.605   9.375   7.329
26073SOL    HW190281   8.664   9.391   7.409
26073SOL    HW290282   8.552   9.458   7.310
26074SOL     OW90283   8.427   9.794   6.645
26074SOL    HW190284   8.513   9.845   6.644
26074SOL    HW290285   8.433   9.720   6.712
26075SOL     OW90286   8.376   9.409   6.434
26075SOL    HW190287   8.472   9.410   6.462
26075SOL    HW290288   8.321   9.366   6.506
26076SOL     OW90289   9.029   9.682   6.314
26076SOL    HW190290   9.048   9.768   6.361
26076SOL    HW290291   9.097   9.613   6.342
26077SOL     OW90292   8.243   9.330   5.652
26077SOL    HW190293   8.318   9.264   5.664
26077SOL    HW290294   8.274   9.421   5.680
26078SOL     OW90295   7.922   9.759   6.264
26078SOL    HW190296   7.960   9.670   6.290
26078SOL    HW290297   7.989   9.809   6.209
26079SOL     OW90298   7.602   9.828   7.325
26079SOL    HW190299   7.619   9.729   7.330
26079SOL    HW290300   7.666   9.876   7.386
26080SOL     OW90301   8.171   9.742   6.544
26080SOL    HW190302   8.263   9.770   6.571
26080SOL    HW290303   8.103   9.793   6.598
26081SOL     OW90304   7.590   9.935   6.685
26081SOL    HW190305   7.628   9.994   6.756
26081SOL    HW290306   7.573   9.988   6.603
26082SOL     OW90307   8.065   9.601   6.000
26082SOL    HW190308   7.967   9.595   5.980
26082SOL    HW290309   8.084   9.558   6.088
26083SOL     OW90310   8.985   9.284   6.259
26083SOL    HW190311   8.980   9.325   6.168
26083SOL    HW290312   9.066   9.318   6.306
26084SOL     OW90313   8.750   9.692   6.241
26084SOL    HW190314   8.749   9.684   6.142
26084SOL    HW290315   8.839   9.664   6.276
26085SOL     OW90316   9.068   9.786   8.796
26085SOL    HW190317   8.970   9.778   8.818
26085SOL    HW290318   9.121   9.775   8.880
26086SOL     OW90319   7.735   9.423   7.401
26086SOL    HW190320   7.648   9.420   7.352
26086SOL    HW290321   7.786   9.505   7.373
26087SOL     OW90322   8.600   9.323   8.734
26087SOL    HW190323   8.524   9.278   8.781
26087SOL    HW290324   8.629   9.268   8.656
26088SOL     OW90325   7.963   9.310   7.527
26088SOL    HW190326   8.051   9.338   7.488
26088SOL    HW290327   7.891   9.373   7.497
26089SOL     OW90328   8.099   9.856   7.931
26089SOL    HW190329   8.138   9.926   7.872
26089SOL    HW290330   8.073   9.776   7.877
26090SOL     OW90331   7.953   9.575   8.394
26090SOL    HW190332   8.029   9.640   8.390
26090SOL    HW290333   7.983   9.486   8.361
26091SOL     OW90334   8.440   9.550   7.771
26091SOL    HW190335   8.465   9.644   7.792
26091SOL    HW290336   8.441   9.496   7.855
26092SOL     OW90337   7.890   9.908   7.499
26092SOL    HW190338   7.850   9.987   7.452
26092SOL    HW290339   7.979   9.887   7.459
26093SOL     OW90340   8.598   9.540   7.560
26093SOL    HW190341   8.692   9.510   7.578
26093SOL    HW290342   8.546   9.540   7.646
26094SOL     OW90343   7.750   9.745   8.655
26094SOL    HW190344   7.740   9.658   8.607
26094SOL    HW290345   7.686   9.812   8.618
26095SOL     OW90346   8.832  10.025   8.693
26095SOL    HW190347   8.836  10.119   8.658
26095SOL    HW290348   8.925   9.994   8.715
26096SOL     OW90349   7.785   9.517   7.814
26096SOL    HW190350   7.739   9.557   7.893
26096SOL    HW290351   7.733   9.536   7.732
26097SOL     OW90352   9.156   9.861   7.652
26097SOL    HW190353   9.177   9.780   7.598
26097SOL    HW290354   9.173   9.842   7.749
26098SOL     OW90355   8.131   9.266   9.092
26098SOL    HW190356   8.138   9.172   9.059
26098SOL    HW290357   8.188   9.276   9.174
26099SOL     OW90358   7.733   9.437   8.230
26099SOL    HW190359   7.785   9.477   8.305
26099SOL    HW290360   7.786   9.364   8.187
26100SOL     OW90361   7.717   9.485   8.564
26100SOL    HW190362   7.682   9.392   8.564
26100SOL    HW290363   7.804   9.488   8.515
26101SOL     OW90364   8.389  10.361   8.701
26101SOL    HW190365   8.439  10.276   8.685
26101SOL    HW290366   8.343  10.388   8.616
26102SOL     OW90367   8.747   9.652   7.805
26102SOL    HW190368   8.684   9.710   7.753
26102SOL    HW290369   8.840   9.686   7.793
26103SOL     OW90370   7.644   9.853   8.905
26103SOL    HW190371   7.664   9.758   8.880
26103SOL    HW290372   7.607   9.856   8.998
26104SOL     OW90373   7.526   9.508   8.795
26104SOL    HW190374   7.598   9.518   8.726
26104SOL    HW290375   7.437   9.507   8.750
26105SOL     OW90376   8.424  10.129   8.560
26105SOL    HW190377   8.418  10.115   8.461
26105SOL    HW290378   8.343  10.090   8.604
26106SOL     OW90379   9.015   9.663   7.875
26106SOL    HW190380   9.111   9.634   7.872
26106SOL    HW290381   8.976   9.641   7.964
26107SOL     OW90382   8.249   9.604   7.597
26107SOL    HW190383   8.158   9.617   7.635
26107SOL    HW290384   8.309   9.564   7.667
26108SOL     OW90385   7.418   9.539   7.857
26108SOL    HW190386   7.478   9.490   7.795
26108SOL    HW290387   7.473   9.591   7.922
26109SOL     OW90388   8.205  10.004   8.706
26109SOL    HW190389   8.207  10.090   8.757
26109SOL    HW290390   8.262   9.936   8.753
26110SOL     OW90391   7.745   9.768   8.310
26110SOL    HW190392   7.801   9.761   8.227
26110SOL    HW290393   7.802   9.746   8.390
26111SOL     OW90394   8.174   9.288   7.780
26111SOL    HW190395   8.135   9.277   7.689
26111SOL    HW290396   8.130   9.364   7.827
26112SOL     OW90397   8.949   9.552   8.958
26112SOL    HW190398   8.888   9.630   8.955
26112SOL    HW290399   9.004   9.556   9.041
26113SOL     OW90400   8.785   9.304   7.545
26113SOL    HW190401   8.865   9.244   7.542
26113SOL    HW290402   8.711   9.257   7.593
26114SOL     OW90403   8.998   9.276   8.979
26114SOL    HW190404   9.024   9.233   8.893
26114SOL    HW290405   8.948   9.360   8.961
26115SOL     OW90406   8.100   9.535   8.111
26115SOL    HW190407   8.089   9.477   8.192
26115SOL    HW290408   8.185   9.587   8.119
26116SOL     OW90409   8.680   9.886   8.503
26116SOL    HW190410   8.734   9.926   8.429
26116SOL    HW290411   8.718   9.915   8.591
26117SOL     OW90412   8.572   9.830   8.221
26117SOL    HW190413   8.654   9.807   8.169
26117SOL    HW290414   8.567   9.771   8.302
26118SOL     OW90415   9.172   9.857   9.057
26118SOL    HW190416   9.161   9.943   9.006
26118SOL    HW290417   9.266   9.848   9.087
26119SOL     OW90418   8.743   9.630   8.476
26119SOL    HW190419   8.717   9.727   8.482
26119SOL    HW290420   8.743   9.590   8.568
26120SOL     OW90421   8.973   9.762   9.227
26120SOL    HW190422   9.053   9.787   9.171
26120SOL    HW290423   9.004   9.727   9.315
26121SOL     OW90424   8.991   9.518   7.601
26121SOL    HW190425   8.996   9.560   7.692
26121SOL    HW290426   8.924   9.443   7.603
26122SOL     OW90427   7.529   9.528   9.086
26122SOL    HW190428   7.547   9.517   8.988
26122SOL    HW290429   7.431   9.524   9.103
26123SOL     OW90430   7.577   9.598   8.054
26123SOL    HW190431   7.520   9.653   8.115
26123SOL    HW290432   7.647   9.550   8.107
26124SOL     OW90433   7.714   9.789   7.652
26124SOL    HW190434   7.786   9.818   7.589
26124SOL    HW290435   7.670   9.869   7.692
26125SOL     OW90436   7.606   9.516   7.616
26125SOL    HW190437   7.650   9.485   7.533
26125SOL    HW290438   7.607   9.616   7.620
26126SOL     OW90439   7.459   9.768   8.227
26126SOL    HW190440   7.423   9.861   8.219
26126SOL    HW290441   7.542   9.769   8.283
26127SOL     OW90442   8.520   9.947   7.429
26127SOL    HW190443   8.451  10.004   7.385
26127SOL    HW290444   8.601   9.941   7.370
26128SOL     OW90445   8.255   9.866   7.572
26128SOL    HW190446   8.345   9.867   7.527
26128SOL    HW290447   8.232   9.772   7.597
26129SOL     OW90448   7.455   9.298   7.526
26129SOL    HW190449   7.518   9.221   7.534
26129SOL    HW290450   7.475   9.366   7.597
26130SOL     OW90451   8.009   9.886   8.549
26130SOL    HW190452   8.084   9.929   8.598
26130SOL    HW290453   7.942   9.851   8.615
26131SOL     OW90454   8.001   9.335   8.293
26131SOL    HW190455   7.929   9.268   8.279
26131SOL    HW290456   8.083   9.289   8.328
26132SOL     OW90457   7.427  10.202   8.533
26132SOL    HW190458   7.516  10.180   8.573
26132SOL    HW290459   7.372  10.118   8.529
26133SOL     OW90460   7.655   9.247   7.813
26133SOL    HW190461   7.693   9.335   7.840
26133SOL    HW290462   7.578   9.223   7.873
26134SOL     OW90463   7.678  10.102   8.762
26134SOL    HW190464   7.642  10.012   8.788
26134SOL    HW290465   7.639  10.172   8.822
26135SOL     OW90466   7.846   9.684   9.167
26135SOL    HW190467   7.882   9.631   9.090
26135SOL    HW290468   7.907   9.761   9.185
26136SOL     OW90469   7.910  10.101   7.739
26136SOL    HW190470   7.860  10.166   7.683
26136SOL    HW290471   7.852  10.022   7.758
26137SOL     OW90472   8.683   9.575   8.733
26137SOL    HW190473   8.754   9.547   8.797
26137SOL    HW290474   8.630   9.495   8.705
26138SOL     OW90475   7.384   9.274   7.934
26138SOL    HW190476   7.297   9.261   7.887
26138SOL    HW290477   7.392   9.369   7.964
26139SOL     OW90478   8.605   9.375   9.175
26139SOL    HW190479   8.664   9.391   9.255
26139SOL    HW290480   8.552   9.458   9.156
26140SOL     OW90481   8.427   9.794   8.491
26140SOL    HW190482   8.513   9.845   8.490
26140SOL    HW290483   8.433   9.720   8.558
26141SOL     OW90484   8.243   9.330   7.498
26141SOL    HW190485   8.318   9.264   7.510
26141SOL    HW290486   8.274   9.421   7.526
26142SOL     OW90487   7.922   9.759   8.110
26142SOL    HW190488   7.960   9.670   8.136
26142SOL    HW290489   7.989   9.809   8.055
26143SOL     OW90490   7.602   9.828   9.171
26143SOL    HW190491   7.619   9.729   9.176
26143SOL    HW290492   7.666   9.876   9.232
26144SOL     OW90493   8.171   9.742   8.390
26144SOL    HW190494   8.263   9.770   8.417
26144SOL    HW290495   8.103   9.793   8.444
26145SOL     OW90496   7.590   9.935   8.531
26145SOL    HW190497   7.628   9.994   8.602
26145SOL    HW290498   7.573   9.988   8.449
26146SOL     OW90499   8.065   9.601   7.846
26146SOL    HW190500   7.967   9.595   7.826
26146SOL    HW290501   8.084   9.558   7.934
26147SOL     OW90502   7.735   9.423   9.246
26147SOL    HW190503   7.648   9.420   9.197
26147SOL    HW290504   7.786   9.505   9.218
26148SOL     OW90505   7.963   9.310   9.372
26148SOL    HW190506   8.051   9.338   9.333
26148SOL    HW290507   7.891   9.373   9.342
26149SOL     OW90508   8.099   9.856   9.776
26149SOL    HW190509   8.138   9.926   9.717
26149SOL    HW290510   8.073   9.776   9.722
26150SOL     OW90511   8.440   9.550   9.616
26150SOL    HW190512   8.465   9.644   9.637
26150SOL    HW290513   8.441   9.496   9.700
26151SOL     OW90514   7.890   9.908   9.344
26151SOL    HW190515   7.850   9.987   9.297
26151SOL    HW290516   7.979   9.887   9.304
26152SOL     OW90517   8.598   9.540   9.405
26152SOL    HW190518   8.692   9.510   9.423
26152SOL    HW290519   8.546   9.540   9.491
26153SOL     OW90520   7.785   9.517   9.659
26153SOL    HW190521   7.739   9.557   9.738
26153SOL    HW290522   7.733   9.536   9.577
26154SOL     OW90523   8.338   9.728   9.901
26154SOL    HW190524   8.414   9.756   9.960
26154SOL    HW290525   8.294   9.808   9.862
26155SOL     OW90526   9.156   9.861   9.497
26155SOL    HW190527   9.177   9.780   9.443
26155SOL    HW290528   9.173   9.842   9.594
26156SOL     OW90529   8.747   9.652   9.650
26156SOL    HW190530   8.684   9.710   9.598
26156SOL    HW290531   8.840   9.686   9.638
26157SOL     OW90532   8.249   9.604   9.442
26157SOL    HW190533   8.158   9.617   9.480
26157SOL    HW290534   8.309   9.564   9.512
26158SOL     OW90535   8.307  10.234   9.799
26158SOL    HW190536   8.294  10.145   9.756
26158SOL    HW290537   8.238  10.248   9.870
26159SOL     OW90538   7.418   9.539   9.702
26159SOL    HW190539   7.478   9.490   9.640
26159SOL    HW290540   7.473   9.591   9.767
26160SOL     OW90541   8.174   9.288   9.625
26160SOL    HW190542   8.135   9.277   9.534
26160SOL    HW290543   8.130   9.364   9.672
26161SOL     OW90544   8.785   9.304   9.390
26161SOL    HW190545   8.865   9.244   9.387
26161SOL    HW290546   8.711   9.257   9.438
26162SOL     OW90547   8.100   9.535   9.956
26162SOL    HW190548   8.089   9.477  10.037
26162SOL    HW290549   8.185   9.587   9.964
26163SOL     OW90550   7.714   9.789   9.497
26163SOL    HW190551   7.786   9.818   9.434
26163SOL    HW290552   7.670   9.869   9.537
26164SOL     OW90553   7.606   9.516   9.461
26164SOL    HW190554   7.650   9.485   9.378
26164SOL    HW290555   7.607   9.616   9.465
26165SOL     OW90556   7.459   9.768  10.072
26165SOL    HW190557   7.423   9.861  10.064
26165SOL    HW290558   7.542   9.769  10.128
26166SOL     OW90559   8.255   9.866   9.417
26166SOL    HW190560   8.345   9.867   9.372
26166SOL    HW290561   8.232   9.772   9.442
26167SOL     OW90562   8.706   9.383   9.711
26167SOL    HW190563   8.616   9.367   9.752
26167SOL    HW290564   8.714   9.479   9.685
26168SOL     OW90565   7.455   9.298   9.371
26168SOL    HW190566   7.518   9.221   9.379
26168SOL    HW290567   7.475   9.366   9.442
26169SOL     OW90568   8.473   9.458   9.867
26169SOL    HW190569   8.532   9.518   9.922
26169SOL    HW290570   8.400   9.422   9.924
26170SOL     OW90571   7.655   9.247   9.658
26170SOL    HW190572   7.693   9.335   9.685
26170SOL    HW290573   7.578   9.223   9.718
26171SOL     OW90574   8.560   9.845   9.540
26171SOL    HW190575   8.612   9.917   9.586
26171SOL    HW290576   8.573   9.852   9.442
26172SOL     OW90577   7.910  10.101   9.584
26172SOL    HW190578   7.860  10.166   9.528
26172SOL    HW290579   7.852  10.022   9.603
26173SOL     OW90580   7.384   9.274   9.779
26173SOL    HW190581   7.297   9.261   9.732
26173SOL    HW290582   7.392   9.369   9.809
26174SOL     OW90583   9.029   9.682  10.005
26174SOL    HW190584   9.048   9.768  10.052
26174SOL    HW290585   9.097   9.613  10.033
26175SOL     OW90586   8.243   9.330   9.343
26175SOL    HW190587   8.318   9.264   9.355
26175SOL    HW290588   8.274   9.421   9.371
26176SOL     OW90589   7.922   9.759   9.955
26176SOL    HW190590   7.960   9.670   9.981
26176SOL    HW290591   7.989   9.809   9.900
26177SOL     OW90592   8.065   9.601   9.691
26177SOL    HW190593   7.967   9.595   9.671
26177SOL    HW290594   8.084   9.558   9.779
26178SOL     OW90595   8.750   9.692   9.932
26178SOL    HW190596   8.749   9.684   9.833
26178SOL    HW290597   8.839   9.664   9.967
26179SOL     OW90598   9.580   0.196   0.019
26179SOL    HW190599   9.493   0.193  -0.030
26179SOL    HW290600   9.631   0.278  -0.009
26180SOL     OW90601   9.790   1.550   0.423
26180SOL    HW190602   9.746   1.559   0.512
26180SOL    HW290603   9.861   1.480   0.427
26181SOL     OW90604   9.808   0.083   0.145
26181SOL    HW190605   9.896   0.111   0.106
26181SOL    HW290606   9.736   0.146   0.115
26182SOL     OW90607   9.717   1.223   0.718
26182SOL    HW190608   9.650   1.177   0.777
26182SOL    HW290609   9.809   1.191   0.741
26183SOL     OW90610   9.647   1.392   0.202
26183SOL    HW190611   9.711   1.408   0.127
26183SOL    HW290612   9.671   1.450   0.280
26184SOL     OW90613   9.409   1.036   1.574
26184SOL    HW190614   9.505   1.051   1.592
26184SOL    HW290615   9.371   0.974   1.643
26185SOL     OW90616   9.735   0.681   0.117
26185SOL    HW190617   9.695   0.760   0.070
26185SOL    HW290618   9.824   0.660   0.077
26186SOL     OW90619   9.908   1.605   0.815
26186SOL    HW190620   9.981   1.628   0.751
26186SOL    HW290621   9.837   1.552   0.769
26187SOL     OW90622   9.585   1.258   0.467
26187SOL    HW190623   9.631   1.232   0.552
26187SOL    HW290624   9.605   1.190   0.396
26188SOL     OW90625   9.630   0.290   0.432
26188SOL    HW190626   9.584   0.330   0.511
26188SOL    HW290627   9.578   0.309   0.350
26189SOL     OW90628   9.976   0.039   1.710
26189SOL    HW190629   9.983  -0.055   1.677
26189SOL    HW290630  10.033   0.049   1.792
26190SOL     OW90631   9.964   1.148   1.748
26190SOL    HW190632   9.935   1.225   1.805
26190SOL    HW290633   9.974   1.067   1.806
26191SOL     OW90634   9.578   0.210   0.848
26191SOL    HW190635   9.630   0.250   0.923
26191SOL    HW290636   9.631   0.137   0.805
26192SOL     OW90637   9.430   1.507   0.381
26192SOL    HW190638   9.457   1.413   0.401
26192SOL    HW290639   9.455   1.529   0.287
26193SOL     OW90640   9.444   1.650   0.618
26193SOL    HW190641   9.360   1.701   0.636
26193SOL    HW290642   9.435   1.599   0.533
26194SOL     OW90643   9.717   0.947   0.020
26194SOL    HW190644   9.686   0.981  -0.068
26194SOL    HW290645   9.721   1.022   0.086
26195SOL     OW90646   9.321   0.839   0.193
26195SOL    HW190647   9.381   0.786   0.253
26195SOL    HW290648   9.227   0.807   0.205
26196SOL     OW90649  10.089   1.824   1.041
26196SOL    HW190650  10.135   1.757   0.983
26196SOL    HW290651  10.015   1.780   1.091
26197SOL     OW90652   9.489   0.626   1.523
26197SOL    HW190653   9.509   0.531   1.498
26197SOL    HW290654   9.452   0.629   1.616
26198SOL     OW90655   9.371   0.281   1.413
26198SOL    HW190656   9.443   0.291   1.344
26198SOL    HW290657   9.282   0.280   1.368
26199SOL     OW90658  10.050   0.777   1.324
26199SOL    HW190659  10.052   0.863   1.375
26199SOL    HW290660  10.107   0.709   1.371
26200SOL     OW90661   9.287   1.804   1.395
26200SOL    HW190662   9.295   1.904   1.393
26200SOL    HW290663   9.263   1.775   1.488
26201SOL     OW90664   9.587   1.739   0.199
26201SOL    HW190665   9.679   1.769   0.174
26201SOL    HW290666   9.562   1.778   0.288
26202SOL     OW90667   9.264   1.197   0.492
26202SOL    HW190668   9.342   1.255   0.516
26202SOL    HW290669   9.283   1.148   0.407
26203SOL     OW90670   9.794   1.380   1.800
26203SOL    HW190671   9.755   1.443   1.733
26203SOL    HW290672   9.877   1.420   1.840
26204SOL     OW90673   9.670   1.112   1.632
26204SOL    HW190674   9.689   1.136   1.537
26204SOL    HW290675   9.663   1.195   1.687
26205SOL     OW90676   9.331   1.402   1.106
26205SOL    HW190677   9.300   1.328   1.047
26205SOL    HW290678   9.263   1.420   1.177
26206SOL     OW90679   9.983   1.506   1.439
26206SOL    HW190680   9.920   1.584   1.446
26206SOL    HW290681   9.951   1.444   1.367
26207SOL     OW90682   9.374   0.301   1.704
26207SOL    HW190683   9.392   0.290   1.606
26207SOL    HW290684   9.276   0.297   1.721
26208SOL     OW90685   9.254   1.715   1.648
26208SOL    HW190686   9.326   1.701   1.716
26208SOL    HW290687   9.165   1.718   1.693
26209SOL     OW90688   9.559   0.562   0.270
26209SOL    HW190689   9.631   0.591   0.207
26209SOL    HW290690   9.515   0.642   0.310
26210SOL     OW90691   9.674   1.825   0.736
26210SOL    HW190692   9.598   1.791   0.681
26210SOL    HW290693   9.760   1.788   0.701
26211SOL     OW90694   9.599   1.334   1.181
26211SOL    HW190695   9.611   1.350   1.278
26211SOL    HW290696   9.512   1.374   1.151
26212SOL     OW90697   9.451   0.289   0.234
26212SOL    HW190698   9.495   0.258   0.151
26212SOL    HW290699   9.452   0.389   0.238
26213SOL     OW90700   9.304   0.541   0.845
26213SOL    HW190701   9.268   0.634   0.837
26213SOL    HW290702   9.387   0.542   0.901
26214SOL     OW90703   9.739   1.128   0.231
26214SOL    HW190704   9.839   1.128   0.242
26214SOL    HW290705   9.708   1.221   0.210
26215SOL     OW90706   9.300   0.071   0.144
26215SOL    HW190707   9.363  -0.006   0.152
26215SOL    HW290708   9.320   0.139   0.215
26216SOL     OW90709   9.997   1.028   1.484
26216SOL    HW190710  10.066   1.080   1.434
26216SOL    HW290711   9.992   1.061   1.579
26217SOL     OW90712   9.846   0.108   0.911
26217SOL    HW190713   9.774   0.041   0.897
26217SOL    HW290714   9.928   0.062   0.946
26218SOL     OW90715   9.546   1.773   1.278
26218SOL    HW190716   9.526   1.755   1.182
26218SOL    HW290717   9.473   1.735   1.335
26219SOL     OW90718   9.500   0.020   0.431
26219SOL    HW190719   9.538   0.108   0.458
26219SOL    HW290720   9.423  -0.004   0.491
26220SOL     OW90721   9.916   0.637   1.759
26220SOL    HW190722   9.868   0.688   1.688
26220SOL    HW290723  10.009   0.616   1.729
26221SOL     OW90724   9.322   1.107   0.251
26221SOL    HW190725   9.312   1.010   0.230
26221SOL    HW290726   9.375   1.152   0.179
26222SOL     OW90727   9.523   0.875   1.380
26222SOL    HW190728   9.487   0.785   1.406
26222SOL    HW290729   9.484   0.945   1.440
26223SOL     OW90730  10.025   1.501   0.038
26223SOL    HW190731  10.000   1.578   0.097
26223SOL    HW290732  10.089   1.441   0.086
26224SOL     OW90733   9.843   1.708   1.072
26224SOL    HW190734   9.863   1.678   0.979
26224SOL    HW290735   9.768   1.653   1.109
26225SOL     OW90736   9.291   0.930   1.785
26225SOL    HW190737   9.206   0.881   1.766
26225SOL    HW290738   9.318   0.917   1.880
26226SOL     OW90739   9.691   0.457   1.785
26226SOL    HW190740   9.727   0.404   1.708
26226SOL    HW290741   9.752   0.534   1.803
26227SOL     OW90742   9.755   0.874   0.357
26227SOL    HW190743   9.705   0.939   0.301
26227SOL    HW290744   9.697   0.795   0.376
26228SOL     OW90745   9.229   0.047   0.552
26228SOL    HW190746   9.142   0.034   0.505
26228SOL    HW290747   9.237   0.142   0.582
26229SOL     OW90748   9.666   1.567   1.618
26229SOL    HW190749   9.608   1.632   1.667
26229SOL    HW290750   9.728   1.617   1.558
26230SOL     OW90751   9.676   1.513   0.681
26230SOL    HW190752   9.674   1.414   0.694
26230SOL    HW290753   9.585   1.546   0.658
26231SOL     OW90754   9.526   1.760   1.768
26231SOL    HW190755   9.569   1.844   1.734
26231SOL    HW290756   9.551   1.747   1.864
26232SOL     OW90757   9.386   1.296   1.639
26232SOL    HW190758   9.365   1.201   1.612
26232SOL    HW290759   9.317   1.357   1.601
26233SOL     OW90760   9.475   1.661   1.043
26233SOL    HW190761   9.417   1.581   1.057
26233SOL    HW290762   9.499   1.668   0.946
26234SOL     OW90763   9.767   0.532   0.728
26234SOL    HW190764   9.805   0.443   0.754
26234SOL    HW290765   9.834   0.582   0.673
26235SOL     OW90766   9.755   1.090   1.382
26235SOL    HW190767   9.851   1.070   1.402
26235SOL    HW290768   9.744   1.188   1.364
26236SOL     OW90769   9.460   1.242   0.043
26236SOL    HW190770   9.452   1.254  -0.056
26236SOL    HW290771   9.519   1.313   0.081
26237SOL     OW90772   9.804   1.720   1.427
26237SOL    HW190773   9.853   1.800   1.391
26237SOL    HW290774   9.712   1.718   1.388
26238SOL     OW90775   9.447   0.601   1.789
26238SOL    HW190776   9.464   0.502   1.794
26238SOL    HW290777   9.511   0.649   1.850
26239SOL     OW90778   9.791   0.733   1.527
26239SOL    HW190779   9.697   0.703   1.508
26239SOL    HW290780   9.800   0.830   1.504
26240SOL     OW90781   9.869   1.366   1.235
26240SOL    HW190782   9.782   1.365   1.186
26240SOL    HW290783   9.935   1.306   1.188
26241SOL     OW90784   9.606   1.354   1.447
26241SOL    HW190785   9.625   1.442   1.491
26241SOL    HW290786   9.511   1.328   1.465
26242SOL     OW90787   9.580   0.196   1.864
26242SOL    HW190788   9.493   0.193   1.815
26242SOL    HW290789   9.631   0.278   1.836
26243SOL     OW90790   9.790   1.550   2.268
26243SOL    HW190791   9.746   1.559   2.357
26243SOL    HW290792   9.861   1.480   2.272
26244SOL     OW90793   9.808   0.083   1.990
26244SOL    HW190794   9.896   0.111   1.951
26244SOL    HW290795   9.736   0.146   1.960
26245SOL     OW90796   9.717   1.223   2.563
26245SOL    HW190797   9.650   1.177   2.622
26245SOL    HW290798   9.809   1.191   2.586
26246SOL     OW90799   9.647   1.392   2.047
26246SOL    HW190800   9.711   1.408   1.972
26246SOL    HW290801   9.671   1.450   2.125
26247SOL     OW90802   9.798   0.348   2.857
26247SOL    HW190803   9.874   0.413   2.853
26247SOL    HW290804   9.828   0.259   2.824
26248SOL     OW90805   9.495   0.774   2.275
26248SOL    HW190806   9.510   0.708   2.349
26248SOL    HW290807   9.445   0.853   2.310
26249SOL     OW90808   9.735   0.681   1.962
26249SOL    HW190809   9.695   0.760   1.915
26249SOL    HW290810   9.824   0.660   1.922
26250SOL     OW90811   9.908   1.605   2.660
26250SOL    HW190812   9.981   1.628   2.596
26250SOL    HW290813   9.837   1.552   2.614
26251SOL     OW90814   9.585   1.258   2.312
26251SOL    HW190815   9.631   1.232   2.397
26251SOL    HW290816   9.605   1.190   2.241
26252SOL     OW90817   9.595   0.518   3.118
26252SOL    HW190818   9.585   0.431   3.070
26252SOL    HW290819   9.531   0.585   3.081
26253SOL     OW90820   9.630   0.290   2.277
26253SOL    HW190821   9.584   0.330   2.356
26253SOL    HW290822   9.578   0.309   2.195
26254SOL     OW90823   9.976   0.039   3.555
26254SOL    HW190824   9.983  -0.055   3.522
26254SOL    HW290825  10.033   0.049   3.637
26255SOL     OW90826   9.964   1.148   3.593
26255SOL    HW190827   9.935   1.225   3.650
26255SOL    HW290828   9.974   1.067   3.651
26256SOL     OW90829   9.257   0.622   2.372
26256SOL    HW190830   9.259   0.573   2.459
26256SOL    HW290831   9.259   0.721   2.390
26257SOL     OW90832   9.578   0.210   2.693
26257SOL    HW190833   9.630   0.250   2.768
26257SOL    HW290834   9.631   0.137   2.650
26258SOL     OW90835   9.562   0.258   3.027
26258SOL    HW190836   9.527   0.165   3.027
26258SOL    HW290837   9.649   0.261   2.978
26259SOL     OW90838   9.430   1.507   2.226
26259SOL    HW190839   9.457   1.413   2.246
26259SOL    HW290840   9.455   1.529   2.132
26260SOL     OW90841   9.444   1.650   2.463
26260SOL    HW190842   9.360   1.701   2.481
26260SOL    HW290843   9.435   1.599   2.378
26261SOL     OW90844   9.717   0.947   1.865
26261SOL    HW190845   9.686   0.981   1.777
26261SOL    HW290846   9.721   1.022   1.931
26262SOL     OW90847   9.321   0.839   2.038
26262SOL    HW190848   9.381   0.786   2.098
26262SOL    HW290849   9.227   0.807   2.050
26263SOL     OW90850  10.089   1.824   2.886
26263SOL    HW190851  10.135   1.757   2.828
26263SOL    HW290852  10.015   1.780   2.936
26264SOL     OW90853   9.489   0.626   3.368
26264SOL    HW190854   9.509   0.531   3.343
26264SOL    HW290855   9.452   0.629   3.461
26265SOL     OW90856   9.371   0.281   3.258
26265SOL    HW190857   9.443   0.291   3.189
26265SOL    HW290858   9.282   0.280   3.213
26266SOL     OW90859   9.519   1.059   2.718
26266SOL    HW190860   9.442   1.121   2.711
26266SOL    HW290861   9.556   1.060   2.811
26267SOL     OW90862   9.263   0.312   2.320
26267SOL    HW190863   9.323   0.263   2.258
26267SOL    HW290864   9.318   0.364   2.385
26268SOL     OW90865  10.050   0.777   3.169
26268SOL    HW190866  10.052   0.863   3.220
26268SOL    HW290867  10.107   0.709   3.216
26269SOL     OW90868   9.287   1.804   3.240
26269SOL    HW190869   9.295   1.904   3.238
26269SOL    HW290870   9.263   1.775   3.333
26270SOL     OW90871   9.590   0.541   2.773
26270SOL    HW190872   9.646   0.534   2.690
26270SOL    HW290873   9.647   0.519   2.853
26271SOL     OW90874   9.587   1.739   2.044
26271SOL    HW190875   9.679   1.769   2.019
26271SOL    HW290876   9.562   1.778   2.133
26272SOL     OW90877   9.268   1.156   2.793
26272SOL    HW190878   9.178   1.172   2.754
26272SOL    HW290879   9.266   1.072   2.848
26273SOL     OW90880   9.264   1.197   2.337
26273SOL    HW190881   9.342   1.255   2.361
26273SOL    HW290882   9.283   1.148   2.252
26274SOL     OW90883   9.794   1.380   3.645
26274SOL    HW190884   9.755   1.443   3.578
26274SOL    HW290885   9.877   1.420   3.685
26275SOL     OW90886   9.670   1.112   3.477
26275SOL    HW190887   9.689   1.136   3.382
26275SOL    HW290888   9.663   1.195   3.532
26276SOL     OW90889   9.331   1.402   2.951
26276SOL    HW190890   9.300   1.328   2.892
26276SOL    HW290891   9.263   1.420   3.022
26277SOL     OW90892   9.983   1.506   3.284
26277SOL    HW190893   9.920   1.584   3.291
26277SOL    HW290894   9.951   1.444   3.212
26278SOL     OW90895   9.374   0.301   3.549
26278SOL    HW190896   9.392   0.290   3.451
26278SOL    HW290897   9.276   0.297   3.566
26279SOL     OW90898   9.254   1.715   3.493
26279SOL    HW190899   9.326   1.701   3.561
26279SOL    HW290900   9.165   1.718   3.538
26280SOL     OW90901   9.422   0.371   2.517
26280SOL    HW190902   9.365   0.426   2.578
26280SOL    HW290903   9.492   0.323   2.570
26281SOL     OW90904   9.559   0.562   2.115
26281SOL    HW190905   9.631   0.591   2.052
26281SOL    HW290906   9.515   0.642   2.155
26282SOL     OW90907   9.674   1.825   2.581
26282SOL    HW190908   9.598   1.791   2.526
26282SOL    HW290909   9.760   1.788   2.546
26283SOL     OW90910   9.599   1.334   3.026
26283SOL    HW190911   9.611   1.350   3.123
26283SOL    HW290912   9.512   1.374   2.996
26284SOL     OW90913   9.605   0.809   2.564
26284SOL    HW190914   9.597   0.907   2.582
26284SOL    HW290915   9.689   0.775   2.605
26285SOL     OW90916   9.451   0.289   2.079
26285SOL    HW190917   9.495   0.258   1.996
26285SOL    HW290918   9.452   0.389   2.083
26286SOL     OW90919   9.304   0.541   2.690
26286SOL    HW190920   9.268   0.634   2.682
26286SOL    HW290921   9.387   0.542   2.746
26287SOL     OW90922   9.739   1.128   2.076
26287SOL    HW190923   9.839   1.128   2.087
26287SOL    HW290924   9.708   1.221   2.055
26288SOL     OW90925  10.100   0.639   2.035
26288SOL    HW190926  10.190   0.640   1.990
26288SOL    HW290927  10.077   0.545   2.060
26289SOL     OW90928   9.300   0.071   1.989
26289SOL    HW190929   9.363  -0.006   1.997
26289SOL    HW290930   9.320   0.139   2.060
26290SOL     OW90931   9.573   1.046   2.990
26290SOL    HW190932   9.584   1.001   3.079
26290SOL    HW290933   9.600   1.142   2.997
26291SOL     OW90934   9.854   0.659   3.012
26291SOL    HW190935   9.929   0.702   3.061
26291SOL    HW290936   9.787   0.624   3.078
26292SOL     OW90937   9.997   1.028   3.329
26292SOL    HW190938  10.066   1.080   3.279
26292SOL    HW290939   9.992   1.061   3.424
26293SOL     OW90940   9.846   0.108   2.756
26293SOL    HW190941   9.774   0.041   2.742
26293SOL    HW290942   9.928   0.062   2.791
26294SOL     OW90943   9.546   1.773   3.123
26294SOL    HW190944   9.526   1.755   3.027
26294SOL    HW290945   9.473   1.735   3.180
26295SOL     OW90946   9.500   0.020   2.276
26295SOL    HW190947   9.538   0.108   2.303
26295SOL    HW290948   9.423  -0.004   2.336
26296SOL     OW90949   9.916   0.637   3.604
26296SOL    HW190950   9.868   0.688   3.533
26296SOL    HW290951  10.009   0.616   3.574
26297SOL     OW90952   9.322   1.107   2.096
26297SOL    HW190953   9.312   1.010   2.075
26297SOL    HW290954   9.375   1.152   2.024
26298SOL     OW90955  10.025   1.501   1.883
26298SOL    HW190956  10.000   1.578   1.942
26298SOL    HW290957  10.089   1.441   1.931
26299SOL     OW90958   9.843   1.708   2.917
26299SOL    HW190959   9.863   1.678   2.824
26299SOL    HW290960   9.768   1.653   2.954
26300SOL     OW90961   9.354   0.813   2.703
26300SOL    HW190962   9.449   0.804   2.671
26300SOL    HW290963   9.320   0.905   2.682
26301SOL     OW90964   9.691   0.457   3.630
26301SOL    HW190965   9.727   0.404   3.553
26301SOL    HW290966   9.752   0.534   3.648
26302SOL     OW90967   9.755   0.874   2.202
26302SOL    HW190968   9.705   0.939   2.146
26302SOL    HW290969   9.697   0.795   2.221
26303SOL     OW90970   9.229   0.047   2.397
26303SOL    HW190971   9.142   0.034   2.350
26303SOL    HW290972   9.237   0.142   2.427
26304SOL     OW90973   9.666   1.567   3.463
26304SOL    HW190974   9.608   1.632   3.512
26304SOL    HW290975   9.728   1.617   3.403
26305SOL     OW90976   9.676   1.513   2.526
26305SOL    HW190977   9.674   1.414   2.539
26305SOL    HW290978   9.585   1.546   2.503
26306SOL     OW90979   9.526   1.760   3.613
26306SOL    HW190980   9.569   1.844   3.579
26306SOL    HW290981   9.551   1.747   3.709
26307SOL     OW90982   9.386   1.296   3.484
26307SOL    HW190983   9.365   1.201   3.457
26307SOL    HW290984   9.317   1.357   3.446
26308SOL     OW90985   9.475   1.661   2.888
26308SOL    HW190986   9.417   1.581   2.902
26308SOL    HW290987   9.499   1.668   2.791
26309SOL     OW90988   9.767   0.532   2.573
26309SOL    HW190989   9.805   0.443   2.599
26309SOL    HW290990   9.834   0.582   2.518
26310SOL     OW90991   9.755   1.090   3.227
26310SOL    HW190992   9.851   1.070   3.247
26310SOL    HW290993   9.744   1.188   3.209
26311SOL     OW90994   9.460   1.242   1.888
26311SOL    HW190995   9.452   1.254   1.789
26311SOL    HW290996   9.519   1.313   1.926
26312SOL     OW90997   9.887   1.681   2.048
26312SOL    HW190998   9.862   1.776   2.032
26312SOL    HW290999   9.854   1.653   2.138
26313SOL     OW91000   9.804   1.720   3.272
26313SOL    HW191001   9.853   1.800   3.236
26313SOL    HW291002   9.712   1.718   3.233
26314SOL     OW91003   9.282   0.935   2.434
26314SOL    HW191004   9.289   1.034   2.421
26314SOL    HW291005   9.191   0.912   2.468
26315SOL     OW91006   9.791   0.733   3.372
26315SOL    HW191007   9.697   0.703   3.353
26315SOL    HW291008   9.800   0.830   3.349
26316SOL     OW91009  10.016   0.515   2.853
26316SOL    HW191010  10.108   0.543   2.880
26316SOL    HW291011   9.948   0.566   2.907
26317SOL     OW91012   9.869   1.366   3.080
26317SOL    HW191013   9.782   1.365   3.031
26317SOL    HW291014   9.935   1.306   3.033
26318SOL     OW91015   9.435   0.708   2.994
26318SOL    HW191016   9.473   0.767   3.065
26318SOL    HW291017   9.418   0.761   2.912
26319SOL     OW91018   9.606   1.354   3.292
26319SOL    HW191019   9.625   1.442   3.336
26319SOL    HW291020   9.511   1.328   3.310
26320SOL     OW91021   9.580   0.196   3.710
26320SOL    HW191022   9.493   0.193   3.661
26320SOL    HW291023   9.631   0.278   3.682
26321SOL     OW91024   9.790   1.550   4.114
26321SOL    HW191025   9.746   1.559   4.203
26321SOL    HW291026   9.861   1.480   4.118
26322SOL     OW91027   9.808   0.083   3.836
26322SOL    HW191028   9.896   0.111   3.797
26322SOL    HW291029   9.736   0.146   3.806
26323SOL     OW91030   9.647   1.392   3.893
26323SOL    HW191031   9.711   1.408   3.818
26323SOL    HW291032   9.671   1.450   3.971
26324SOL     OW91033   9.798   0.348   4.703
26324SOL    HW191034   9.874   0.413   4.699
26324SOL    HW291035   9.828   0.259   4.670
26325SOL     OW91036   9.735   0.681   3.808
26325SOL    HW191037   9.695   0.760   3.761
26325SOL    HW291038   9.824   0.660   3.768
26326SOL     OW91039   9.908   1.605   4.506
26326SOL    HW191040   9.981   1.628   4.442
26326SOL    HW291041   9.837   1.552   4.460
26327SOL     OW91042   9.585   1.258   4.158
26327SOL    HW191043   9.631   1.232   4.243
26327SOL    HW291044   9.605   1.190   4.087
26328SOL     OW91045   9.595   0.518   4.964
26328SOL    HW191046   9.585   0.431   4.916
26328SOL    HW291047   9.531   0.585   4.927
26329SOL     OW91048   9.630   0.290   4.123
26329SOL    HW191049   9.584   0.330   4.202
26329SOL    HW291050   9.578   0.309   4.041
26330SOL     OW91051   9.976   0.039   5.401
26330SOL    HW191052   9.983  -0.055   5.368
26330SOL    HW291053  10.033   0.049   5.483
26331SOL     OW91054   9.964   1.148   5.439
26331SOL    HW191055   9.935   1.225   5.496
26331SOL    HW291056   9.974   1.067   5.497
26332SOL     OW91057   9.578   0.210   4.539
26332SOL    HW191058   9.630   0.250   4.614
26332SOL    HW291059   9.631   0.137   4.496
26333SOL     OW91060   9.562   0.258   4.873
26333SOL    HW191061   9.527   0.165   4.873
26333SOL    HW291062   9.649   0.261   4.824
26334SOL     OW91063   9.717   0.947   3.711
26334SOL    HW191064   9.686   0.981   3.623
26334SOL    HW291065   9.721   1.022   3.777
26335SOL     OW91066   9.489   0.626   5.214
26335SOL    HW191067   9.509   0.531   5.189
26335SOL    HW291068   9.452   0.629   5.307
26336SOL     OW91069   9.371   0.281   5.104
26336SOL    HW191070   9.443   0.291   5.035
26336SOL    HW291071   9.282   0.280   5.059
26337SOL     OW91072   9.287   1.804   5.086
26337SOL    HW191073   9.295   1.904   5.084
26337SOL    HW291074   9.263   1.775   5.179
26338SOL     OW91075   9.590   0.541   4.619
26338SOL    HW191076   9.646   0.534   4.536
26338SOL    HW291077   9.647   0.519   4.699
26339SOL     OW91078   9.587   1.739   3.890
26339SOL    HW191079   9.679   1.769   3.865
26339SOL    HW291080   9.562   1.778   3.979
26340SOL     OW91081   9.268   1.156   4.639
26340SOL    HW191082   9.178   1.172   4.600
26340SOL    HW291083   9.266   1.072   4.694
26341SOL     OW91084   9.264   1.197   4.183
26341SOL    HW191085   9.342   1.255   4.207
26341SOL    HW291086   9.283   1.148   4.098
26342SOL     OW91087   9.374   0.301   5.395
26342SOL    HW191088   9.392   0.290   5.297
26342SOL    HW291089   9.276   0.297   5.412
26343SOL     OW91090   9.254   1.715   5.339
26343SOL    HW191091   9.326   1.701   5.407
26343SOL    HW291092   9.165   1.718   5.384
26344SOL     OW91093   9.559   0.562   3.961
26344SOL    HW191094   9.631   0.591   3.898
26344SOL    HW291095   9.515   0.642   4.001
26345SOL     OW91096   9.674   1.825   4.427
26345SOL    HW191097   9.598   1.791   4.372
26345SOL    HW291098   9.760   1.788   4.392
26346SOL     OW91099   9.599   1.334   4.872
26346SOL    HW191100   9.611   1.350   4.969
26346SOL    HW291101   9.512   1.374   4.842
26347SOL     OW91102   9.451   0.289   3.925
26347SOL    HW191103   9.495   0.258   3.842
26347SOL    HW291104   9.452   0.389   3.929
26348SOL     OW91105   9.739   1.128   3.922
26348SOL    HW191106   9.839   1.128   3.933
26348SOL    HW291107   9.708   1.221   3.901
26349SOL     OW91108  10.100   0.639   3.881
26349SOL    HW191109  10.190   0.640   3.836
26349SOL    HW291110  10.077   0.545   3.906
26350SOL     OW91111   9.300   0.071   3.835
26350SOL    HW191112   9.363  -0.006   3.843
26350SOL    HW291113   9.320   0.139   3.906
26351SOL     OW91114   9.573   1.046   4.836
26351SOL    HW191115   9.584   1.001   4.925
26351SOL    HW291116   9.600   1.142   4.843
26352SOL     OW91117   9.997   1.028   5.175
26352SOL    HW191118  10.066   1.080   5.125
26352SOL    HW291119   9.992   1.061   5.270
26353SOL     OW91120   9.846   0.108   4.602
26353SOL    HW191121   9.774   0.041   4.588
26353SOL    HW291122   9.928   0.062   4.637
26354SOL     OW91123   9.546   1.773   4.969
26354SOL    HW191124   9.526   1.755   4.873
26354SOL    HW291125   9.473   1.735   5.026
26355SOL     OW91126   9.272   0.975   4.842
26355SOL    HW191127   9.361   0.953   4.882
26355SOL    HW291128   9.217   0.891   4.838
26356SOL     OW91129   9.500   0.020   4.122
26356SOL    HW191130   9.538   0.108   4.149
26356SOL    HW291131   9.423  -0.004   4.182
26357SOL     OW91132   9.916   0.637   5.450
26357SOL    HW191133   9.868   0.688   5.379
26357SOL    HW291134  10.009   0.616   5.420
26358SOL     OW91135   9.322   1.107   3.942
26358SOL    HW191136   9.312   1.010   3.921
26358SOL    HW291137   9.375   1.152   3.870
26359SOL     OW91138   9.523   0.875   5.071
26359SOL    HW191139   9.487   0.785   5.097
26359SOL    HW291140   9.484   0.945   5.131
26360SOL     OW91141  10.025   1.501   3.729
26360SOL    HW191142  10.000   1.578   3.788
26360SOL    HW291143  10.089   1.441   3.777
26361SOL     OW91144   9.843   1.708   4.763
26361SOL    HW191145   9.863   1.678   4.670
26361SOL    HW291146   9.768   1.653   4.800
26362SOL     OW91147   9.691   0.457   5.476
26362SOL    HW191148   9.727   0.404   5.399
26362SOL    HW291149   9.752   0.534   5.494
26363SOL     OW91150   9.755   0.874   4.048
26363SOL    HW191151   9.705   0.939   3.992
26363SOL    HW291152   9.697   0.795   4.067
26364SOL     OW91153   9.229   0.047   4.243
26364SOL    HW191154   9.142   0.034   4.196
26364SOL    HW291155   9.237   0.142   4.273
26365SOL     OW91156   9.526   1.760   5.459
26365SOL    HW191157   9.569   1.844   5.425
26365SOL    HW291158   9.551   1.747   5.555
26366SOL     OW91159   9.755   1.090   5.073
26366SOL    HW191160   9.851   1.070   5.093
26366SOL    HW291161   9.744   1.188   5.055
26367SOL     OW91162   9.460   1.242   3.734
26367SOL    HW191163   9.452   1.254   3.635
26367SOL    HW291164   9.519   1.313   3.772
26368SOL     OW91165   9.887   1.681   3.894
26368SOL    HW191166   9.862   1.776   3.878
26368SOL    HW291167   9.854   1.653   3.984
26369SOL     OW91168   9.447   0.601   5.480
26369SOL    HW191169   9.464   0.502   5.485
26369SOL    HW291170   9.511   0.649   5.541
26370SOL     OW91171   9.791   0.733   5.218
26370SOL    HW191172   9.697   0.703   5.199
26370SOL    HW291173   9.800   0.830   5.195
26371SOL     OW91174  10.016   0.515   4.699
26371SOL    HW191175  10.108   0.543   4.726
26371SOL    HW291176   9.948   0.566   4.753
26372SOL     OW91177   9.869   1.366   4.926
26372SOL    HW191178   9.782   1.365   4.877
26372SOL    HW291179   9.935   1.306   4.879
26373SOL     OW91180   9.435   0.708   4.840
26373SOL    HW191181   9.473   0.767   4.911
26373SOL    HW291182   9.418   0.761   4.758
26374SOL     OW91183   9.580   0.196   5.555
26374SOL    HW191184   9.493   0.193   5.506
26374SOL    HW291185   9.631   0.278   5.527
26375SOL     OW91186   9.790   1.550   5.959
26375SOL    HW191187   9.746   1.559   6.048
26375SOL    HW291188   9.861   1.480   5.963
26376SOL     OW91189   9.808   0.083   5.681
26376SOL    HW191190   9.896   0.111   5.642
26376SOL    HW291191   9.736   0.146   5.651
26377SOL     OW91192   9.717   1.223   6.254
26377SOL    HW191193   9.650   1.177   6.313
26377SOL    HW291194   9.809   1.191   6.277
26378SOL     OW91195   9.798   0.348   6.548
26378SOL    HW191196   9.874   0.413   6.544
26378SOL    HW291197   9.828   0.259   6.515
26379SOL     OW91198   9.409   1.036   7.110
26379SOL    HW191199   9.505   1.051   7.128
26379SOL    HW291200   9.371   0.974   7.179
26380SOL     OW91201   9.735   0.681   5.653
26380SOL    HW191202   9.695   0.760   5.606
26380SOL    HW291203   9.824   0.660   5.613
26381SOL     OW91204   9.595   0.518   6.809
26381SOL    HW191205   9.585   0.431   6.761
26381SOL    HW291206   9.531   0.585   6.772
26382SOL     OW91207   9.630   0.290   5.968
26382SOL    HW191208   9.584   0.330   6.047
26382SOL    HW291209   9.578   0.309   5.886
26383SOL     OW91210   9.976   0.039   7.246
26383SOL    HW191211   9.983  -0.055   7.213
26383SOL    HW291212  10.033   0.049   7.328
26384SOL     OW91213   9.257   0.622   6.063
26384SOL    HW191214   9.259   0.573   6.150
26384SOL    HW291215   9.259   0.721   6.081
26385SOL     OW91216   9.578   0.210   6.384
26385SOL    HW191217   9.630   0.250   6.459
26385SOL    HW291218   9.631   0.137   6.341
26386SOL     OW91219   9.562   0.258   6.718
26386SOL    HW191220   9.527   0.165   6.718
26386SOL    HW291221   9.649   0.261   6.669
26387SOL     OW91222   9.430   1.507   5.917
26387SOL    HW191223   9.457   1.413   5.937
26387SOL    HW291224   9.455   1.529   5.823
26388SOL     OW91225   9.444   1.650   6.154
26388SOL    HW191226   9.360   1.701   6.172
26388SOL    HW291227   9.435   1.599   6.069
26389SOL     OW91228   9.321   0.839   5.729
26389SOL    HW191229   9.381   0.786   5.789
26389SOL    HW291230   9.227   0.807   5.741
26390SOL     OW91231   9.489   0.626   7.059
26390SOL    HW191232   9.509   0.531   7.034
26390SOL    HW291233   9.452   0.629   7.152
26391SOL     OW91234   9.519   1.059   6.409
26391SOL    HW191235   9.442   1.121   6.402
26391SOL    HW291236   9.556   1.060   6.502
26392SOL     OW91237   9.263   0.312   6.011
26392SOL    HW191238   9.323   0.263   5.949
26392SOL    HW291239   9.318   0.364   6.076
26393SOL     OW91240  10.050   0.777   6.860
26393SOL    HW191241  10.052   0.863   6.911
26393SOL    HW291242  10.107   0.709   6.907
26394SOL     OW91243   9.590   0.541   6.464
26394SOL    HW191244   9.646   0.534   6.381
26394SOL    HW291245   9.647   0.519   6.544
26395SOL     OW91246   9.587   1.739   5.735
26395SOL    HW191247   9.679   1.769   5.710
26395SOL    HW291248   9.562   1.778   5.824
26396SOL     OW91249   9.268   1.156   6.484
26396SOL    HW191250   9.178   1.172   6.445
26396SOL    HW291251   9.266   1.072   6.539
26397SOL     OW91252   9.983   1.506   6.975
26397SOL    HW191253   9.920   1.584   6.982
26397SOL    HW291254   9.951   1.444   6.903
26398SOL     OW91255   9.254   1.715   7.184
26398SOL    HW191256   9.326   1.701   7.252
26398SOL    HW291257   9.165   1.718   7.229
26399SOL     OW91258   9.422   0.371   6.208
26399SOL    HW191259   9.365   0.426   6.269
26399SOL    HW291260   9.492   0.323   6.261
26400SOL     OW91261   9.559   0.562   5.806
26400SOL    HW191262   9.631   0.591   5.743
26400SOL    HW291263   9.515   0.642   5.846
26401SOL     OW91264   9.605   0.809   6.255
26401SOL    HW191265   9.597   0.907   6.273
26401SOL    HW291266   9.689   0.775   6.296
26402SOL     OW91267   9.451   0.289   5.770
26402SOL    HW191268   9.495   0.258   5.687
26402SOL    HW291269   9.452   0.389   5.774
26403SOL     OW91270   9.304   0.541   6.381
26403SOL    HW191271   9.268   0.634   6.373
26403SOL    HW291272   9.387   0.542   6.437
26404SOL     OW91273  10.100   0.639   5.726
26404SOL    HW191274  10.190   0.640   5.681
26404SOL    HW291275  10.077   0.545   5.751
26405SOL     OW91276   9.300   0.071   5.680
26405SOL    HW191277   9.363  -0.006   5.688
26405SOL    HW291278   9.320   0.139   5.751
26406SOL     OW91279   9.573   1.046   6.681
26406SOL    HW191280   9.584   1.001   6.770
26406SOL    HW291281   9.600   1.142   6.688
26407SOL     OW91282   9.854   0.659   6.703
26407SOL    HW191283   9.929   0.702   6.752
26407SOL    HW291284   9.787   0.624   6.769
26408SOL     OW91285   9.846   0.108   6.447
26408SOL    HW191286   9.774   0.041   6.433
26408SOL    HW291287   9.928   0.062   6.482
26409SOL     OW91288   9.272   0.975   6.687
26409SOL    HW191289   9.361   0.953   6.727
26409SOL    HW291290   9.217   0.891   6.683
26410SOL     OW91291   9.500   0.020   5.967
26410SOL    HW191292   9.538   0.108   5.994
26410SOL    HW291293   9.423  -0.004   6.027
26411SOL     OW91294   9.916   0.637   7.295
26411SOL    HW191295   9.868   0.688   7.224
26411SOL    HW291296  10.009   0.616   7.265
26412SOL     OW91297   9.354   0.813   6.394
26412SOL    HW191298   9.449   0.804   6.362
26412SOL    HW291299   9.320   0.905   6.373
26413SOL     OW91300   9.291   0.930   7.321
26413SOL    HW191301   9.206   0.881   7.302
26413SOL    HW291302   9.318   0.917   7.416
26414SOL     OW91303   9.755   0.874   5.893
26414SOL    HW191304   9.705   0.939   5.837
26414SOL    HW291305   9.697   0.795   5.912
26415SOL     OW91306   9.229   0.047   6.088
26415SOL    HW191307   9.142   0.034   6.041
26415SOL    HW291308   9.237   0.142   6.118
26416SOL     OW91309   9.676   1.513   6.217
26416SOL    HW191310   9.674   1.414   6.230
26416SOL    HW291311   9.585   1.546   6.194
26417SOL     OW91312   9.526   1.760   7.304
26417SOL    HW191313   9.569   1.844   7.270
26417SOL    HW291314   9.551   1.747   7.400
26418SOL     OW91315   9.386   1.296   7.175
26418SOL    HW191316   9.365   1.201   7.148
26418SOL    HW291317   9.317   1.357   7.137
26419SOL     OW91318   9.767   0.532   6.264
26419SOL    HW191319   9.805   0.443   6.290
26419SOL    HW291320   9.834   0.582   6.209
26420SOL     OW91321   9.887   1.681   5.739
26420SOL    HW191322   9.862   1.776   5.723
26420SOL    HW291323   9.854   1.653   5.829
26421SOL     OW91324   9.791   0.733   7.063
26421SOL    HW191325   9.697   0.703   7.044
26421SOL    HW291326   9.800   0.830   7.040
26422SOL     OW91327  10.016   0.515   6.544
26422SOL    HW191328  10.108   0.543   6.571
26422SOL    HW291329   9.948   0.566   6.598
26423SOL     OW91330   9.869   1.366   6.771
26423SOL    HW191331   9.782   1.365   6.722
26423SOL    HW291332   9.935   1.306   6.724
26424SOL     OW91333   9.435   0.708   6.685
26424SOL    HW191334   9.473   0.767   6.756
26424SOL    HW291335   9.418   0.761   6.603
26425SOL     OW91336   9.790   1.550   7.805
26425SOL    HW191337   9.746   1.559   7.894
26425SOL    HW291338   9.861   1.480   7.809
26426SOL     OW91339   9.808   0.083   7.527
26426SOL    HW191340   9.896   0.111   7.488
26426SOL    HW291341   9.736   0.146   7.497
26427SOL     OW91342   9.717   1.223   8.100
26427SOL    HW191343   9.650   1.177   8.159
26427SOL    HW291344   9.809   1.191   8.123
26428SOL     OW91345   9.647   1.392   7.584
26428SOL    HW191346   9.711   1.408   7.509
26428SOL    HW291347   9.671   1.450   7.662
26429SOL     OW91348   9.798   0.348   8.394
26429SOL    HW191349   9.874   0.413   8.390
26429SOL    HW291350   9.828   0.259   8.361
26430SOL     OW91351   9.495   0.774   7.812
26430SOL    HW191352   9.510   0.708   7.886
26430SOL    HW291353   9.445   0.853   7.847
26431SOL     OW91354   9.409   1.036   8.956
26431SOL    HW191355   9.505   1.051   8.974
26431SOL    HW291356   9.371   0.974   9.025
26432SOL     OW91357   9.735   0.681   7.499
26432SOL    HW191358   9.695   0.760   7.452
26432SOL    HW291359   9.824   0.660   7.459
26433SOL     OW91360   9.908   1.605   8.197
26433SOL    HW191361   9.981   1.628   8.133
26433SOL    HW291362   9.837   1.552   8.151
26434SOL     OW91363   9.585   1.258   7.849
26434SOL    HW191364   9.631   1.232   7.934
26434SOL    HW291365   9.605   1.190   7.778
26435SOL     OW91366   9.595   0.518   8.655
26435SOL    HW191367   9.585   0.431   8.607
26435SOL    HW291368   9.531   0.585   8.618
26436SOL     OW91369   9.630   0.290   7.814
26436SOL    HW191370   9.584   0.330   7.893
26436SOL    HW291371   9.578   0.309   7.732
26437SOL     OW91372   9.976   0.039   9.092
26437SOL    HW191373   9.983  -0.055   9.059
26437SOL    HW291374  10.033   0.049   9.174
26438SOL     OW91375   9.964   1.148   9.130
26438SOL    HW191376   9.935   1.225   9.187
26438SOL    HW291377   9.974   1.067   9.188
26439SOL     OW91378   9.257   0.622   7.909
26439SOL    HW191379   9.259   0.573   7.996
26439SOL    HW291380   9.259   0.721   7.927
26440SOL     OW91381   9.578   0.210   8.230
26440SOL    HW191382   9.630   0.250   8.305
26440SOL    HW291383   9.631   0.137   8.187
26441SOL     OW91384   9.562   0.258   8.564
26441SOL    HW191385   9.527   0.165   8.564
26441SOL    HW291386   9.649   0.261   8.515
26442SOL     OW91387   9.430   1.507   7.763
26442SOL    HW191388   9.457   1.413   7.783
26442SOL    HW291389   9.455   1.529   7.669
26443SOL     OW91390   9.444   1.650   8.000
26443SOL    HW191391   9.360   1.701   8.018
26443SOL    HW291392   9.435   1.599   7.915
26444SOL     OW91393   9.717   0.947   7.402
26444SOL    HW191394   9.686   0.981   7.314
26444SOL    HW291395   9.721   1.022   7.468
26445SOL     OW91396   9.321   0.839   7.575
26445SOL    HW191397   9.381   0.786   7.635
26445SOL    HW291398   9.227   0.807   7.587
26446SOL     OW91399  10.089   1.824   8.423
26446SOL    HW191400  10.135   1.757   8.365
26446SOL    HW291401  10.015   1.780   8.473
26447SOL     OW91402   9.489   0.626   8.905
26447SOL    HW191403   9.509   0.531   8.880
26447SOL    HW291404   9.452   0.629   8.998
26448SOL     OW91405   9.371   0.281   8.795
26448SOL    HW191406   9.443   0.291   8.726
26448SOL    HW291407   9.282   0.280   8.750
26449SOL     OW91408   9.519   1.059   8.255
26449SOL    HW191409   9.442   1.121   8.248
26449SOL    HW291410   9.556   1.060   8.348
26450SOL     OW91411  10.050   0.777   8.706
26450SOL    HW191412  10.052   0.863   8.757
26450SOL    HW291413  10.107   0.709   8.753
26451SOL     OW91414   9.287   1.804   8.777
26451SOL    HW191415   9.295   1.904   8.775
26451SOL    HW291416   9.263   1.775   8.870
26452SOL     OW91417   9.590   0.541   8.310
26452SOL    HW191418   9.646   0.534   8.227
26452SOL    HW291419   9.647   0.519   8.390
26453SOL     OW91420   9.587   1.739   7.581
26453SOL    HW191421   9.679   1.769   7.556
26453SOL    HW291422   9.562   1.778   7.670
26454SOL     OW91423   9.268   1.156   8.330
26454SOL    HW191424   9.178   1.172   8.291
26454SOL    HW291425   9.266   1.072   8.385
26455SOL     OW91426   9.264   1.197   7.874
26455SOL    HW191427   9.342   1.255   7.898
26455SOL    HW291428   9.283   1.148   7.789
26456SOL     OW91429   9.670   1.112   9.014
26456SOL    HW191430   9.689   1.136   8.919
26456SOL    HW291431   9.663   1.195   9.069
26457SOL     OW91432   9.331   1.402   8.488
26457SOL    HW191433   9.300   1.328   8.429
26457SOL    HW291434   9.263   1.420   8.559
26458SOL     OW91435   9.983   1.506   8.821
26458SOL    HW191436   9.920   1.584   8.828
26458SOL    HW291437   9.951   1.444   8.749
26459SOL     OW91438   9.374   0.301   9.086
26459SOL    HW191439   9.392   0.290   8.988
26459SOL    HW291440   9.276   0.297   9.103
26460SOL     OW91441   9.422   0.371   8.054
26460SOL    HW191442   9.365   0.426   8.115
26460SOL    HW291443   9.492   0.323   8.107
26461SOL     OW91444   9.559   0.562   7.652
26461SOL    HW191445   9.631   0.591   7.589
26461SOL    HW291446   9.515   0.642   7.692
26462SOL     OW91447   9.674   1.825   8.118
26462SOL    HW191448   9.598   1.791   8.063
26462SOL    HW291449   9.760   1.788   8.083
26463SOL     OW91450   9.599   1.334   8.563
26463SOL    HW191451   9.611   1.350   8.660
26463SOL    HW291452   9.512   1.374   8.533
26464SOL     OW91453   9.605   0.809   8.101
26464SOL    HW191454   9.597   0.907   8.119
26464SOL    HW291455   9.689   0.775   8.142
26465SOL     OW91456   9.304   0.541   8.227
26465SOL    HW191457   9.268   0.634   8.219
26465SOL    HW291458   9.387   0.542   8.283
26466SOL     OW91459   9.739   1.128   7.613
26466SOL    HW191460   9.839   1.128   7.624
26466SOL    HW291461   9.708   1.221   7.592
26467SOL     OW91462  10.100   0.639   7.572
26467SOL    HW191463  10.190   0.640   7.527
26467SOL    HW291464  10.077   0.545   7.597
26468SOL     OW91465   9.573   1.046   8.527
26468SOL    HW191466   9.584   1.001   8.616
26468SOL    HW291467   9.600   1.142   8.534
26469SOL     OW91468   9.854   0.659   8.549
26469SOL    HW191469   9.929   0.702   8.598
26469SOL    HW291470   9.787   0.624   8.615
26470SOL     OW91471   9.997   1.028   8.866
26470SOL    HW191472  10.066   1.080   8.816
26470SOL    HW291473   9.992   1.061   8.961
26471SOL     OW91474   9.846   0.108   8.293
26471SOL    HW191475   9.774   0.041   8.279
26471SOL    HW291476   9.928   0.062   8.328
26472SOL     OW91477   9.546   1.773   8.660
26472SOL    HW191478   9.526   1.755   8.564
26472SOL    HW291479   9.473   1.735   8.717
26473SOL     OW91480   9.272   0.975   8.533
26473SOL    HW191481   9.361   0.953   8.573
26473SOL    HW291482   9.217   0.891   8.529
26474SOL     OW91483   9.500   0.020   7.813
26474SOL    HW191484   9.538   0.108   7.840
26474SOL    HW291485   9.423  -0.004   7.873
26475SOL     OW91486   9.916   0.637   9.141
26475SOL    HW191487   9.868   0.688   9.070
26475SOL    HW291488  10.009   0.616   9.111
26476SOL     OW91489   9.322   1.107   7.633
26476SOL    HW191490   9.312   1.010   7.612
26476SOL    HW291491   9.375   1.152   7.561
26477SOL     OW91492   9.523   0.875   8.762
26477SOL    HW191493   9.487   0.785   8.788
26477SOL    HW291494   9.484   0.945   8.822
26478SOL     OW91495  10.025   1.501   7.420
26478SOL    HW191496  10.000   1.578   7.479
26478SOL    HW291497  10.089   1.441   7.468
26479SOL     OW91498   9.843   1.708   8.454
26479SOL    HW191499   9.863   1.678   8.361
26479SOL    HW291500   9.768   1.653   8.491
26480SOL     OW91501   9.354   0.813   8.240
26480SOL    HW191502   9.449   0.804   8.208
26480SOL    HW291503   9.320   0.905   8.219
26481SOL     OW91504   9.291   0.930   9.167
26481SOL    HW191505   9.206   0.881   9.148
26481SOL    HW291506   9.318   0.917   9.262
26482SOL     OW91507   9.691   0.457   9.167
26482SOL    HW191508   9.727   0.404   9.090
26482SOL    HW291509   9.752   0.534   9.185
26483SOL     OW91510   9.755   0.874   7.739
26483SOL    HW191511   9.705   0.939   7.683
26483SOL    HW291512   9.697   0.795   7.758
26484SOL     OW91513   9.676   1.513   8.063
26484SOL    HW191514   9.674   1.414   8.076
26484SOL    HW291515   9.585   1.546   8.040
26485SOL     OW91516   9.475   1.661   8.425
26485SOL    HW191517   9.417   1.581   8.439
26485SOL    HW291518   9.499   1.668   8.328
26486SOL     OW91519   9.767   0.532   8.110
26486SOL    HW191520   9.805   0.443   8.136
26486SOL    HW291521   9.834   0.582   8.055
26487SOL     OW91522   9.755   1.090   8.764
26487SOL    HW191523   9.851   1.070   8.784
26487SOL    HW291524   9.744   1.188   8.746
26488SOL     OW91525   9.460   1.242   7.425
26488SOL    HW191526   9.452   1.254   7.326
26488SOL    HW291527   9.519   1.313   7.463
26489SOL     OW91528   9.887   1.681   7.585
26489SOL    HW191529   9.862   1.776   7.569
26489SOL    HW291530   9.854   1.653   7.675
26490SOL     OW91531   9.804   1.720   8.809
26490SOL    HW191532   9.853   1.800   8.773
26490SOL    HW291533   9.712   1.718   8.770
26491SOL     OW91534   9.447   0.601   9.171
26491SOL    HW191535   9.464   0.502   9.176
26491SOL    HW291536   9.511   0.649   9.232
26492SOL     OW91537   9.282   0.935   7.971
26492SOL    HW191538   9.289   1.034   7.958
26492SOL    HW291539   9.191   0.912   8.005
26493SOL     OW91540   9.791   0.733   8.909
26493SOL    HW191541   9.697   0.703   8.890
26493SOL    HW291542   9.800   0.830   8.886
26494SOL     OW91543  10.016   0.515   8.390
26494SOL    HW191544  10.108   0.543   8.417
26494SOL    HW291545   9.948   0.566   8.444
26495SOL     OW91546   9.869   1.366   8.617
26495SOL    HW191547   9.782   1.365   8.568
26495SOL    HW291548   9.935   1.306   8.570
26496SOL     OW91549   9.435   0.708   8.531
26496SOL    HW191550   9.473   0.767   8.602
26496SOL    HW291551   9.418   0.761   8.449
26497SOL     OW91552   9.606   1.354   8.829
26497SOL    HW191553   9.625   1.442   8.873
26497SOL    HW291554   9.511   1.328   8.847
26498SOL     OW91555   9.580   0.196   9.246
26498SOL    HW191556   9.493   0.193   9.197
26498SOL    HW291557   9.631   0.278   9.218
26499SOL     OW91558   9.808   0.083   9.372
26499SOL    HW191559   9.896   0.111   9.333
26499SOL    HW291560   9.736   0.146   9.342
26500SOL     OW91561   9.717   1.223   9.945
26500SOL    HW191562   9.650   1.177  10.004
26500SOL    HW291563   9.809   1.191   9.968
26501SOL     OW91564   9.798   0.348  10.239
26501SOL    HW191565   9.874   0.413  10.235
26501SOL    HW291566   9.828   0.259  10.206
26502SOL     OW91567   9.495   0.774   9.657
26502SOL    HW191568   9.510   0.708   9.731
26502SOL    HW291569   9.445   0.853   9.692
26503SOL     OW91570   9.735   0.681   9.344
26503SOL    HW191571   9.695   0.760   9.297
26503SOL    HW291572   9.824   0.660   9.304
26504SOL     OW91573   9.585   1.258   9.694
26504SOL    HW191574   9.631   1.232   9.779
26504SOL    HW291575   9.605   1.190   9.623
26505SOL     OW91576   9.630   0.290   9.659
26505SOL    HW191577   9.584   0.330   9.738
26505SOL    HW291578   9.578   0.309   9.577
26506SOL     OW91579   9.257   0.622   9.754
26506SOL    HW191580   9.259   0.573   9.841
26506SOL    HW291581   9.259   0.721   9.772
26507SOL     OW91582   9.430   1.507   9.608
26507SOL    HW191583   9.457   1.413   9.628
26507SOL    HW291584   9.455   1.529   9.514
26508SOL     OW91585   9.444   1.650   9.845
26508SOL    HW191586   9.360   1.701   9.863
26508SOL    HW291587   9.435   1.599   9.760
26509SOL     OW91588   9.717   0.947   9.247
26509SOL    HW191589   9.686   0.981   9.159
26509SOL    HW291590   9.721   1.022   9.313
26510SOL     OW91591   9.321   0.839   9.420
26510SOL    HW191592   9.381   0.786   9.480
26510SOL    HW291593   9.227   0.807   9.432
26511SOL     OW91594   9.263   0.312   9.702
26511SOL    HW191595   9.323   0.263   9.640
26511SOL    HW291596   9.318   0.364   9.767
26512SOL     OW91597   9.264   1.197   9.719
26512SOL    HW191598   9.342   1.255   9.743
26512SOL    HW291599   9.283   1.148   9.634
26513SOL     OW91600   9.945   0.308   9.956
26513SOL    HW191601   9.934   0.250  10.037
26513SOL    HW291602  10.030   0.360   9.964
26514SOL     OW91603   9.559   0.562   9.497
26514SOL    HW191604   9.631   0.591   9.434
26514SOL    HW291605   9.515   0.642   9.537
26515SOL     OW91606   9.451   0.289   9.461
26515SOL    HW191607   9.495   0.258   9.378
26515SOL    HW291608   9.452   0.389   9.465
26516SOL     OW91609   9.304   0.541  10.072
26516SOL    HW191610   9.268   0.634  10.064
26516SOL    HW291611   9.387   0.542  10.128
26517SOL     OW91612   9.739   1.128   9.458
26517SOL    HW191613   9.839   1.128   9.469
26517SOL    HW291614   9.708   1.221   9.437
26518SOL     OW91615  10.100   0.639   9.417
26518SOL    HW191616  10.190   0.640   9.372
26518SOL    HW291617  10.077   0.545   9.442
26519SOL     OW91618   9.300   0.071   9.371
26519SOL    HW191619   9.363  -0.006   9.379
26519SOL    HW291620   9.320   0.139   9.442
26520SOL     OW91621   9.500   0.020   9.658
26520SOL    HW191622   9.538   0.108   9.685
26520SOL    HW291623   9.423  -0.004   9.718
26521SOL     OW91624   9.322   1.107   9.478
26521SOL    HW191625   9.312   1.010   9.457
26521SOL    HW291626   9.375   1.152   9.406
26522SOL     OW91627  10.025   1.501   9.265
26522SOL    HW191628  10.000   1.578   9.324
26522SOL    HW291629  10.089   1.441   9.313
26523SOL     OW91630   9.986   1.119  10.016
26523SOL    HW191631  10.075   1.165  10.016
26523SOL    HW291632   9.979   1.059  10.095
26524SOL     OW91633   9.755   0.874   9.584
26524SOL    HW191634   9.705   0.939   9.528
26524SOL    HW291635   9.697   0.795   9.603
26525SOL     OW91636   9.229   0.047   9.779
26525SOL    HW191637   9.142   0.034   9.732
26525SOL    HW291638   9.237   0.142   9.809
26526SOL     OW91639   9.676   1.513   9.908
26526SOL    HW191640   9.674   1.414   9.921
26526SOL    HW291641   9.585   1.546   9.885
26527SOL     OW91642   9.767   0.532   9.955
26527SOL    HW191643   9.805   0.443   9.981
26527SOL    HW291644   9.834   0.582   9.900
26528SOL     OW91645   9.282   0.935   9.816
26528SOL    HW191646   9.289   1.034   9.803
26528SOL    HW291647   9.191   0.912   9.850
26529SOL     OW91648  10.016   0.515  10.235
26529SOL    HW191649  10.108   0.543  10.262
26529SOL    HW291650   9.948   0.566  10.289
26530SOL     OW91651   9.790   3.395   0.423
26530SOL    HW191652   9.746   3.404   0.512
26530SOL    HW291653   9.861   3.325   0.427
26531SOL     OW91654   9.717   3.068   0.718
26531SOL    HW191655   9.650   3.022   0.777
26531SOL    HW291656   9.809   3.036   0.741
26532SOL     OW91657   9.798   2.193   1.012
26532SOL    HW191658   9.874   2.258   1.008
26532SOL    HW291659   9.828   2.104   0.979
26533SOL     OW91660   9.495   2.619   0.430
26533SOL    HW191661   9.510   2.553   0.504
26533SOL    HW291662   9.445   2.698   0.465
26534SOL     OW91663   9.409   2.881   1.574
26534SOL    HW191664   9.505   2.896   1.592
26534SOL    HW291665   9.371   2.819   1.643
26535SOL     OW91666   9.908   3.450   0.815
26535SOL    HW191667   9.981   3.473   0.751
26535SOL    HW291668   9.837   3.397   0.769
26536SOL     OW91669   9.585   3.103   0.467
26536SOL    HW191670   9.631   3.077   0.552
26536SOL    HW291671   9.605   3.035   0.396
26537SOL     OW91672   9.595   2.363   1.273
26537SOL    HW191673   9.585   2.276   1.225
26537SOL    HW291674   9.531   2.430   1.236
26538SOL     OW91675   9.630   2.135   0.432
26538SOL    HW191676   9.584   2.175   0.511
26538SOL    HW291677   9.578   2.154   0.350
26539SOL     OW91678   9.964   2.993   1.748
26539SOL    HW191679   9.935   3.070   1.805
26539SOL    HW291680   9.974   2.912   1.806
26540SOL     OW91681   9.257   2.467   0.527
26540SOL    HW191682   9.259   2.418   0.614
26540SOL    HW291683   9.259   2.566   0.545
26541SOL     OW91684   9.578   2.055   0.848
26541SOL    HW191685   9.630   2.095   0.923
26541SOL    HW291686   9.631   1.982   0.805
26542SOL     OW91687   9.562   2.103   1.182
26542SOL    HW191688   9.527   2.010   1.182
26542SOL    HW291689   9.649   2.106   1.133
26543SOL     OW91690   9.430   3.352   0.381
26543SOL    HW191691   9.457   3.258   0.401
26543SOL    HW291692   9.455   3.374   0.287
26544SOL     OW91693   9.444   3.495   0.618
26544SOL    HW191694   9.360   3.546   0.636
26544SOL    HW291695   9.435   3.444   0.533
26545SOL     OW91696   9.321   2.684   0.193
26545SOL    HW191697   9.381   2.631   0.253
26545SOL    HW291698   9.227   2.652   0.205
26546SOL     OW91699  10.089   3.669   1.041
26546SOL    HW191700  10.135   3.602   0.983
26546SOL    HW291701  10.015   3.625   1.091
26547SOL     OW91702   9.489   2.471   1.523
26547SOL    HW191703   9.509   2.376   1.498
26547SOL    HW291704   9.452   2.474   1.616
26548SOL     OW91705   9.371   2.126   1.413
26548SOL    HW191706   9.443   2.136   1.344
26548SOL    HW291707   9.282   2.125   1.368
26549SOL     OW91708   9.519   2.904   0.873
26549SOL    HW191709   9.442   2.966   0.866
26549SOL    HW291710   9.556   2.905   0.966
26550SOL     OW91711   9.263   2.157   0.475
26550SOL    HW191712   9.323   2.108   0.413
26550SOL    HW291713   9.318   2.209   0.540
26551SOL     OW91714  10.050   2.622   1.324
26551SOL    HW191715  10.052   2.708   1.375
26551SOL    HW291716  10.107   2.554   1.371
26552SOL     OW91717   9.287   3.649   1.395
26552SOL    HW191718   9.295   3.749   1.393
26552SOL    HW291719   9.263   3.620   1.488
26553SOL     OW91720   9.590   2.386   0.928
26553SOL    HW191721   9.646   2.379   0.845
26553SOL    HW291722   9.647   2.364   1.008
26554SOL     OW91723   9.587   3.584   0.199
26554SOL    HW191724   9.679   3.614   0.174
26554SOL    HW291725   9.562   3.623   0.288
26555SOL     OW91726   9.268   3.001   0.948
26555SOL    HW191727   9.178   3.017   0.909
26555SOL    HW291728   9.266   2.917   1.003
26556SOL     OW91729   9.264   3.042   0.492
26556SOL    HW191730   9.342   3.100   0.516
26556SOL    HW291731   9.283   2.993   0.407
26557SOL     OW91732   9.794   3.225   1.800
26557SOL    HW191733   9.755   3.288   1.733
26557SOL    HW291734   9.877   3.265   1.840
26558SOL     OW91735   9.670   2.957   1.632
26558SOL    HW191736   9.689   2.981   1.537
26558SOL    HW291737   9.663   3.040   1.687
26559SOL     OW91738   9.331   3.247   1.106
26559SOL    HW191739   9.300   3.173   1.047
26559SOL    HW291740   9.263   3.265   1.177
26560SOL     OW91741   9.983   3.351   1.439
26560SOL    HW191742   9.920   3.429   1.446
26560SOL    HW291743   9.951   3.289   1.367
26561SOL     OW91744   9.374   2.146   1.704
26561SOL    HW191745   9.392   2.135   1.606
26561SOL    HW291746   9.276   2.142   1.721
26562SOL     OW91747   9.254   3.560   1.648
26562SOL    HW191748   9.326   3.546   1.716
26562SOL    HW291749   9.165   3.563   1.693
26563SOL     OW91750   9.422   2.216   0.672
26563SOL    HW191751   9.365   2.271   0.733
26563SOL    HW291752   9.492   2.168   0.725
26564SOL     OW91753   9.674   3.670   0.736
26564SOL    HW191754   9.598   3.636   0.681
26564SOL    HW291755   9.760   3.633   0.701
26565SOL     OW91756   9.599   3.179   1.181
26565SOL    HW191757   9.611   3.195   1.278
26565SOL    HW291758   9.512   3.219   1.151
26566SOL     OW91759   9.605   2.654   0.719
26566SOL    HW191760   9.597   2.752   0.737
26566SOL    HW291761   9.689   2.620   0.760
26567SOL     OW91762   9.451   2.134   0.234
26567SOL    HW191763   9.495   2.103   0.151
26567SOL    HW291764   9.452   2.234   0.238
26568SOL     OW91765   9.304   2.386   0.845
26568SOL    HW191766   9.268   2.479   0.837
26568SOL    HW291767   9.387   2.387   0.901
26569SOL     OW91768   9.739   2.973   0.231
26569SOL    HW191769   9.839   2.973   0.242
26569SOL    HW291770   9.708   3.066   0.210
26570SOL     OW91771   9.300   1.916   0.144
26570SOL    HW191772   9.363   1.839   0.152
26570SOL    HW291773   9.320   1.984   0.215
26571SOL     OW91774   9.573   2.891   1.145
26571SOL    HW191775   9.584   2.846   1.234
26571SOL    HW291776   9.600   2.987   1.152
26572SOL     OW91777   9.854   2.504   1.167
26572SOL    HW191778   9.929   2.547   1.216
26572SOL    HW291779   9.787   2.469   1.233
26573SOL     OW91780   9.997   2.873   1.484
26573SOL    HW191781  10.066   2.925   1.434
26573SOL    HW291782   9.992   2.906   1.579
26574SOL     OW91783   9.846   1.953   0.911
26574SOL    HW191784   9.774   1.886   0.897
26574SOL    HW291785   9.928   1.907   0.946
26575SOL     OW91786   9.546   3.618   1.278
26575SOL    HW191787   9.526   3.600   1.182
26575SOL    HW291788   9.473   3.580   1.335
26576SOL     OW91789   9.272   2.820   1.151
26576SOL    HW191790   9.361   2.798   1.191
26576SOL    HW291791   9.217   2.736   1.147
26577SOL     OW91792   9.500   1.865   0.431
26577SOL    HW191793   9.538   1.953   0.458
26577SOL    HW291794   9.423   1.841   0.491
26578SOL     OW91795   9.916   2.482   1.759
26578SOL    HW191796   9.868   2.533   1.688
26578SOL    HW291797  10.009   2.461   1.729
26579SOL     OW91798   9.322   2.952   0.251
26579SOL    HW191799   9.312   2.855   0.230
26579SOL    HW291800   9.375   2.997   0.179
26580SOL     OW91801   9.523   2.720   1.380
26580SOL    HW191802   9.487   2.630   1.406
26580SOL    HW291803   9.484   2.790   1.440
26581SOL     OW91804   9.843   3.553   1.072
26581SOL    HW191805   9.863   3.523   0.979
26581SOL    HW291806   9.768   3.498   1.109
26582SOL     OW91807   9.354   2.658   0.858
26582SOL    HW191808   9.449   2.649   0.826
26582SOL    HW291809   9.320   2.750   0.837
26583SOL     OW91810   9.291   2.775   1.785
26583SOL    HW191811   9.206   2.726   1.766
26583SOL    HW291812   9.318   2.762   1.880
26584SOL     OW91813   9.691   2.302   1.785
26584SOL    HW191814   9.727   2.249   1.708
26584SOL    HW291815   9.752   2.379   1.803
26585SOL     OW91816   9.755   2.719   0.357
26585SOL    HW191817   9.705   2.784   0.301
26585SOL    HW291818   9.697   2.640   0.376
26586SOL     OW91819   9.229   1.892   0.552
26586SOL    HW191820   9.142   1.879   0.505
26586SOL    HW291821   9.237   1.987   0.582
26587SOL     OW91822   9.666   3.412   1.618
26587SOL    HW191823   9.608   3.477   1.667
26587SOL    HW291824   9.728   3.462   1.558
26588SOL     OW91825   9.676   3.358   0.681
26588SOL    HW191826   9.674   3.259   0.694
26588SOL    HW291827   9.585   3.391   0.658
26589SOL     OW91828   9.526   3.605   1.768
26589SOL    HW191829   9.569   3.689   1.734
26589SOL    HW291830   9.551   3.592   1.864
26590SOL     OW91831   9.386   3.141   1.639
26590SOL    HW191832   9.365   3.046   1.612
26590SOL    HW291833   9.317   3.202   1.601
26591SOL     OW91834   9.475   3.506   1.043
26591SOL    HW191835   9.417   3.426   1.057
26591SOL    HW291836   9.499   3.513   0.946
26592SOL     OW91837   9.767   2.377   0.728
26592SOL    HW191838   9.805   2.288   0.754
26592SOL    HW291839   9.834   2.427   0.673
26593SOL     OW91840   9.755   2.935   1.382
26593SOL    HW191841   9.851   2.915   1.402
26593SOL    HW291842   9.744   3.033   1.364
26594SOL     OW91843   9.460   3.087   0.043
26594SOL    HW191844   9.452   3.099  -0.056
26594SOL    HW291845   9.519   3.158   0.081
26595SOL     OW91846   9.887   3.526   0.203
26595SOL    HW191847   9.862   3.621   0.187
26595SOL    HW291848   9.854   3.498   0.293
26596SOL     OW91849   9.804   3.565   1.427
26596SOL    HW191850   9.853   3.645   1.391
26596SOL    HW291851   9.712   3.563   1.388
26597SOL     OW91852   9.447   2.446   1.789
26597SOL    HW191853   9.464   2.347   1.794
26597SOL    HW291854   9.511   2.494   1.850
26598SOL     OW91855   9.282   2.780   0.589
26598SOL    HW191856   9.289   2.879   0.576
26598SOL    HW291857   9.191   2.757   0.623
26599SOL     OW91858   9.791   2.578   1.527
26599SOL    HW191859   9.697   2.548   1.508
26599SOL    HW291860   9.800   2.675   1.504
26600SOL     OW91861  10.016   2.360   1.008
26600SOL    HW191862  10.108   2.388   1.035
26600SOL    HW291863   9.948   2.411   1.062
26601SOL     OW91864   9.869   3.211   1.235
26601SOL    HW191865   9.782   3.210   1.186
26601SOL    HW291866   9.935   3.151   1.188
26602SOL     OW91867   9.435   2.553   1.149
26602SOL    HW191868   9.473   2.612   1.220
26602SOL    HW291869   9.418   2.606   1.067
26603SOL     OW91870   9.606   3.199   1.447
26603SOL    HW191871   9.625   3.287   1.491
26603SOL    HW291872   9.511   3.173   1.465
26604SOL     OW91873   9.580   2.041   1.864
26604SOL    HW191874   9.493   2.038   1.815
26604SOL    HW291875   9.631   2.123   1.836
26605SOL     OW91876   9.790   3.395   2.268
26605SOL    HW191877   9.746   3.404   2.357
26605SOL    HW291878   9.861   3.325   2.272
26606SOL     OW91879   9.808   1.928   1.990
26606SOL    HW191880   9.896   1.956   1.951
26606SOL    HW291881   9.736   1.991   1.960
26607SOL     OW91882   9.717   3.068   2.563
26607SOL    HW191883   9.650   3.022   2.622
26607SOL    HW291884   9.809   3.036   2.586
26608SOL     OW91885   9.647   3.237   2.047
26608SOL    HW191886   9.711   3.253   1.972
26608SOL    HW291887   9.671   3.295   2.125
26609SOL     OW91888   9.798   2.193   2.857
26609SOL    HW191889   9.874   2.258   2.853
26609SOL    HW291890   9.828   2.104   2.824
26610SOL     OW91891   9.495   2.619   2.275
26610SOL    HW191892   9.510   2.553   2.349
26610SOL    HW291893   9.445   2.698   2.310
26611SOL     OW91894   9.409   2.881   3.419
26611SOL    HW191895   9.505   2.896   3.437
26611SOL    HW291896   9.371   2.819   3.488
26612SOL     OW91897   9.735   2.526   1.962
26612SOL    HW191898   9.695   2.605   1.915
26612SOL    HW291899   9.824   2.505   1.922
26613SOL     OW91900   9.908   3.450   2.660
26613SOL    HW191901   9.981   3.473   2.596
26613SOL    HW291902   9.837   3.397   2.614
26614SOL     OW91903   9.585   3.103   2.312
26614SOL    HW191904   9.631   3.077   2.397
26614SOL    HW291905   9.605   3.035   2.241
26615SOL     OW91906   9.595   2.363   3.118
26615SOL    HW191907   9.585   2.276   3.070
26615SOL    HW291908   9.531   2.430   3.081
26616SOL     OW91909   9.630   2.135   2.277
26616SOL    HW191910   9.584   2.175   2.356
26616SOL    HW291911   9.578   2.154   2.195
26617SOL     OW91912   9.964   2.993   3.593
26617SOL    HW191913   9.935   3.070   3.650
26617SOL    HW291914   9.974   2.912   3.651
26618SOL     OW91915   9.257   2.467   2.372
26618SOL    HW191916   9.259   2.418   2.459
26618SOL    HW291917   9.259   2.566   2.390
26619SOL     OW91918   9.578   2.055   2.693
26619SOL    HW191919   9.630   2.095   2.768
26619SOL    HW291920   9.631   1.982   2.650
26620SOL     OW91921   9.562   2.103   3.027
26620SOL    HW191922   9.527   2.010   3.027
26620SOL    HW291923   9.649   2.106   2.978
26621SOL     OW91924   9.717   2.792   1.865
26621SOL    HW191925   9.686   2.826   1.777
26621SOL    HW291926   9.721   2.867   1.931
26622SOL     OW91927   9.321   2.684   2.038
26622SOL    HW191928   9.381   2.631   2.098
26622SOL    HW291929   9.227   2.652   2.050
26623SOL     OW91930  10.089   3.669   2.886
26623SOL    HW191931  10.135   3.602   2.828
26623SOL    HW291932  10.015   3.625   2.936
26624SOL     OW91933   9.489   2.471   3.368
26624SOL    HW191934   9.509   2.376   3.343
26624SOL    HW291935   9.452   2.474   3.461
26625SOL     OW91936   9.371   2.126   3.258
26625SOL    HW191937   9.443   2.136   3.189
26625SOL    HW291938   9.282   2.125   3.213
26626SOL     OW91939   9.519   2.904   2.718
26626SOL    HW191940   9.442   2.966   2.711
26626SOL    HW291941   9.556   2.905   2.811
26627SOL     OW91942   9.263   2.157   2.320
26627SOL    HW191943   9.323   2.108   2.258
26627SOL    HW291944   9.318   2.209   2.385
26628SOL     OW91945  10.050   2.622   3.169
26628SOL    HW191946  10.052   2.708   3.220
26628SOL    HW291947  10.107   2.554   3.216
26629SOL     OW91948   9.287   3.649   3.240
26629SOL    HW191949   9.295   3.749   3.238
26629SOL    HW291950   9.263   3.620   3.333
26630SOL     OW91951   9.590   2.386   2.773
26630SOL    HW191952   9.646   2.379   2.690
26630SOL    HW291953   9.647   2.364   2.853
26631SOL     OW91954   9.268   3.001   2.793
26631SOL    HW191955   9.178   3.017   2.754
26631SOL    HW291956   9.266   2.917   2.848
26632SOL     OW91957   9.264   3.042   2.337
26632SOL    HW191958   9.342   3.100   2.361
26632SOL    HW291959   9.283   2.993   2.252
26633SOL     OW91960   9.794   3.225   3.645
26633SOL    HW191961   9.755   3.288   3.578
26633SOL    HW291962   9.877   3.265   3.685
26634SOL     OW91963   9.670   2.957   3.477
26634SOL    HW191964   9.689   2.981   3.382
26634SOL    HW291965   9.663   3.040   3.532
26635SOL     OW91966   9.331   3.247   2.951
26635SOL    HW191967   9.300   3.173   2.892
26635SOL    HW291968   9.263   3.265   3.022
26636SOL     OW91969   9.983   3.351   3.284
26636SOL    HW191970   9.920   3.429   3.291
26636SOL    HW291971   9.951   3.289   3.212
26637SOL     OW91972   9.374   2.146   3.549
26637SOL    HW191973   9.392   2.135   3.451
26637SOL    HW291974   9.276   2.142   3.566
26638SOL     OW91975   9.254   3.560   3.493
26638SOL    HW191976   9.326   3.546   3.561
26638SOL    HW291977   9.165   3.563   3.538
26639SOL     OW91978   9.422   2.216   2.517
26639SOL    HW191979   9.365   2.271   2.578
26639SOL    HW291980   9.492   2.168   2.570
26640SOL     OW91981   9.559   2.407   2.115
26640SOL    HW191982   9.631   2.436   2.052
26640SOL    HW291983   9.515   2.487   2.155
26641SOL     OW91984   9.674   3.670   2.581
26641SOL    HW191985   9.598   3.636   2.526
26641SOL    HW291986   9.760   3.633   2.546
26642SOL     OW91987   9.599   3.179   3.026
26642SOL    HW191988   9.611   3.195   3.123
26642SOL    HW291989   9.512   3.219   2.996
26643SOL     OW91990   9.605   2.654   2.564
26643SOL    HW191991   9.597   2.752   2.582
26643SOL    HW291992   9.689   2.620   2.605
26644SOL     OW91993   9.451   2.134   2.079
26644SOL    HW191994   9.495   2.103   1.996
26644SOL    HW291995   9.452   2.234   2.083
26645SOL     OW91996   9.304   2.386   2.690
26645SOL    HW191997   9.268   2.479   2.682
26645SOL    HW291998   9.387   2.387   2.746
26646SOL     OW91999   9.739   2.973   2.076
26646SOL    HW192000   9.839   2.973   2.087
26646SOL    HW292001   9.708   3.066   2.055
26647SOL     OW92002  10.100   2.484   2.035
26647SOL    HW192003  10.190   2.485   1.990
26647SOL    HW292004  10.077   2.390   2.060
26648SOL     OW92005   9.300   1.916   1.989
26648SOL    HW192006   9.363   1.839   1.997
26648SOL    HW292007   9.320   1.984   2.060
26649SOL     OW92008   9.573   2.891   2.990
26649SOL    HW192009   9.584   2.846   3.079
26649SOL    HW292010   9.600   2.987   2.997
26650SOL     OW92011   9.854   2.504   3.012
26650SOL    HW192012   9.929   2.547   3.061
26650SOL    HW292013   9.787   2.469   3.078
26651SOL     OW92014   9.997   2.873   3.329
26651SOL    HW192015  10.066   2.925   3.279
26651SOL    HW292016   9.992   2.906   3.424
26652SOL     OW92017   9.846   1.953   2.756
26652SOL    HW192018   9.774   1.886   2.742
26652SOL    HW292019   9.928   1.907   2.791
26653SOL     OW92020   9.546   3.618   3.123
26653SOL    HW192021   9.526   3.600   3.027
26653SOL    HW292022   9.473   3.580   3.180
26654SOL     OW92023   9.272   2.820   2.996
26654SOL    HW192024   9.361   2.798   3.036
26654SOL    HW292025   9.217   2.736   2.992
26655SOL     OW92026   9.500   1.865   2.276
26655SOL    HW192027   9.538   1.953   2.303
26655SOL    HW292028   9.423   1.841   2.336
26656SOL     OW92029   9.916   2.482   3.604
26656SOL    HW192030   9.868   2.533   3.533
26656SOL    HW292031  10.009   2.461   3.574
26657SOL     OW92032   9.322   2.952   2.096
26657SOL    HW192033   9.312   2.855   2.075
26657SOL    HW292034   9.375   2.997   2.024
26658SOL     OW92035   9.523   2.720   3.225
26658SOL    HW192036   9.487   2.630   3.251
26658SOL    HW292037   9.484   2.790   3.285
26659SOL     OW92038  10.025   3.346   1.883
26659SOL    HW192039  10.000   3.423   1.942
26659SOL    HW292040  10.089   3.286   1.931
26660SOL     OW92041   9.843   3.553   2.917
26660SOL    HW192042   9.863   3.523   2.824
26660SOL    HW292043   9.768   3.498   2.954
26661SOL     OW92044   9.354   2.658   2.703
26661SOL    HW192045   9.449   2.649   2.671
26661SOL    HW292046   9.320   2.750   2.682
26662SOL     OW92047   9.291   2.775   3.630
26662SOL    HW192048   9.206   2.726   3.611
26662SOL    HW292049   9.318   2.762   3.725
26663SOL     OW92050   9.691   2.302   3.630
26663SOL    HW192051   9.727   2.249   3.553
26663SOL    HW292052   9.752   2.379   3.648
26664SOL     OW92053   9.755   2.719   2.202
26664SOL    HW192054   9.705   2.784   2.146
26664SOL    HW292055   9.697   2.640   2.221
26665SOL     OW92056   9.229   1.892   2.397
26665SOL    HW192057   9.142   1.879   2.350
26665SOL    HW292058   9.237   1.987   2.427
26666SOL     OW92059   9.666   3.412   3.463
26666SOL    HW192060   9.608   3.477   3.512
26666SOL    HW292061   9.728   3.462   3.403
26667SOL     OW92062   9.676   3.358   2.526
26667SOL    HW192063   9.674   3.259   2.539
26667SOL    HW292064   9.585   3.391   2.503
26668SOL     OW92065   9.526   3.605   3.613
26668SOL    HW192066   9.569   3.689   3.579
26668SOL    HW292067   9.551   3.592   3.709
26669SOL     OW92068   9.386   3.141   3.484
26669SOL    HW192069   9.365   3.046   3.457
26669SOL    HW292070   9.317   3.202   3.446
26670SOL     OW92071   9.475   3.506   2.888
26670SOL    HW192072   9.417   3.426   2.902
26670SOL    HW292073   9.499   3.513   2.791
26671SOL     OW92074   9.767   2.377   2.573
26671SOL    HW192075   9.805   2.288   2.599
26671SOL    HW292076   9.834   2.427   2.518
26672SOL     OW92077   9.755   2.935   3.227
26672SOL    HW192078   9.851   2.915   3.247
26672SOL    HW292079   9.744   3.033   3.209
26673SOL     OW92080   9.460   3.087   1.888
26673SOL    HW192081   9.452   3.099   1.789
26673SOL    HW292082   9.519   3.158   1.926
26674SOL     OW92083   9.887   3.526   2.048
26674SOL    HW192084   9.862   3.621   2.032
26674SOL    HW292085   9.854   3.498   2.138
26675SOL     OW92086   9.804   3.565   3.272
26675SOL    HW192087   9.853   3.645   3.236
26675SOL    HW292088   9.712   3.563   3.233
26676SOL     OW92089   9.447   2.446   3.634
26676SOL    HW192090   9.464   2.347   3.639
26676SOL    HW292091   9.511   2.494   3.695
26677SOL     OW92092   9.282   2.780   2.434
26677SOL    HW192093   9.289   2.879   2.421
26677SOL    HW292094   9.191   2.757   2.468
26678SOL     OW92095   9.791   2.578   3.372
26678SOL    HW192096   9.697   2.548   3.353
26678SOL    HW292097   9.800   2.675   3.349
26679SOL     OW92098   9.869   3.211   3.080
26679SOL    HW192099   9.782   3.210   3.031
26679SOL    HW292100   9.935   3.151   3.033
26680SOL     OW92101   9.435   2.553   2.994
26680SOL    HW192102   9.473   2.612   3.065
26680SOL    HW292103   9.418   2.606   2.912
26681SOL     OW92104   9.606   3.199   3.292
26681SOL    HW192105   9.625   3.287   3.336
26681SOL    HW292106   9.511   3.173   3.310
26682SOL     OW92107   9.580   2.041   3.710
26682SOL    HW192108   9.493   2.038   3.661
26682SOL    HW292109   9.631   2.123   3.682
26683SOL     OW92110   9.790   3.395   4.114
26683SOL    HW192111   9.746   3.404   4.203
26683SOL    HW292112   9.861   3.325   4.118
26684SOL     OW92113   9.808   1.928   3.836
26684SOL    HW192114   9.896   1.956   3.797
26684SOL    HW292115   9.736   1.991   3.806
26685SOL     OW92116   9.717   3.068   4.409
26685SOL    HW192117   9.650   3.022   4.468
26685SOL    HW292118   9.809   3.036   4.432
26686SOL     OW92119   9.647   3.237   3.893
26686SOL    HW192120   9.711   3.253   3.818
26686SOL    HW292121   9.671   3.295   3.971
26687SOL     OW92122   9.798   2.193   4.703
26687SOL    HW192123   9.874   2.258   4.699
26687SOL    HW292124   9.828   2.104   4.670
26688SOL     OW92125   9.495   2.619   4.121
26688SOL    HW192126   9.510   2.553   4.195
26688SOL    HW292127   9.445   2.698   4.156
26689SOL     OW92128   9.409   2.881   5.265
26689SOL    HW192129   9.505   2.896   5.283
26689SOL    HW292130   9.371   2.819   5.334
26690SOL     OW92131   9.735   2.526   3.808
26690SOL    HW192132   9.695   2.605   3.761
26690SOL    HW292133   9.824   2.505   3.768
26691SOL     OW92134   9.908   3.450   4.506
26691SOL    HW192135   9.981   3.473   4.442
26691SOL    HW292136   9.837   3.397   4.460
26692SOL     OW92137   9.585   3.103   4.158
26692SOL    HW192138   9.631   3.077   4.243
26692SOL    HW292139   9.605   3.035   4.087
26693SOL     OW92140   9.595   2.363   4.964
26693SOL    HW192141   9.585   2.276   4.916
26693SOL    HW292142   9.531   2.430   4.927
26694SOL     OW92143   9.630   2.135   4.123
26694SOL    HW192144   9.584   2.175   4.202
26694SOL    HW292145   9.578   2.154   4.041
26695SOL     OW92146   9.964   2.993   5.439
26695SOL    HW192147   9.935   3.070   5.496
26695SOL    HW292148   9.974   2.912   5.497
26696SOL     OW92149   9.257   2.467   4.218
26696SOL    HW192150   9.259   2.418   4.305
26696SOL    HW292151   9.259   2.566   4.236
26697SOL     OW92152   9.578   2.055   4.539
26697SOL    HW192153   9.630   2.095   4.614
26697SOL    HW292154   9.631   1.982   4.496
26698SOL     OW92155   9.562   2.103   4.873
26698SOL    HW192156   9.527   2.010   4.873
26698SOL    HW292157   9.649   2.106   4.824
26699SOL     OW92158   9.430   3.352   4.072
26699SOL    HW192159   9.457   3.258   4.092
26699SOL    HW292160   9.455   3.374   3.978
26700SOL     OW92161   9.444   3.495   4.309
26700SOL    HW192162   9.360   3.546   4.327
26700SOL    HW292163   9.435   3.444   4.224
26701SOL     OW92164   9.717   2.792   3.711
26701SOL    HW192165   9.686   2.826   3.623
26701SOL    HW292166   9.721   2.867   3.777
26702SOL     OW92167   9.321   2.684   3.884
26702SOL    HW192168   9.381   2.631   3.944
26702SOL    HW292169   9.227   2.652   3.896
26703SOL     OW92170  10.089   3.669   4.732
26703SOL    HW192171  10.135   3.602   4.674
26703SOL    HW292172  10.015   3.625   4.782
26704SOL     OW92173   9.489   2.471   5.214
26704SOL    HW192174   9.509   2.376   5.189
26704SOL    HW292175   9.452   2.474   5.307
26705SOL     OW92176   9.371   2.126   5.104
26705SOL    HW192177   9.443   2.136   5.035
26705SOL    HW292178   9.282   2.125   5.059
26706SOL     OW92179   9.519   2.904   4.564
26706SOL    HW192180   9.442   2.966   4.557
26706SOL    HW292181   9.556   2.905   4.657
26707SOL     OW92182   9.263   2.157   4.166
26707SOL    HW192183   9.323   2.108   4.104
26707SOL    HW292184   9.318   2.209   4.231
26708SOL     OW92185  10.050   2.622   5.015
26708SOL    HW192186  10.052   2.708   5.066
26708SOL    HW292187  10.107   2.554   5.062
26709SOL     OW92188   9.287   3.649   5.086
26709SOL    HW192189   9.295   3.749   5.084
26709SOL    HW292190   9.263   3.620   5.179
26710SOL     OW92191   9.590   2.386   4.619
26710SOL    HW192192   9.646   2.379   4.536
26710SOL    HW292193   9.647   2.364   4.699
26711SOL     OW92194   9.587   3.584   3.890
26711SOL    HW192195   9.679   3.614   3.865
26711SOL    HW292196   9.562   3.623   3.979
26712SOL     OW92197   9.268   3.001   4.639
26712SOL    HW192198   9.178   3.017   4.600
26712SOL    HW292199   9.266   2.917   4.694
26713SOL     OW92200   9.264   3.042   4.183
26713SOL    HW192201   9.342   3.100   4.207
26713SOL    HW292202   9.283   2.993   4.098
26714SOL     OW92203   9.794   3.225   5.491
26714SOL    HW192204   9.755   3.288   5.424
26714SOL    HW292205   9.877   3.265   5.531
26715SOL     OW92206   9.670   2.957   5.323
26715SOL    HW192207   9.689   2.981   5.228
26715SOL    HW292208   9.663   3.040   5.378
26716SOL     OW92209   9.331   3.247   4.797
26716SOL    HW192210   9.300   3.173   4.738
26716SOL    HW292211   9.263   3.265   4.868
26717SOL     OW92212   9.983   3.351   5.130
26717SOL    HW192213   9.920   3.429   5.137
26717SOL    HW292214   9.951   3.289   5.058
26718SOL     OW92215   9.374   2.146   5.395
26718SOL    HW192216   9.392   2.135   5.297
26718SOL    HW292217   9.276   2.142   5.412
26719SOL     OW92218   9.254   3.560   5.339
26719SOL    HW192219   9.326   3.546   5.407
26719SOL    HW292220   9.165   3.563   5.384
26720SOL     OW92221   9.422   2.216   4.363
26720SOL    HW192222   9.365   2.271   4.424
26720SOL    HW292223   9.492   2.168   4.416
26721SOL     OW92224   9.559   2.407   3.961
26721SOL    HW192225   9.631   2.436   3.898
26721SOL    HW292226   9.515   2.487   4.001
26722SOL     OW92227   9.674   3.670   4.427
26722SOL    HW192228   9.598   3.636   4.372
26722SOL    HW292229   9.760   3.633   4.392
26723SOL     OW92230   9.599   3.179   4.872
26723SOL    HW192231   9.611   3.195   4.969
26723SOL    HW292232   9.512   3.219   4.842
26724SOL     OW92233   9.605   2.654   4.410
26724SOL    HW192234   9.597   2.752   4.428
26724SOL    HW292235   9.689   2.620   4.451
26725SOL     OW92236   9.451   2.134   3.925
26725SOL    HW192237   9.495   2.103   3.842
26725SOL    HW292238   9.452   2.234   3.929
26726SOL     OW92239   9.304   2.386   4.536
26726SOL    HW192240   9.268   2.479   4.528
26726SOL    HW292241   9.387   2.387   4.592
26727SOL     OW92242   9.739   2.973   3.922
26727SOL    HW192243   9.839   2.973   3.933
26727SOL    HW292244   9.708   3.066   3.901
26728SOL     OW92245  10.100   2.484   3.881
26728SOL    HW192246  10.190   2.485   3.836
26728SOL    HW292247  10.077   2.390   3.906
26729SOL     OW92248   9.300   1.916   3.835
26729SOL    HW192249   9.363   1.839   3.843
26729SOL    HW292250   9.320   1.984   3.906
26730SOL     OW92251   9.573   2.891   4.836
26730SOL    HW192252   9.584   2.846   4.925
26730SOL    HW292253   9.600   2.987   4.843
26731SOL     OW92254   9.854   2.504   4.858
26731SOL    HW192255   9.929   2.547   4.907
26731SOL    HW292256   9.787   2.469   4.924
26732SOL     OW92257   9.997   2.873   5.175
26732SOL    HW192258  10.066   2.925   5.125
26732SOL    HW292259   9.992   2.906   5.270
26733SOL     OW92260   9.846   1.953   4.602
26733SOL    HW192261   9.774   1.886   4.588
26733SOL    HW292262   9.928   1.907   4.637
26734SOL     OW92263   9.546   3.618   4.969
26734SOL    HW192264   9.526   3.600   4.873
26734SOL    HW292265   9.473   3.580   5.026
26735SOL     OW92266   9.272   2.820   4.842
26735SOL    HW192267   9.361   2.798   4.882
26735SOL    HW292268   9.217   2.736   4.838
26736SOL     OW92269   9.500   1.865   4.122
26736SOL    HW192270   9.538   1.953   4.149
26736SOL    HW292271   9.423   1.841   4.182
26737SOL     OW92272   9.916   2.482   5.450
26737SOL    HW192273   9.868   2.533   5.379
26737SOL    HW292274  10.009   2.461   5.420
26738SOL     OW92275   9.322   2.952   3.942
26738SOL    HW192276   9.312   2.855   3.921
26738SOL    HW292277   9.375   2.997   3.870
26739SOL     OW92278   9.523   2.720   5.071
26739SOL    HW192279   9.487   2.630   5.097
26739SOL    HW292280   9.484   2.790   5.131
26740SOL     OW92281  10.025   3.346   3.729
26740SOL    HW192282  10.000   3.423   3.788
26740SOL    HW292283  10.089   3.286   3.777
26741SOL     OW92284   9.843   3.553   4.763
26741SOL    HW192285   9.863   3.523   4.670
26741SOL    HW292286   9.768   3.498   4.800
26742SOL     OW92287   9.354   2.658   4.549
26742SOL    HW192288   9.449   2.649   4.517
26742SOL    HW292289   9.320   2.750   4.528
26743SOL     OW92290   9.291   2.775   5.476
26743SOL    HW192291   9.206   2.726   5.457
26743SOL    HW292292   9.318   2.762   5.571
26744SOL     OW92293   9.691   2.302   5.476
26744SOL    HW192294   9.727   2.249   5.399
26744SOL    HW292295   9.752   2.379   5.494
26745SOL     OW92296   9.755   2.719   4.048
26745SOL    HW192297   9.705   2.784   3.992
26745SOL    HW292298   9.697   2.640   4.067
26746SOL     OW92299   9.229   1.892   4.243
26746SOL    HW192300   9.142   1.879   4.196
26746SOL    HW292301   9.237   1.987   4.273
26747SOL     OW92302   9.666   3.412   5.309
26747SOL    HW192303   9.608   3.477   5.358
26747SOL    HW292304   9.728   3.462   5.249
26748SOL     OW92305   9.676   3.358   4.372
26748SOL    HW192306   9.674   3.259   4.385
26748SOL    HW292307   9.585   3.391   4.349
26749SOL     OW92308   9.526   3.605   5.459
26749SOL    HW192309   9.569   3.689   5.425
26749SOL    HW292310   9.551   3.592   5.555
26750SOL     OW92311   9.386   3.141   5.330
26750SOL    HW192312   9.365   3.046   5.303
26750SOL    HW292313   9.317   3.202   5.292
26751SOL     OW92314   9.475   3.506   4.734
26751SOL    HW192315   9.417   3.426   4.748
26751SOL    HW292316   9.499   3.513   4.637
26752SOL     OW92317   9.767   2.377   4.419
26752SOL    HW192318   9.805   2.288   4.445
26752SOL    HW292319   9.834   2.427   4.364
26753SOL     OW92320   9.755   2.935   5.073
26753SOL    HW192321   9.851   2.915   5.093
26753SOL    HW292322   9.744   3.033   5.055
26754SOL     OW92323   9.460   3.087   3.734
26754SOL    HW192324   9.452   3.099   3.635
26754SOL    HW292325   9.519   3.158   3.772
26755SOL     OW92326   9.887   3.526   3.894
26755SOL    HW192327   9.862   3.621   3.878
26755SOL    HW292328   9.854   3.498   3.984
26756SOL     OW92329   9.804   3.565   5.118
26756SOL    HW192330   9.853   3.645   5.082
26756SOL    HW292331   9.712   3.563   5.079
26757SOL     OW92332   9.447   2.446   5.480
26757SOL    HW192333   9.464   2.347   5.485
26757SOL    HW292334   9.511   2.494   5.541
26758SOL     OW92335   9.282   2.780   4.280
26758SOL    HW192336   9.289   2.879   4.267
26758SOL    HW292337   9.191   2.757   4.314
26759SOL     OW92338   9.791   2.578   5.218
26759SOL    HW192339   9.697   2.548   5.199
26759SOL    HW292340   9.800   2.675   5.195
26760SOL     OW92341  10.016   2.360   4.699
26760SOL    HW192342  10.108   2.388   4.726
26760SOL    HW292343   9.948   2.411   4.753
26761SOL     OW92344   9.869   3.211   4.926
26761SOL    HW192345   9.782   3.210   4.877
26761SOL    HW292346   9.935   3.151   4.879
26762SOL     OW92347   9.435   2.553   4.840
26762SOL    HW192348   9.473   2.612   4.911
26762SOL    HW292349   9.418   2.606   4.758
26763SOL     OW92350   9.606   3.199   5.138
26763SOL    HW192351   9.625   3.287   5.182
26763SOL    HW292352   9.511   3.173   5.156
26764SOL     OW92353   9.580   2.041   5.555
26764SOL    HW192354   9.493   2.038   5.506
26764SOL    HW292355   9.631   2.123   5.527
26765SOL     OW92356   9.790   3.395   5.959
26765SOL    HW192357   9.746   3.404   6.048
26765SOL    HW292358   9.861   3.325   5.963
26766SOL     OW92359   9.808   1.928   5.681
26766SOL    HW192360   9.896   1.956   5.642
26766SOL    HW292361   9.736   1.991   5.651
26767SOL     OW92362   9.717   3.068   6.254
26767SOL    HW192363   9.650   3.022   6.313
26767SOL    HW292364   9.809   3.036   6.277
26768SOL     OW92365   9.647   3.237   5.738
26768SOL    HW192366   9.711   3.253   5.663
26768SOL    HW292367   9.671   3.295   5.816
26769SOL     OW92368   9.495   2.619   5.966
26769SOL    HW192369   9.510   2.553   6.040
26769SOL    HW292370   9.445   2.698   6.001
26770SOL     OW92371   9.409   2.881   7.110
26770SOL    HW192372   9.505   2.896   7.128
26770SOL    HW292373   9.371   2.819   7.179
26771SOL     OW92374   9.735   2.526   5.653
26771SOL    HW192375   9.695   2.605   5.606
26771SOL    HW292376   9.824   2.505   5.613
26772SOL     OW92377   9.908   3.450   6.351
26772SOL    HW192378   9.981   3.473   6.287
26772SOL    HW292379   9.837   3.397   6.305
26773SOL     OW92380   9.585   3.103   6.003
26773SOL    HW192381   9.631   3.077   6.088
26773SOL    HW292382   9.605   3.035   5.932
26774SOL     OW92383   9.595   2.363   6.809
26774SOL    HW192384   9.585   2.276   6.761
26774SOL    HW292385   9.531   2.430   6.772
26775SOL     OW92386   9.630   2.135   5.968
26775SOL    HW192387   9.584   2.175   6.047
26775SOL    HW292388   9.578   2.154   5.886
26776SOL     OW92389   9.257   2.467   6.063
26776SOL    HW192390   9.259   2.418   6.150
26776SOL    HW292391   9.259   2.566   6.081
26777SOL     OW92392   9.430   3.352   5.917
26777SOL    HW192393   9.457   3.258   5.937
26777SOL    HW292394   9.455   3.374   5.823
26778SOL     OW92395   9.444   3.495   6.154
26778SOL    HW192396   9.360   3.546   6.172
26778SOL    HW292397   9.435   3.444   6.069
26779SOL     OW92398   9.717   2.792   5.556
26779SOL    HW192399   9.686   2.826   5.468
26779SOL    HW292400   9.721   2.867   5.622
26780SOL     OW92401   9.321   2.684   5.729
26780SOL    HW192402   9.381   2.631   5.789
26780SOL    HW292403   9.227   2.652   5.741
26781SOL     OW92404   9.489   2.471   7.059
26781SOL    HW192405   9.509   2.376   7.034
26781SOL    HW292406   9.452   2.474   7.152
26782SOL     OW92407   9.371   2.126   6.949
26782SOL    HW192408   9.443   2.136   6.880
26782SOL    HW292409   9.282   2.125   6.904
26783SOL     OW92410   9.519   2.904   6.409
26783SOL    HW192411   9.442   2.966   6.402
26783SOL    HW292412   9.556   2.905   6.502
26784SOL     OW92413   9.263   2.157   6.011
26784SOL    HW192414   9.323   2.108   5.949
26784SOL    HW292415   9.318   2.209   6.076
26785SOL     OW92416   9.287   3.649   6.931
26785SOL    HW192417   9.295   3.749   6.929
26785SOL    HW292418   9.263   3.620   7.024
26786SOL     OW92419   9.590   2.386   6.464
26786SOL    HW192420   9.646   2.379   6.381
26786SOL    HW292421   9.647   2.364   6.544
26787SOL     OW92422   9.587   3.584   5.735
26787SOL    HW192423   9.679   3.614   5.710
26787SOL    HW292424   9.562   3.623   5.824
26788SOL     OW92425   9.268   3.001   6.484
26788SOL    HW192426   9.178   3.017   6.445
26788SOL    HW292427   9.266   2.917   6.539
26789SOL     OW92428   9.264   3.042   6.028
26789SOL    HW192429   9.342   3.100   6.052
26789SOL    HW292430   9.283   2.993   5.943
26790SOL     OW92431   9.794   3.225   7.336
26790SOL    HW192432   9.755   3.288   7.269
26790SOL    HW292433   9.877   3.265   7.376
26791SOL     OW92434   9.670   2.957   7.168
26791SOL    HW192435   9.689   2.981   7.073
26791SOL    HW292436   9.663   3.040   7.223
26792SOL     OW92437   9.331   3.247   6.642
26792SOL    HW192438   9.300   3.173   6.583
26792SOL    HW292439   9.263   3.265   6.713
26793SOL     OW92440   9.374   2.146   7.240
26793SOL    HW192441   9.392   2.135   7.142
26793SOL    HW292442   9.276   2.142   7.257
26794SOL     OW92443   9.254   3.560   7.184
26794SOL    HW192444   9.326   3.546   7.252
26794SOL    HW292445   9.165   3.563   7.229
26795SOL     OW92446   9.422   2.216   6.208
26795SOL    HW192447   9.365   2.271   6.269
26795SOL    HW292448   9.492   2.168   6.261
26796SOL     OW92449   9.559   2.407   5.806
26796SOL    HW192450   9.631   2.436   5.743
26796SOL    HW292451   9.515   2.487   5.846
26797SOL     OW92452   9.674   3.670   6.272
26797SOL    HW192453   9.598   3.636   6.217
26797SOL    HW292454   9.760   3.633   6.237
26798SOL     OW92455   9.599   3.179   6.717
26798SOL    HW192456   9.611   3.195   6.814
26798SOL    HW292457   9.512   3.219   6.687
26799SOL     OW92458   9.605   2.654   6.255
26799SOL    HW192459   9.597   2.752   6.273
26799SOL    HW292460   9.689   2.620   6.296
26800SOL     OW92461   9.451   2.134   5.770
26800SOL    HW192462   9.495   2.103   5.687
26800SOL    HW292463   9.452   2.234   5.774
26801SOL     OW92464   9.304   2.386   6.381
26801SOL    HW192465   9.268   2.479   6.373
26801SOL    HW292466   9.387   2.387   6.437
26802SOL     OW92467   9.739   2.973   5.767
26802SOL    HW192468   9.839   2.973   5.778
26802SOL    HW292469   9.708   3.066   5.746
26803SOL     OW92470  10.100   2.484   5.726
26803SOL    HW192471  10.190   2.485   5.681
26803SOL    HW292472  10.077   2.390   5.751
26804SOL     OW92473   9.300   1.916   5.680
26804SOL    HW192474   9.363   1.839   5.688
26804SOL    HW292475   9.320   1.984   5.751
26805SOL     OW92476   9.573   2.891   6.681
26805SOL    HW192477   9.584   2.846   6.770
26805SOL    HW292478   9.600   2.987   6.688
26806SOL     OW92479   9.854   2.504   6.703
26806SOL    HW192480   9.929   2.547   6.752
26806SOL    HW292481   9.787   2.469   6.769
26807SOL     OW92482   9.546   3.618   6.814
26807SOL    HW192483   9.526   3.600   6.718
26807SOL    HW292484   9.473   3.580   6.871
26808SOL     OW92485   9.272   2.820   6.687
26808SOL    HW192486   9.361   2.798   6.727
26808SOL    HW292487   9.217   2.736   6.683
26809SOL     OW92488   9.500   1.865   5.967
26809SOL    HW192489   9.538   1.953   5.994
26809SOL    HW292490   9.423   1.841   6.027
26810SOL     OW92491   9.916   2.482   7.295
26810SOL    HW192492   9.868   2.533   7.224
26810SOL    HW292493  10.009   2.461   7.265
26811SOL     OW92494   9.322   2.952   5.787
26811SOL    HW192495   9.312   2.855   5.766
26811SOL    HW292496   9.375   2.997   5.715
26812SOL     OW92497   9.523   2.720   6.916
26812SOL    HW192498   9.487   2.630   6.942
26812SOL    HW292499   9.484   2.790   6.976
26813SOL     OW92500  10.025   3.346   5.574
26813SOL    HW192501  10.000   3.423   5.633
26813SOL    HW292502  10.089   3.286   5.622
26814SOL     OW92503   9.843   3.553   6.608
26814SOL    HW192504   9.863   3.523   6.515
26814SOL    HW292505   9.768   3.498   6.645
26815SOL     OW92506   9.354   2.658   6.394
26815SOL    HW192507   9.449   2.649   6.362
26815SOL    HW292508   9.320   2.750   6.373
26816SOL     OW92509   9.291   2.775   7.321
26816SOL    HW192510   9.206   2.726   7.302
26816SOL    HW292511   9.318   2.762   7.416
26817SOL     OW92512   9.691   2.302   7.321
26817SOL    HW192513   9.727   2.249   7.244
26817SOL    HW292514   9.752   2.379   7.339
26818SOL     OW92515   9.755   2.719   5.893
26818SOL    HW192516   9.705   2.784   5.837
26818SOL    HW292517   9.697   2.640   5.912
26819SOL     OW92518   9.229   1.892   6.088
26819SOL    HW192519   9.142   1.879   6.041
26819SOL    HW292520   9.237   1.987   6.118
26820SOL     OW92521   9.666   3.412   7.154
26820SOL    HW192522   9.608   3.477   7.203
26820SOL    HW292523   9.728   3.462   7.094
26821SOL     OW92524   9.676   3.358   6.217
26821SOL    HW192525   9.674   3.259   6.230
26821SOL    HW292526   9.585   3.391   6.194
26822SOL     OW92527   9.526   3.605   7.304
26822SOL    HW192528   9.569   3.689   7.270
26822SOL    HW292529   9.551   3.592   7.400
26823SOL     OW92530   9.386   3.141   7.175
26823SOL    HW192531   9.365   3.046   7.148
26823SOL    HW292532   9.317   3.202   7.137
26824SOL     OW92533   9.475   3.506   6.579
26824SOL    HW192534   9.417   3.426   6.593
26824SOL    HW292535   9.499   3.513   6.482
26825SOL     OW92536   9.767   2.377   6.264
26825SOL    HW192537   9.805   2.288   6.290
26825SOL    HW292538   9.834   2.427   6.209
26826SOL     OW92539   9.755   2.935   6.918
26826SOL    HW192540   9.851   2.915   6.938
26826SOL    HW292541   9.744   3.033   6.900
26827SOL     OW92542   9.460   3.087   5.579
26827SOL    HW192543   9.452   3.099   5.480
26827SOL    HW292544   9.519   3.158   5.617
26828SOL     OW92545   9.887   3.526   5.739
26828SOL    HW192546   9.862   3.621   5.723
26828SOL    HW292547   9.854   3.498   5.829
26829SOL     OW92548   9.804   3.565   6.963
26829SOL    HW192549   9.853   3.645   6.927
26829SOL    HW292550   9.712   3.563   6.924
26830SOL     OW92551   9.447   2.446   7.325
26830SOL    HW192552   9.464   2.347   7.330
26830SOL    HW292553   9.511   2.494   7.386
26831SOL     OW92554   9.282   2.780   6.125
26831SOL    HW192555   9.289   2.879   6.112
26831SOL    HW292556   9.191   2.757   6.159
26832SOL     OW92557   9.791   2.578   7.063
26832SOL    HW192558   9.697   2.548   7.044
26832SOL    HW292559   9.800   2.675   7.040
26833SOL     OW92560  10.016   2.360   6.544
26833SOL    HW192561  10.108   2.388   6.571
26833SOL    HW292562   9.948   2.411   6.598
26834SOL     OW92563   9.869   3.211   6.771
26834SOL    HW192564   9.782   3.210   6.722
26834SOL    HW292565   9.935   3.151   6.724
26835SOL     OW92566   9.435   2.553   6.685
26835SOL    HW192567   9.473   2.612   6.756
26835SOL    HW292568   9.418   2.606   6.603
26836SOL     OW92569   9.606   3.199   6.983
26836SOL    HW192570   9.625   3.287   7.027
26836SOL    HW292571   9.511   3.173   7.001
26837SOL     OW92572   9.580   2.041   7.401
26837SOL    HW192573   9.493   2.038   7.352
26837SOL    HW292574   9.631   2.123   7.373
26838SOL     OW92575   9.790   3.395   7.805
26838SOL    HW192576   9.746   3.404   7.894
26838SOL    HW292577   9.861   3.325   7.809
26839SOL     OW92578   9.808   1.928   7.527
26839SOL    HW192579   9.896   1.956   7.488
26839SOL    HW292580   9.736   1.991   7.497
26840SOL     OW92581   9.717   3.068   8.100
26840SOL    HW192582   9.650   3.022   8.159
26840SOL    HW292583   9.809   3.036   8.123
26841SOL     OW92584   9.647   3.237   7.584
26841SOL    HW192585   9.711   3.253   7.509
26841SOL    HW292586   9.671   3.295   7.662
26842SOL     OW92587   9.798   2.193   8.394
26842SOL    HW192588   9.874   2.258   8.390
26842SOL    HW292589   9.828   2.104   8.361
26843SOL     OW92590   9.495   2.619   7.812
26843SOL    HW192591   9.510   2.553   7.886
26843SOL    HW292592   9.445   2.698   7.847
26844SOL     OW92593   9.409   2.881   8.956
26844SOL    HW192594   9.505   2.896   8.974
26844SOL    HW292595   9.371   2.819   9.025
26845SOL     OW92596   9.735   2.526   7.499
26845SOL    HW192597   9.695   2.605   7.452
26845SOL    HW292598   9.824   2.505   7.459
26846SOL     OW92599   9.908   3.450   8.197
26846SOL    HW192600   9.981   3.473   8.133
26846SOL    HW292601   9.837   3.397   8.151
26847SOL     OW92602   9.585   3.103   7.849
26847SOL    HW192603   9.631   3.077   7.934
26847SOL    HW292604   9.605   3.035   7.778
26848SOL     OW92605   9.595   2.363   8.655
26848SOL    HW192606   9.585   2.276   8.607
26848SOL    HW292607   9.531   2.430   8.618
26849SOL     OW92608   9.630   2.135   7.814
26849SOL    HW192609   9.584   2.175   7.893
26849SOL    HW292610   9.578   2.154   7.732
26850SOL     OW92611   9.964   2.993   9.130
26850SOL    HW192612   9.935   3.070   9.187
26850SOL    HW292613   9.974   2.912   9.188
26851SOL     OW92614   9.257   2.467   7.909
26851SOL    HW192615   9.259   2.418   7.996
26851SOL    HW292616   9.259   2.566   7.927
26852SOL     OW92617   9.578   2.055   8.230
26852SOL    HW192618   9.630   2.095   8.305
26852SOL    HW292619   9.631   1.982   8.187
26853SOL     OW92620   9.562   2.103   8.564
26853SOL    HW192621   9.527   2.010   8.564
26853SOL    HW292622   9.649   2.106   8.515
26854SOL     OW92623   9.430   3.352   7.763
26854SOL    HW192624   9.457   3.258   7.783
26854SOL    HW292625   9.455   3.374   7.669
26855SOL     OW92626   9.444   3.495   8.000
26855SOL    HW192627   9.360   3.546   8.018
26855SOL    HW292628   9.435   3.444   7.915
26856SOL     OW92629   9.717   2.792   7.402
26856SOL    HW192630   9.686   2.826   7.314
26856SOL    HW292631   9.721   2.867   7.468
26857SOL     OW92632   9.321   2.684   7.575
26857SOL    HW192633   9.381   2.631   7.635
26857SOL    HW292634   9.227   2.652   7.587
26858SOL     OW92635  10.089   3.669   8.423
26858SOL    HW192636  10.135   3.602   8.365
26858SOL    HW292637  10.015   3.625   8.473
26859SOL     OW92638   9.489   2.471   8.905
26859SOL    HW192639   9.509   2.376   8.880
26859SOL    HW292640   9.452   2.474   8.998
26860SOL     OW92641   9.371   2.126   8.795
26860SOL    HW192642   9.443   2.136   8.726
26860SOL    HW292643   9.282   2.125   8.750
26861SOL     OW92644   9.519   2.904   8.255
26861SOL    HW192645   9.442   2.966   8.248
26861SOL    HW292646   9.556   2.905   8.348
26862SOL     OW92647   9.263   2.157   7.857
26862SOL    HW192648   9.323   2.108   7.795
26862SOL    HW292649   9.318   2.209   7.922
26863SOL     OW92650  10.050   2.622   8.706
26863SOL    HW192651  10.052   2.708   8.757
26863SOL    HW292652  10.107   2.554   8.753
26864SOL     OW92653   9.287   3.649   8.777
26864SOL    HW192654   9.295   3.749   8.775
26864SOL    HW292655   9.263   3.620   8.870
26865SOL     OW92656   9.590   2.386   8.310
26865SOL    HW192657   9.646   2.379   8.227
26865SOL    HW292658   9.647   2.364   8.390
26866SOL     OW92659   9.587   3.584   7.581
26866SOL    HW192660   9.679   3.614   7.556
26866SOL    HW292661   9.562   3.623   7.670
26867SOL     OW92662   9.268   3.001   8.330
26867SOL    HW192663   9.178   3.017   8.291
26867SOL    HW292664   9.266   2.917   8.385
26868SOL     OW92665   9.264   3.042   7.874
26868SOL    HW192666   9.342   3.100   7.898
26868SOL    HW292667   9.283   2.993   7.789
26869SOL     OW92668   9.794   3.225   9.182
26869SOL    HW192669   9.755   3.288   9.115
26869SOL    HW292670   9.877   3.265   9.222
26870SOL     OW92671   9.670   2.957   9.014
26870SOL    HW192672   9.689   2.981   8.919
26870SOL    HW292673   9.663   3.040   9.069
26871SOL     OW92674   9.983   3.351   8.821
26871SOL    HW192675   9.920   3.429   8.828
26871SOL    HW292676   9.951   3.289   8.749
26872SOL     OW92677   9.374   2.146   9.086
26872SOL    HW192678   9.392   2.135   8.988
26872SOL    HW292679   9.276   2.142   9.103
26873SOL     OW92680   9.254   3.560   9.030
26873SOL    HW192681   9.326   3.546   9.098
26873SOL    HW292682   9.165   3.563   9.075
26874SOL     OW92683   9.422   2.216   8.054
26874SOL    HW192684   9.365   2.271   8.115
26874SOL    HW292685   9.492   2.168   8.107
26875SOL     OW92686   9.559   2.407   7.652
26875SOL    HW192687   9.631   2.436   7.589
26875SOL    HW292688   9.515   2.487   7.692
26876SOL     OW92689   9.674   3.670   8.118
26876SOL    HW192690   9.598   3.636   8.063
26876SOL    HW292691   9.760   3.633   8.083
26877SOL     OW92692   9.599   3.179   8.563
26877SOL    HW192693   9.611   3.195   8.660
26877SOL    HW292694   9.512   3.219   8.533
26878SOL     OW92695   9.605   2.654   8.101
26878SOL    HW192696   9.597   2.752   8.119
26878SOL    HW292697   9.689   2.620   8.142
26879SOL     OW92698   9.451   2.134   7.616
26879SOL    HW192699   9.495   2.103   7.533
26879SOL    HW292700   9.452   2.234   7.620
26880SOL     OW92701   9.304   2.386   8.227
26880SOL    HW192702   9.268   2.479   8.219
26880SOL    HW292703   9.387   2.387   8.283
26881SOL     OW92704   9.300   1.916   7.526
26881SOL    HW192705   9.363   1.839   7.534
26881SOL    HW292706   9.320   1.984   7.597
26882SOL     OW92707   9.573   2.891   8.527
26882SOL    HW192708   9.584   2.846   8.616
26882SOL    HW292709   9.600   2.987   8.534
26883SOL     OW92710   9.854   2.504   8.549
26883SOL    HW192711   9.929   2.547   8.598
26883SOL    HW292712   9.787   2.469   8.615
26884SOL     OW92713   9.997   2.873   8.866
26884SOL    HW192714  10.066   2.925   8.816
26884SOL    HW292715   9.992   2.906   8.961
26885SOL     OW92716   9.846   1.953   8.293
26885SOL    HW192717   9.774   1.886   8.279
26885SOL    HW292718   9.928   1.907   8.328
26886SOL     OW92719   9.546   3.618   8.660
26886SOL    HW192720   9.526   3.600   8.564
26886SOL    HW292721   9.473   3.580   8.717
26887SOL     OW92722   9.272   2.820   8.533
26887SOL    HW192723   9.361   2.798   8.573
26887SOL    HW292724   9.217   2.736   8.529
26888SOL     OW92725   9.500   1.865   7.813
26888SOL    HW192726   9.538   1.953   7.840
26888SOL    HW292727   9.423   1.841   7.873
26889SOL     OW92728   9.916   2.482   9.141
26889SOL    HW192729   9.868   2.533   9.070
26889SOL    HW292730  10.009   2.461   9.111
26890SOL     OW92731   9.322   2.952   7.633
26890SOL    HW192732   9.312   2.855   7.612
26890SOL    HW292733   9.375   2.997   7.561
26891SOL     OW92734   9.523   2.720   8.762
26891SOL    HW192735   9.487   2.630   8.788
26891SOL    HW292736   9.484   2.790   8.822
26892SOL     OW92737  10.025   3.346   7.420
26892SOL    HW192738  10.000   3.423   7.479
26892SOL    HW292739  10.089   3.286   7.468
26893SOL     OW92740   9.843   3.553   8.454
26893SOL    HW192741   9.863   3.523   8.361
26893SOL    HW292742   9.768   3.498   8.491
26894SOL     OW92743   9.354   2.658   8.240
26894SOL    HW192744   9.449   2.649   8.208
26894SOL    HW292745   9.320   2.750   8.219
26895SOL     OW92746   9.291   2.775   9.167
26895SOL    HW192747   9.206   2.726   9.148
26895SOL    HW292748   9.318   2.762   9.262
26896SOL     OW92749   9.691   2.302   9.167
26896SOL    HW192750   9.727   2.249   9.090
26896SOL    HW292751   9.752   2.379   9.185
26897SOL     OW92752   9.755   2.719   7.739
26897SOL    HW192753   9.705   2.784   7.683
26897SOL    HW292754   9.697   2.640   7.758
26898SOL     OW92755   9.229   1.892   7.934
26898SOL    HW192756   9.142   1.879   7.887
26898SOL    HW292757   9.237   1.987   7.964
26899SOL     OW92758   9.666   3.412   9.000
26899SOL    HW192759   9.608   3.477   9.049
26899SOL    HW292760   9.728   3.462   8.940
26900SOL     OW92761   9.676   3.358   8.063
26900SOL    HW192762   9.674   3.259   8.076
26900SOL    HW292763   9.585   3.391   8.040
26901SOL     OW92764   9.526   3.605   9.150
26901SOL    HW192765   9.569   3.689   9.116
26901SOL    HW292766   9.551   3.592   9.246
26902SOL     OW92767   9.386   3.141   9.021
26902SOL    HW192768   9.365   3.046   8.994
26902SOL    HW292769   9.317   3.202   8.983
26903SOL     OW92770   9.475   3.506   8.425
26903SOL    HW192771   9.417   3.426   8.439
26903SOL    HW292772   9.499   3.513   8.328
26904SOL     OW92773   9.767   2.377   8.110
26904SOL    HW192774   9.805   2.288   8.136
26904SOL    HW292775   9.834   2.427   8.055
26905SOL     OW92776   9.755   2.935   8.764
26905SOL    HW192777   9.851   2.915   8.784
26905SOL    HW292778   9.744   3.033   8.746
26906SOL     OW92779   9.460   3.087   7.425
26906SOL    HW192780   9.452   3.099   7.326
26906SOL    HW292781   9.519   3.158   7.463
26907SOL     OW92782   9.887   3.526   7.585
26907SOL    HW192783   9.862   3.621   7.569
26907SOL    HW292784   9.854   3.498   7.675
26908SOL     OW92785   9.804   3.565   8.809
26908SOL    HW192786   9.853   3.645   8.773
26908SOL    HW292787   9.712   3.563   8.770
26909SOL     OW92788   9.447   2.446   9.171
26909SOL    HW192789   9.464   2.347   9.176
26909SOL    HW292790   9.511   2.494   9.232
26910SOL     OW92791   9.282   2.780   7.971
26910SOL    HW192792   9.289   2.879   7.958
26910SOL    HW292793   9.191   2.757   8.005
26911SOL     OW92794   9.791   2.578   8.909
26911SOL    HW192795   9.697   2.548   8.890
26911SOL    HW292796   9.800   2.675   8.886
26912SOL     OW92797  10.016   2.360   8.390
26912SOL    HW192798  10.108   2.388   8.417
26912SOL    HW292799   9.948   2.411   8.444
26913SOL     OW92800   9.869   3.211   8.617
26913SOL    HW192801   9.782   3.210   8.568
26913SOL    HW292802   9.935   3.151   8.570
26914SOL     OW92803   9.435   2.553   8.531
26914SOL    HW192804   9.473   2.612   8.602
26914SOL    HW292805   9.418   2.606   8.449
26915SOL     OW92806   9.606   3.199   8.829
26915SOL    HW192807   9.625   3.287   8.873
26915SOL    HW292808   9.511   3.173   8.847
26916SOL     OW92809   9.790   3.395   9.650
26916SOL    HW192810   9.746   3.404   9.739
26916SOL    HW292811   9.861   3.325   9.654
26917SOL     OW92812   9.647   3.237   9.429
26917SOL    HW192813   9.711   3.253   9.354
26917SOL    HW292814   9.671   3.295   9.507
26918SOL     OW92815   9.495   2.619   9.657
26918SOL    HW192816   9.510   2.553   9.731
26918SOL    HW292817   9.445   2.698   9.692
26919SOL     OW92818   9.735   2.526   9.344
26919SOL    HW192819   9.695   2.605   9.297
26919SOL    HW292820   9.824   2.505   9.304
26920SOL     OW92821   9.585   3.103   9.694
26920SOL    HW192822   9.631   3.077   9.779
26920SOL    HW292823   9.605   3.035   9.623
26921SOL     OW92824   9.257   2.467   9.754
26921SOL    HW192825   9.259   2.418   9.841
26921SOL    HW292826   9.259   2.566   9.772
26922SOL     OW92827   9.430   3.352   9.608
26922SOL    HW192828   9.457   3.258   9.628
26922SOL    HW292829   9.455   3.374   9.514
26923SOL     OW92830   9.444   3.495   9.845
26923SOL    HW192831   9.360   3.546   9.863
26923SOL    HW292832   9.435   3.444   9.760
26924SOL     OW92833   9.717   2.792   9.247
26924SOL    HW192834   9.686   2.826   9.159
26924SOL    HW292835   9.721   2.867   9.313
26925SOL     OW92836   9.321   2.684   9.420
26925SOL    HW192837   9.381   2.631   9.480
26925SOL    HW292838   9.227   2.652   9.432
26926SOL     OW92839   9.263   2.157   9.702
26926SOL    HW192840   9.323   2.108   9.640
26926SOL    HW292841   9.318   2.209   9.767
26927SOL     OW92842   9.587   3.584   9.426
26927SOL    HW192843   9.679   3.614   9.401
26927SOL    HW292844   9.562   3.623   9.515
26928SOL     OW92845   9.264   3.042   9.719
26928SOL    HW192846   9.342   3.100   9.743
26928SOL    HW292847   9.283   2.993   9.634
26929SOL     OW92848   9.559   2.407   9.497
26929SOL    HW192849   9.631   2.436   9.434
26929SOL    HW292850   9.515   2.487   9.537
26930SOL     OW92851   9.674   3.670   9.963
26930SOL    HW192852   9.598   3.636   9.908
26930SOL    HW292853   9.760   3.633   9.928
26931SOL     OW92854   9.304   2.386  10.072
26931SOL    HW192855   9.268   2.479  10.064
26931SOL    HW292856   9.387   2.387  10.128
26932SOL     OW92857   9.739   2.973   9.458
26932SOL    HW192858   9.839   2.973   9.469
26932SOL    HW292859   9.708   3.066   9.437
26933SOL     OW92860  10.100   2.484   9.417
26933SOL    HW192861  10.190   2.485   9.372
26933SOL    HW292862  10.077   2.390   9.442
26934SOL     OW92863   9.500   1.865   9.658
26934SOL    HW192864   9.538   1.953   9.685
26934SOL    HW292865   9.423   1.841   9.718
26935SOL     OW92866   9.322   2.952   9.478
26935SOL    HW192867   9.312   2.855   9.457
26935SOL    HW292868   9.375   2.997   9.406
26936SOL     OW92869  10.025   3.346   9.265
26936SOL    HW192870  10.000   3.423   9.324
26936SOL    HW292871  10.089   3.286   9.313
26937SOL     OW92872   9.755   2.719   9.584
26937SOL    HW192873   9.705   2.784   9.528
26937SOL    HW292874   9.697   2.640   9.603
26938SOL     OW92875   9.229   1.892   9.779
26938SOL    HW192876   9.142   1.879   9.732
26938SOL    HW292877   9.237   1.987   9.809
26939SOL     OW92878   9.460   3.087   9.270
26939SOL    HW192879   9.452   3.099   9.171
26939SOL    HW292880   9.519   3.158   9.308
26940SOL     OW92881   9.887   3.526   9.430
26940SOL    HW192882   9.862   3.621   9.414
26940SOL    HW292883   9.854   3.498   9.520
26941SOL     OW92884   9.282   2.780   9.816
26941SOL    HW192885   9.289   2.879   9.803
26941SOL    HW292886   9.191   2.757   9.850
26942SOL     OW92887  10.016   2.360  10.235
26942SOL    HW192888  10.108   2.388  10.262
26942SOL    HW292889   9.948   2.411  10.289
26943SOL     OW92890   9.580   3.887   0.019
26943SOL    HW192891   9.493   3.884  -0.030
26943SOL    HW292892   9.631   3.969  -0.009
26944SOL     OW92893   9.790   5.241   0.423
26944SOL    HW192894   9.746   5.250   0.512
26944SOL    HW292895   9.861   5.171   0.427
26945SOL     OW92896   9.808   3.774   0.145
26945SOL    HW192897   9.896   3.802   0.106
26945SOL    HW292898   9.736   3.837   0.115
26946SOL     OW92899   9.717   4.914   0.718
26946SOL    HW192900   9.650   4.868   0.777
26946SOL    HW292901   9.809   4.882   0.741
26947SOL     OW92902   9.647   5.083   0.202
26947SOL    HW192903   9.711   5.099   0.127
26947SOL    HW292904   9.671   5.141   0.280
26948SOL     OW92905   9.798   4.039   1.012
26948SOL    HW192906   9.874   4.104   1.008
26948SOL    HW292907   9.828   3.950   0.979
26949SOL     OW92908   9.495   4.465   0.430
26949SOL    HW192909   9.510   4.399   0.504
26949SOL    HW292910   9.445   4.544   0.465
26950SOL     OW92911   9.409   4.727   1.574
26950SOL    HW192912   9.505   4.742   1.592
26950SOL    HW292913   9.371   4.665   1.643
26951SOL     OW92914   9.735   4.372   0.117
26951SOL    HW192915   9.695   4.451   0.070
26951SOL    HW292916   9.824   4.351   0.077
26952SOL     OW92917   9.908   5.296   0.815
26952SOL    HW192918   9.981   5.319   0.751
26952SOL    HW292919   9.837   5.243   0.769
26953SOL     OW92920   9.585   4.949   0.467
26953SOL    HW192921   9.631   4.923   0.552
26953SOL    HW292922   9.605   4.881   0.396
26954SOL     OW92923   9.595   4.209   1.273
26954SOL    HW192924   9.585   4.122   1.225
26954SOL    HW292925   9.531   4.276   1.236
26955SOL     OW92926   9.630   3.981   0.432
26955SOL    HW192927   9.584   4.021   0.511
26955SOL    HW292928   9.578   4.000   0.350
26956SOL     OW92929   9.964   4.839   1.748
26956SOL    HW192930   9.935   4.916   1.805
26956SOL    HW292931   9.974   4.758   1.806
26957SOL     OW92932   9.257   4.313   0.527
26957SOL    HW192933   9.259   4.264   0.614
26957SOL    HW292934   9.259   4.412   0.545
26958SOL     OW92935   9.578   3.901   0.848
26958SOL    HW192936   9.630   3.941   0.923
26958SOL    HW292937   9.631   3.828   0.805
26959SOL     OW92938   9.562   3.949   1.182
26959SOL    HW192939   9.527   3.856   1.182
26959SOL    HW292940   9.649   3.952   1.133
26960SOL     OW92941   9.430   5.198   0.381
26960SOL    HW192942   9.457   5.104   0.401
26960SOL    HW292943   9.455   5.220   0.287
26961SOL     OW92944   9.444   5.341   0.618
26961SOL    HW192945   9.360   5.392   0.636
26961SOL    HW292946   9.435   5.290   0.533
26962SOL     OW92947   9.717   4.638   0.020
26962SOL    HW192948   9.686   4.672  -0.068
26962SOL    HW292949   9.721   4.713   0.086
26963SOL     OW92950   9.321   4.530   0.193
26963SOL    HW192951   9.381   4.477   0.253
26963SOL    HW292952   9.227   4.498   0.205
26964SOL     OW92953  10.089   5.515   1.041
26964SOL    HW192954  10.135   5.448   0.983
26964SOL    HW292955  10.015   5.471   1.091
26965SOL     OW92956   9.489   4.317   1.523
26965SOL    HW192957   9.509   4.222   1.498
26965SOL    HW292958   9.452   4.320   1.616
26966SOL     OW92959   9.371   3.972   1.413
26966SOL    HW192960   9.443   3.982   1.344
26966SOL    HW292961   9.282   3.971   1.368
26967SOL     OW92962   9.519   4.750   0.873
26967SOL    HW192963   9.442   4.812   0.866
26967SOL    HW292964   9.556   4.751   0.966
26968SOL     OW92965   9.263   4.003   0.475
26968SOL    HW192966   9.323   3.954   0.413
26968SOL    HW292967   9.318   4.055   0.540
26969SOL     OW92968  10.050   4.468   1.324
26969SOL    HW192969  10.052   4.554   1.375
26969SOL    HW292970  10.107   4.400   1.371
26970SOL     OW92971   9.287   5.495   1.395
26970SOL    HW192972   9.295   5.595   1.393
26970SOL    HW292973   9.263   5.466   1.488
26971SOL     OW92974   9.590   4.232   0.928
26971SOL    HW192975   9.646   4.225   0.845
26971SOL    HW292976   9.647   4.210   1.008
26972SOL     OW92977   9.587   5.430   0.199
26972SOL    HW192978   9.679   5.460   0.174
26972SOL    HW292979   9.562   5.469   0.288
26973SOL     OW92980   9.268   4.847   0.948
26973SOL    HW192981   9.178   4.863   0.909
26973SOL    HW292982   9.266   4.763   1.003
26974SOL     OW92983   9.264   4.888   0.492
26974SOL    HW192984   9.342   4.946   0.516
26974SOL    HW292985   9.283   4.839   0.407
26975SOL     OW92986   9.794   5.071   1.800
26975SOL    HW192987   9.755   5.134   1.733
26975SOL    HW292988   9.877   5.111   1.840
26976SOL     OW92989   9.670   4.803   1.632
26976SOL    HW192990   9.689   4.827   1.537
26976SOL    HW292991   9.663   4.886   1.687
26977SOL     OW92992   9.331   5.093   1.106
26977SOL    HW192993   9.300   5.019   1.047
26977SOL    HW292994   9.263   5.111   1.177
26978SOL     OW92995   9.983   5.197   1.439
26978SOL    HW192996   9.920   5.275   1.446
26978SOL    HW292997   9.951   5.135   1.367
26979SOL     OW92998   9.374   3.992   1.704
26979SOL    HW192999   9.392   3.981   1.606
26979SOL    HW293000   9.276   3.988   1.721
26980SOL     OW93001   9.254   5.406   1.648
26980SOL    HW193002   9.326   5.392   1.716
26980SOL    HW293003   9.165   5.409   1.693
26981SOL     OW93004   9.422   4.062   0.672
26981SOL    HW193005   9.365   4.117   0.733
26981SOL    HW293006   9.492   4.014   0.725
26982SOL     OW93007   9.559   4.253   0.270
26982SOL    HW193008   9.631   4.282   0.207
26982SOL    HW293009   9.515   4.333   0.310
26983SOL     OW93010   9.674   5.516   0.736
26983SOL    HW193011   9.598   5.482   0.681
26983SOL    HW293012   9.760   5.479   0.701
26984SOL     OW93013   9.599   5.025   1.181
26984SOL    HW193014   9.611   5.041   1.278
26984SOL    HW293015   9.512   5.065   1.151
26985SOL     OW93016   9.605   4.500   0.719
26985SOL    HW193017   9.597   4.598   0.737
26985SOL    HW293018   9.689   4.466   0.760
26986SOL     OW93019   9.451   3.980   0.234
26986SOL    HW193020   9.495   3.949   0.151
26986SOL    HW293021   9.452   4.080   0.238
26987SOL     OW93022   9.304   4.232   0.845
26987SOL    HW193023   9.268   4.325   0.837
26987SOL    HW293024   9.387   4.233   0.901
26988SOL     OW93025   9.739   4.819   0.231
26988SOL    HW193026   9.839   4.819   0.242
26988SOL    HW293027   9.708   4.912   0.210
26989SOL     OW93028   9.300   3.762   0.144
26989SOL    HW193029   9.363   3.685   0.152
26989SOL    HW293030   9.320   3.830   0.215
26990SOL     OW93031   9.573   4.737   1.145
26990SOL    HW193032   9.584   4.692   1.234
26990SOL    HW293033   9.600   4.833   1.152
26991SOL     OW93034   9.854   4.350   1.167
26991SOL    HW193035   9.929   4.393   1.216
26991SOL    HW293036   9.787   4.315   1.233
26992SOL     OW93037   9.997   4.719   1.484
26992SOL    HW193038  10.066   4.771   1.434
26992SOL    HW293039   9.992   4.752   1.579
26993SOL     OW93040   9.846   3.799   0.911
26993SOL    HW193041   9.774   3.732   0.897
26993SOL    HW293042   9.928   3.753   0.946
26994SOL     OW93043   9.546   5.464   1.278
26994SOL    HW193044   9.526   5.446   1.182
26994SOL    HW293045   9.473   5.426   1.335
26995SOL     OW93046   9.272   4.666   1.151
26995SOL    HW193047   9.361   4.644   1.191
26995SOL    HW293048   9.217   4.582   1.147
26996SOL     OW93049   9.500   3.711   0.431
26996SOL    HW193050   9.538   3.799   0.458
26996SOL    HW293051   9.423   3.687   0.491
26997SOL     OW93052   9.916   4.328   1.759
26997SOL    HW193053   9.868   4.379   1.688
26997SOL    HW293054  10.009   4.307   1.729
26998SOL     OW93055   9.322   4.798   0.251
26998SOL    HW193056   9.312   4.701   0.230
26998SOL    HW293057   9.375   4.843   0.179
26999SOL     OW93058   9.523   4.566   1.380
26999SOL    HW193059   9.487   4.476   1.406
26999SOL    HW293060   9.484   4.636   1.440
27000SOL     OW93061  10.025   5.192   0.038
27000SOL    HW193062  10.000   5.269   0.097
27000SOL    HW293063  10.089   5.132   0.086
27001SOL     OW93064   9.843   5.399   1.072
27001SOL    HW193065   9.863   5.369   0.979
27001SOL    HW293066   9.768   5.344   1.109
27002SOL     OW93067   9.354   4.504   0.858
27002SOL    HW193068   9.449   4.495   0.826
27002SOL    HW293069   9.320   4.596   0.837
27003SOL     OW93070   9.291   4.621   1.785
27003SOL    HW193071   9.206   4.572   1.766
27003SOL    HW293072   9.318   4.608   1.880
27004SOL     OW93073   9.691   4.148   1.785
27004SOL    HW193074   9.727   4.095   1.708
27004SOL    HW293075   9.752   4.225   1.803
27005SOL     OW93076   9.755   4.565   0.357
27005SOL    HW193077   9.705   4.630   0.301
27005SOL    HW293078   9.697   4.486   0.376
27006SOL     OW93079   9.229   3.738   0.552
27006SOL    HW193080   9.142   3.725   0.505
27006SOL    HW293081   9.237   3.833   0.582
27007SOL     OW93082   9.666   5.258   1.618
27007SOL    HW193083   9.608   5.323   1.667
27007SOL    HW293084   9.728   5.308   1.558
27008SOL     OW93085   9.676   5.204   0.681
27008SOL    HW193086   9.674   5.105   0.694
27008SOL    HW293087   9.585   5.237   0.658
27009SOL     OW93088   9.526   5.451   1.768
27009SOL    HW193089   9.569   5.535   1.734
27009SOL    HW293090   9.551   5.438   1.864
27010SOL     OW93091   9.386   4.987   1.639
27010SOL    HW193092   9.365   4.892   1.612
27010SOL    HW293093   9.317   5.048   1.601
27011SOL     OW93094   9.475   5.352   1.043
27011SOL    HW193095   9.417   5.272   1.057
27011SOL    HW293096   9.499   5.359   0.946
27012SOL     OW93097   9.767   4.223   0.728
27012SOL    HW193098   9.805   4.134   0.754
27012SOL    HW293099   9.834   4.273   0.673
27013SOL     OW93100   9.755   4.781   1.382
27013SOL    HW193101   9.851   4.761   1.402
27013SOL    HW293102   9.744   4.879   1.364
27014SOL     OW93103   9.460   4.933   0.043
27014SOL    HW193104   9.452   4.945  -0.056
27014SOL    HW293105   9.519   5.004   0.081
27015SOL     OW93106   9.887   5.372   0.203
27015SOL    HW193107   9.862   5.467   0.187
27015SOL    HW293108   9.854   5.344   0.293
27016SOL     OW93109   9.804   5.411   1.427
27016SOL    HW193110   9.853   5.491   1.391
27016SOL    HW293111   9.712   5.409   1.388
27017SOL     OW93112   9.447   4.292   1.789
27017SOL    HW193113   9.464   4.193   1.794
27017SOL    HW293114   9.511   4.340   1.850
27018SOL     OW93115   9.282   4.626   0.589
27018SOL    HW193116   9.289   4.725   0.576
27018SOL    HW293117   9.191   4.603   0.623
27019SOL     OW93118   9.791   4.424   1.527
27019SOL    HW193119   9.697   4.394   1.508
27019SOL    HW293120   9.800   4.521   1.504
27020SOL     OW93121  10.016   4.206   1.008
27020SOL    HW193122  10.108   4.234   1.035
27020SOL    HW293123   9.948   4.257   1.062
27021SOL     OW93124   9.869   5.057   1.235
27021SOL    HW193125   9.782   5.056   1.186
27021SOL    HW293126   9.935   4.997   1.188
27022SOL     OW93127   9.435   4.399   1.149
27022SOL    HW193128   9.473   4.458   1.220
27022SOL    HW293129   9.418   4.452   1.067
27023SOL     OW93130   9.606   5.045   1.447
27023SOL    HW193131   9.625   5.133   1.491
27023SOL    HW293132   9.511   5.019   1.465
27024SOL     OW93133   9.580   3.887   1.864
27024SOL    HW193134   9.493   3.884   1.815
27024SOL    HW293135   9.631   3.969   1.836
27025SOL     OW93136   9.790   5.241   2.268
27025SOL    HW193137   9.746   5.250   2.357
27025SOL    HW293138   9.861   5.171   2.272
27026SOL     OW93139   9.808   3.774   1.990
27026SOL    HW193140   9.896   3.802   1.951
27026SOL    HW293141   9.736   3.837   1.960
27027SOL     OW93142   9.717   4.914   2.563
27027SOL    HW193143   9.650   4.868   2.622
27027SOL    HW293144   9.809   4.882   2.586
27028SOL     OW93145   9.647   5.083   2.047
27028SOL    HW193146   9.711   5.099   1.972
27028SOL    HW293147   9.671   5.141   2.125
27029SOL     OW93148   9.798   4.039   2.857
27029SOL    HW193149   9.874   4.104   2.853
27029SOL    HW293150   9.828   3.950   2.824
27030SOL     OW93151   9.495   4.465   2.275
27030SOL    HW193152   9.510   4.399   2.349
27030SOL    HW293153   9.445   4.544   2.310
27031SOL     OW93154   9.409   4.727   3.419
27031SOL    HW193155   9.505   4.742   3.437
27031SOL    HW293156   9.371   4.665   3.488
27032SOL     OW93157   9.735   4.372   1.962
27032SOL    HW193158   9.695   4.451   1.915
27032SOL    HW293159   9.824   4.351   1.922
27033SOL     OW93160   9.908   5.296   2.660
27033SOL    HW193161   9.981   5.319   2.596
27033SOL    HW293162   9.837   5.243   2.614
27034SOL     OW93163   9.585   4.949   2.312
27034SOL    HW193164   9.631   4.923   2.397
27034SOL    HW293165   9.605   4.881   2.241
27035SOL     OW93166   9.595   4.209   3.118
27035SOL    HW193167   9.585   4.122   3.070
27035SOL    HW293168   9.531   4.276   3.081
27036SOL     OW93169   9.630   3.981   2.277
27036SOL    HW193170   9.584   4.021   2.356
27036SOL    HW293171   9.578   4.000   2.195
27037SOL     OW93172   9.964   4.839   3.593
27037SOL    HW193173   9.935   4.916   3.650
27037SOL    HW293174   9.974   4.758   3.651
27038SOL     OW93175   9.257   4.313   2.372
27038SOL    HW193176   9.259   4.264   2.459
27038SOL    HW293177   9.259   4.412   2.390
27039SOL     OW93178   9.578   3.901   2.693
27039SOL    HW193179   9.630   3.941   2.768
27039SOL    HW293180   9.631   3.828   2.650
27040SOL     OW93181   9.562   3.949   3.027
27040SOL    HW193182   9.527   3.856   3.027
27040SOL    HW293183   9.649   3.952   2.978
27041SOL     OW93184   9.430   5.198   2.226
27041SOL    HW193185   9.457   5.104   2.246
27041SOL    HW293186   9.455   5.220   2.132
27042SOL     OW93187   9.444   5.341   2.463
27042SOL    HW193188   9.360   5.392   2.481
27042SOL    HW293189   9.435   5.290   2.378
27043SOL     OW93190   9.717   4.638   1.865
27043SOL    HW193191   9.686   4.672   1.777
27043SOL    HW293192   9.721   4.713   1.931
27044SOL     OW93193   9.321   4.530   2.038
27044SOL    HW193194   9.381   4.477   2.098
27044SOL    HW293195   9.227   4.498   2.050
27045SOL     OW93196  10.089   5.515   2.886
27045SOL    HW193197  10.135   5.448   2.828
27045SOL    HW293198  10.015   5.471   2.936
27046SOL     OW93199   9.489   4.317   3.368
27046SOL    HW193200   9.509   4.222   3.343
27046SOL    HW293201   9.452   4.320   3.461
27047SOL     OW93202   9.371   3.972   3.258
27047SOL    HW193203   9.443   3.982   3.189
27047SOL    HW293204   9.282   3.971   3.213
27048SOL     OW93205   9.263   4.003   2.320
27048SOL    HW193206   9.323   3.954   2.258
27048SOL    HW293207   9.318   4.055   2.385
27049SOL     OW93208  10.050   4.468   3.169
27049SOL    HW193209  10.052   4.554   3.220
27049SOL    HW293210  10.107   4.400   3.216
27050SOL     OW93211   9.287   5.495   3.240
27050SOL    HW193212   9.295   5.595   3.238
27050SOL    HW293213   9.263   5.466   3.333
27051SOL     OW93214   9.590   4.232   2.773
27051SOL    HW193215   9.646   4.225   2.690
27051SOL    HW293216   9.647   4.210   2.853
27052SOL     OW93217   9.587   5.430   2.044
27052SOL    HW193218   9.679   5.460   2.019
27052SOL    HW293219   9.562   5.469   2.133
27053SOL     OW93220   9.268   4.847   2.793
27053SOL    HW193221   9.178   4.863   2.754
27053SOL    HW293222   9.266   4.763   2.848
27054SOL     OW93223   9.264   4.888   2.337
27054SOL    HW193224   9.342   4.946   2.361
27054SOL    HW293225   9.283   4.839   2.252
27055SOL     OW93226   9.794   5.071   3.645
27055SOL    HW193227   9.755   5.134   3.578
27055SOL    HW293228   9.877   5.111   3.685
27056SOL     OW93229   9.670   4.803   3.477
27056SOL    HW193230   9.689   4.827   3.382
27056SOL    HW293231   9.663   4.886   3.532
27057SOL     OW93232   9.331   5.093   2.951
27057SOL    HW193233   9.300   5.019   2.892
27057SOL    HW293234   9.263   5.111   3.022
27058SOL     OW93235   9.983   5.197   3.284
27058SOL    HW193236   9.920   5.275   3.291
27058SOL    HW293237   9.951   5.135   3.212
27059SOL     OW93238   9.374   3.992   3.549
27059SOL    HW193239   9.392   3.981   3.451
27059SOL    HW293240   9.276   3.988   3.566
27060SOL     OW93241   9.254   5.406   3.493
27060SOL    HW193242   9.326   5.392   3.561
27060SOL    HW293243   9.165   5.409   3.538
27061SOL     OW93244   9.422   4.062   2.517
27061SOL    HW193245   9.365   4.117   2.578
27061SOL    HW293246   9.492   4.014   2.570
27062SOL     OW93247   9.559   4.253   2.115
27062SOL    HW193248   9.631   4.282   2.052
27062SOL    HW293249   9.515   4.333   2.155
27063SOL     OW93250   9.674   5.516   2.581
27063SOL    HW193251   9.598   5.482   2.526
27063SOL    HW293252   9.760   5.479   2.546
27064SOL     OW93253   9.605   4.500   2.564
27064SOL    HW193254   9.597   4.598   2.582
27064SOL    HW293255   9.689   4.466   2.605
27065SOL     OW93256   9.451   3.980   2.079
27065SOL    HW193257   9.495   3.949   1.996
27065SOL    HW293258   9.452   4.080   2.083
27066SOL     OW93259   9.304   4.232   2.690
27066SOL    HW193260   9.268   4.325   2.682
27066SOL    HW293261   9.387   4.233   2.746
27067SOL     OW93262   9.739   4.819   2.076
27067SOL    HW193263   9.839   4.819   2.087
27067SOL    HW293264   9.708   4.912   2.055
27068SOL     OW93265  10.100   4.330   2.035
27068SOL    HW193266  10.190   4.331   1.990
27068SOL    HW293267  10.077   4.236   2.060
27069SOL     OW93268   9.854   4.350   3.012
27069SOL    HW193269   9.929   4.393   3.061
27069SOL    HW293270   9.787   4.315   3.078
27070SOL     OW93271   9.997   4.719   3.329
27070SOL    HW193272  10.066   4.771   3.279
27070SOL    HW293273   9.992   4.752   3.424
27071SOL     OW93274   9.846   3.799   2.756
27071SOL    HW193275   9.774   3.732   2.742
27071SOL    HW293276   9.928   3.753   2.791
27072SOL     OW93277   9.546   5.464   3.123
27072SOL    HW193278   9.526   5.446   3.027
27072SOL    HW293279   9.473   5.426   3.180
27073SOL     OW93280   9.272   4.666   2.996
27073SOL    HW193281   9.361   4.644   3.036
27073SOL    HW293282   9.217   4.582   2.992
27074SOL     OW93283   9.916   4.328   3.604
27074SOL    HW193284   9.868   4.379   3.533
27074SOL    HW293285  10.009   4.307   3.574
27075SOL     OW93286   9.322   4.798   2.096
27075SOL    HW193287   9.312   4.701   2.075
27075SOL    HW293288   9.375   4.843   2.024
27076SOL     OW93289   9.523   4.566   3.225
27076SOL    HW193290   9.487   4.476   3.251
27076SOL    HW293291   9.484   4.636   3.285
27077SOL     OW93292  10.025   5.192   1.883
27077SOL    HW193293  10.000   5.269   1.942
27077SOL    HW293294  10.089   5.132   1.931
27078SOL     OW93295   9.843   5.399   2.917
27078SOL    HW193296   9.863   5.369   2.824
27078SOL    HW293297   9.768   5.344   2.954
27079SOL     OW93298   9.291   4.621   3.630
27079SOL    HW193299   9.206   4.572   3.611
27079SOL    HW293300   9.318   4.608   3.725
27080SOL     OW93301   9.691   4.148   3.630
27080SOL    HW193302   9.727   4.095   3.553
27080SOL    HW293303   9.752   4.225   3.648
27081SOL     OW93304   9.755   4.565   2.202
27081SOL    HW193305   9.705   4.630   2.146
27081SOL    HW293306   9.697   4.486   2.221
27082SOL     OW93307   9.666   5.258   3.463
27082SOL    HW193308   9.608   5.323   3.512
27082SOL    HW293309   9.728   5.308   3.403
27083SOL     OW93310   9.676   5.204   2.526
27083SOL    HW193311   9.674   5.105   2.539
27083SOL    HW293312   9.585   5.237   2.503
27084SOL     OW93313   9.526   5.451   3.613
27084SOL    HW193314   9.569   5.535   3.579
27084SOL    HW293315   9.551   5.438   3.709
27085SOL     OW93316   9.386   4.987   3.484
27085SOL    HW193317   9.365   4.892   3.457
27085SOL    HW293318   9.317   5.048   3.446
27086SOL     OW93319   9.475   5.352   2.888
27086SOL    HW193320   9.417   5.272   2.902
27086SOL    HW293321   9.499   5.359   2.791
27087SOL     OW93322   9.767   4.223   2.573
27087SOL    HW193323   9.805   4.134   2.599
27087SOL    HW293324   9.834   4.273   2.518
27088SOL     OW93325   9.755   4.781   3.227
27088SOL    HW193326   9.851   4.761   3.247
27088SOL    HW293327   9.744   4.879   3.209
27089SOL     OW93328   9.460   4.933   1.888
27089SOL    HW193329   9.452   4.945   1.789
27089SOL    HW293330   9.519   5.004   1.926
27090SOL     OW93331   9.887   5.372   2.048
27090SOL    HW193332   9.862   5.467   2.032
27090SOL    HW293333   9.854   5.344   2.138
27091SOL     OW93334   9.804   5.411   3.272
27091SOL    HW193335   9.853   5.491   3.236
27091SOL    HW293336   9.712   5.409   3.233
27092SOL     OW93337   9.447   4.292   3.634
27092SOL    HW193338   9.464   4.193   3.639
27092SOL    HW293339   9.511   4.340   3.695
27093SOL     OW93340   9.282   4.626   2.434
27093SOL    HW193341   9.289   4.725   2.421
27093SOL    HW293342   9.191   4.603   2.468
27094SOL     OW93343   9.791   4.424   3.372
27094SOL    HW193344   9.697   4.394   3.353
27094SOL    HW293345   9.800   4.521   3.349
27095SOL     OW93346  10.016   4.206   2.853
27095SOL    HW193347  10.108   4.234   2.880
27095SOL    HW293348   9.948   4.257   2.907
27096SOL     OW93349   9.869   5.057   3.080
27096SOL    HW193350   9.782   5.056   3.031
27096SOL    HW293351   9.935   4.997   3.033
27097SOL     OW93352   9.606   5.045   3.292
27097SOL    HW193353   9.625   5.133   3.336
27097SOL    HW293354   9.511   5.019   3.310
27098SOL     OW93355   9.580   3.887   3.710
27098SOL    HW193356   9.493   3.884   3.661
27098SOL    HW293357   9.631   3.969   3.682
27099SOL     OW93358   9.790   5.241   4.114
27099SOL    HW193359   9.746   5.250   4.203
27099SOL    HW293360   9.861   5.171   4.118
27100SOL     OW93361   9.808   3.774   3.836
27100SOL    HW193362   9.896   3.802   3.797
27100SOL    HW293363   9.736   3.837   3.806
27101SOL     OW93364   9.717   4.914   4.409
27101SOL    HW193365   9.650   4.868   4.468
27101SOL    HW293366   9.809   4.882   4.432
27102SOL     OW93367   9.647   5.083   3.893
27102SOL    HW193368   9.711   5.099   3.818
27102SOL    HW293369   9.671   5.141   3.971
27103SOL     OW93370   9.798   4.039   4.703
27103SOL    HW193371   9.874   4.104   4.699
27103SOL    HW293372   9.828   3.950   4.670
27104SOL     OW93373   9.495   4.465   4.121
27104SOL    HW193374   9.510   4.399   4.195
27104SOL    HW293375   9.445   4.544   4.156
27105SOL     OW93376   9.409   4.727   5.265
27105SOL    HW193377   9.505   4.742   5.283
27105SOL    HW293378   9.371   4.665   5.334
27106SOL     OW93379   9.735   4.372   3.808
27106SOL    HW193380   9.695   4.451   3.761
27106SOL    HW293381   9.824   4.351   3.768
27107SOL     OW93382   9.908   5.296   4.506
27107SOL    HW193383   9.981   5.319   4.442
27107SOL    HW293384   9.837   5.243   4.460
27108SOL     OW93385   9.585   4.949   4.158
27108SOL    HW193386   9.631   4.923   4.243
27108SOL    HW293387   9.605   4.881   4.087
27109SOL     OW93388   9.595   4.209   4.964
27109SOL    HW193389   9.585   4.122   4.916
27109SOL    HW293390   9.531   4.276   4.927
27110SOL     OW93391   9.630   3.981   4.123
27110SOL    HW193392   9.584   4.021   4.202
27110SOL    HW293393   9.578   4.000   4.041
27111SOL     OW93394   9.964   4.839   5.439
27111SOL    HW193395   9.935   4.916   5.496
27111SOL    HW293396   9.974   4.758   5.497
27112SOL     OW93397   9.257   4.313   4.218
27112SOL    HW193398   9.259   4.264   4.305
27112SOL    HW293399   9.259   4.412   4.236
27113SOL     OW93400   9.578   3.901   4.539
27113SOL    HW193401   9.630   3.941   4.614
27113SOL    HW293402   9.631   3.828   4.496
27114SOL     OW93403   9.562   3.949   4.873
27114SOL    HW193404   9.527   3.856   4.873
27114SOL    HW293405   9.649   3.952   4.824
27115SOL     OW93406   9.430   5.198   4.072
27115SOL    HW193407   9.457   5.104   4.092
27115SOL    HW293408   9.455   5.220   3.978
27116SOL     OW93409   9.444   5.341   4.309
27116SOL    HW193410   9.360   5.392   4.327
27116SOL    HW293411   9.435   5.290   4.224
27117SOL     OW93412   9.717   4.638   3.711
27117SOL    HW193413   9.686   4.672   3.623
27117SOL    HW293414   9.721   4.713   3.777
27118SOL     OW93415   9.321   4.530   3.884
27118SOL    HW193416   9.381   4.477   3.944
27118SOL    HW293417   9.227   4.498   3.896
27119SOL     OW93418  10.089   5.515   4.732
27119SOL    HW193419  10.135   5.448   4.674
27119SOL    HW293420  10.015   5.471   4.782
27120SOL     OW93421   9.489   4.317   5.214
27120SOL    HW193422   9.509   4.222   5.189
27120SOL    HW293423   9.452   4.320   5.307
27121SOL     OW93424   9.371   3.972   5.104
27121SOL    HW193425   9.443   3.982   5.035
27121SOL    HW293426   9.282   3.971   5.059
27122SOL     OW93427   9.519   4.750   4.564
27122SOL    HW193428   9.442   4.812   4.557
27122SOL    HW293429   9.556   4.751   4.657
27123SOL     OW93430   9.263   4.003   4.166
27123SOL    HW193431   9.323   3.954   4.104
27123SOL    HW293432   9.318   4.055   4.231
27124SOL     OW93433  10.050   4.468   5.015
27124SOL    HW193434  10.052   4.554   5.066
27124SOL    HW293435  10.107   4.400   5.062
27125SOL     OW93436   9.287   5.495   5.086
27125SOL    HW193437   9.295   5.595   5.084
27125SOL    HW293438   9.263   5.466   5.179
27126SOL     OW93439   9.590   4.232   4.619
27126SOL    HW193440   9.646   4.225   4.536
27126SOL    HW293441   9.647   4.210   4.699
27127SOL     OW93442   9.587   5.430   3.890
27127SOL    HW193443   9.679   5.460   3.865
27127SOL    HW293444   9.562   5.469   3.979
27128SOL     OW93445   9.268   4.847   4.639
27128SOL    HW193446   9.178   4.863   4.600
27128SOL    HW293447   9.266   4.763   4.694
27129SOL     OW93448   9.264   4.888   4.183
27129SOL    HW193449   9.342   4.946   4.207
27129SOL    HW293450   9.283   4.839   4.098
27130SOL     OW93451   9.794   5.071   5.491
27130SOL    HW193452   9.755   5.134   5.424
27130SOL    HW293453   9.877   5.111   5.531
27131SOL     OW93454   9.670   4.803   5.323
27131SOL    HW193455   9.689   4.827   5.228
27131SOL    HW293456   9.663   4.886   5.378
27132SOL     OW93457   9.331   5.093   4.797
27132SOL    HW193458   9.300   5.019   4.738
27132SOL    HW293459   9.263   5.111   4.868
27133SOL     OW93460   9.983   5.197   5.130
27133SOL    HW193461   9.920   5.275   5.137
27133SOL    HW293462   9.951   5.135   5.058
27134SOL     OW93463   9.374   3.992   5.395
27134SOL    HW193464   9.392   3.981   5.297
27134SOL    HW293465   9.276   3.988   5.412
27135SOL     OW93466   9.254   5.406   5.339
27135SOL    HW193467   9.326   5.392   5.407
27135SOL    HW293468   9.165   5.409   5.384
27136SOL     OW93469   9.422   4.062   4.363
27136SOL    HW193470   9.365   4.117   4.424
27136SOL    HW293471   9.492   4.014   4.416
27137SOL     OW93472   9.559   4.253   3.961
27137SOL    HW193473   9.631   4.282   3.898
27137SOL    HW293474   9.515   4.333   4.001
27138SOL     OW93475   9.674   5.516   4.427
27138SOL    HW193476   9.598   5.482   4.372
27138SOL    HW293477   9.760   5.479   4.392
27139SOL     OW93478   9.599   5.025   4.872
27139SOL    HW193479   9.611   5.041   4.969
27139SOL    HW293480   9.512   5.065   4.842
27140SOL     OW93481   9.605   4.500   4.410
27140SOL    HW193482   9.597   4.598   4.428
27140SOL    HW293483   9.689   4.466   4.451
27141SOL     OW93484   9.451   3.980   3.925
27141SOL    HW193485   9.495   3.949   3.842
27141SOL    HW293486   9.452   4.080   3.929
27142SOL     OW93487   9.304   4.232   4.536
27142SOL    HW193488   9.268   4.325   4.528
27142SOL    HW293489   9.387   4.233   4.592
27143SOL     OW93490   9.739   4.819   3.922
27143SOL    HW193491   9.839   4.819   3.933
27143SOL    HW293492   9.708   4.912   3.901
27144SOL     OW93493  10.100   4.330   3.881
27144SOL    HW193494  10.190   4.331   3.836
27144SOL    HW293495  10.077   4.236   3.906
27145SOL     OW93496   9.300   3.762   3.835
27145SOL    HW193497   9.363   3.685   3.843
27145SOL    HW293498   9.320   3.830   3.906
27146SOL     OW93499   9.573   4.737   4.836
27146SOL    HW193500   9.584   4.692   4.925
27146SOL    HW293501   9.600   4.833   4.843
27147SOL     OW93502   9.854   4.350   4.858
27147SOL    HW193503   9.929   4.393   4.907
27147SOL    HW293504   9.787   4.315   4.924
27148SOL     OW93505   9.997   4.719   5.175
27148SOL    HW193506  10.066   4.771   5.125
27148SOL    HW293507   9.992   4.752   5.270
27149SOL     OW93508   9.846   3.799   4.602
27149SOL    HW193509   9.774   3.732   4.588
27149SOL    HW293510   9.928   3.753   4.637
27150SOL     OW93511   9.546   5.464   4.969
27150SOL    HW193512   9.526   5.446   4.873
27150SOL    HW293513   9.473   5.426   5.026
27151SOL     OW93514   9.272   4.666   4.842
27151SOL    HW193515   9.361   4.644   4.882
27151SOL    HW293516   9.217   4.582   4.838
27152SOL     OW93517   9.500   3.711   4.122
27152SOL    HW193518   9.538   3.799   4.149
27152SOL    HW293519   9.423   3.687   4.182
27153SOL     OW93520   9.916   4.328   5.450
27153SOL    HW193521   9.868   4.379   5.379
27153SOL    HW293522  10.009   4.307   5.420
27154SOL     OW93523   9.322   4.798   3.942
27154SOL    HW193524   9.312   4.701   3.921
27154SOL    HW293525   9.375   4.843   3.870
27155SOL     OW93526   9.523   4.566   5.071
27155SOL    HW193527   9.487   4.476   5.097
27155SOL    HW293528   9.484   4.636   5.131
27156SOL     OW93529  10.025   5.192   3.729
27156SOL    HW193530  10.000   5.269   3.788
27156SOL    HW293531  10.089   5.132   3.777
27157SOL     OW93532   9.843   5.399   4.763
27157SOL    HW193533   9.863   5.369   4.670
27157SOL    HW293534   9.768   5.344   4.800
27158SOL     OW93535   9.354   4.504   4.549
27158SOL    HW193536   9.449   4.495   4.517
27158SOL    HW293537   9.320   4.596   4.528
27159SOL     OW93538   9.291   4.621   5.476
27159SOL    HW193539   9.206   4.572   5.457
27159SOL    HW293540   9.318   4.608   5.571
27160SOL     OW93541   9.691   4.148   5.476
27160SOL    HW193542   9.727   4.095   5.399
27160SOL    HW293543   9.752   4.225   5.494
27161SOL     OW93544   9.755   4.565   4.048
27161SOL    HW193545   9.705   4.630   3.992
27161SOL    HW293546   9.697   4.486   4.067
27162SOL     OW93547   9.229   3.738   4.243
27162SOL    HW193548   9.142   3.725   4.196
27162SOL    HW293549   9.237   3.833   4.273
27163SOL     OW93550   9.666   5.258   5.309
27163SOL    HW193551   9.608   5.323   5.358
27163SOL    HW293552   9.728   5.308   5.249
27164SOL     OW93553   9.676   5.204   4.372
27164SOL    HW193554   9.674   5.105   4.385
27164SOL    HW293555   9.585   5.237   4.349
27165SOL     OW93556   9.526   5.451   5.459
27165SOL    HW193557   9.569   5.535   5.425
27165SOL    HW293558   9.551   5.438   5.555
27166SOL     OW93559   9.386   4.987   5.330
27166SOL    HW193560   9.365   4.892   5.303
27166SOL    HW293561   9.317   5.048   5.292
27167SOL     OW93562   9.475   5.352   4.734
27167SOL    HW193563   9.417   5.272   4.748
27167SOL    HW293564   9.499   5.359   4.637
27168SOL     OW93565   9.767   4.223   4.419
27168SOL    HW193566   9.805   4.134   4.445
27168SOL    HW293567   9.834   4.273   4.364
27169SOL     OW93568   9.755   4.781   5.073
27169SOL    HW193569   9.851   4.761   5.093
27169SOL    HW293570   9.744   4.879   5.055
27170SOL     OW93571   9.460   4.933   3.734
27170SOL    HW193572   9.452   4.945   3.635
27170SOL    HW293573   9.519   5.004   3.772
27171SOL     OW93574   9.887   5.372   3.894
27171SOL    HW193575   9.862   5.467   3.878
27171SOL    HW293576   9.854   5.344   3.984
27172SOL     OW93577   9.804   5.411   5.118
27172SOL    HW193578   9.853   5.491   5.082
27172SOL    HW293579   9.712   5.409   5.079
27173SOL     OW93580   9.447   4.292   5.480
27173SOL    HW193581   9.464   4.193   5.485
27173SOL    HW293582   9.511   4.340   5.541
27174SOL     OW93583   9.282   4.626   4.280
27174SOL    HW193584   9.289   4.725   4.267
27174SOL    HW293585   9.191   4.603   4.314
27175SOL     OW93586   9.791   4.424   5.218
27175SOL    HW193587   9.697   4.394   5.199
27175SOL    HW293588   9.800   4.521   5.195
27176SOL     OW93589  10.016   4.206   4.699
27176SOL    HW193590  10.108   4.234   4.726
27176SOL    HW293591   9.948   4.257   4.753
27177SOL     OW93592   9.869   5.057   4.926
27177SOL    HW193593   9.782   5.056   4.877
27177SOL    HW293594   9.935   4.997   4.879
27178SOL     OW93595   9.435   4.399   4.840
27178SOL    HW193596   9.473   4.458   4.911
27178SOL    HW293597   9.418   4.452   4.758
27179SOL     OW93598   9.606   5.045   5.138
27179SOL    HW193599   9.625   5.133   5.182
27179SOL    HW293600   9.511   5.019   5.156
27180SOL     OW93601   9.580   3.887   5.555
27180SOL    HW193602   9.493   3.884   5.506
27180SOL    HW293603   9.631   3.969   5.527
27181SOL     OW93604   9.790   5.241   5.959
27181SOL    HW193605   9.746   5.250   6.048
27181SOL    HW293606   9.861   5.171   5.963
27182SOL     OW93607   9.808   3.774   5.681
27182SOL    HW193608   9.896   3.802   5.642
27182SOL    HW293609   9.736   3.837   5.651
27183SOL     OW93610   9.717   4.914   6.254
27183SOL    HW193611   9.650   4.868   6.313
27183SOL    HW293612   9.809   4.882   6.277
27184SOL     OW93613   9.647   5.083   5.738
27184SOL    HW193614   9.711   5.099   5.663
27184SOL    HW293615   9.671   5.141   5.816
27185SOL     OW93616   9.798   4.039   6.548
27185SOL    HW193617   9.874   4.104   6.544
27185SOL    HW293618   9.828   3.950   6.515
27186SOL     OW93619   9.495   4.465   5.966
27186SOL    HW193620   9.510   4.399   6.040
27186SOL    HW293621   9.445   4.544   6.001
27187SOL     OW93622   9.409   4.727   7.110
27187SOL    HW193623   9.505   4.742   7.128
27187SOL    HW293624   9.371   4.665   7.179
27188SOL     OW93625   9.735   4.372   5.653
27188SOL    HW193626   9.695   4.451   5.606
27188SOL    HW293627   9.824   4.351   5.613
27189SOL     OW93628   9.908   5.296   6.351
27189SOL    HW193629   9.981   5.319   6.287
27189SOL    HW293630   9.837   5.243   6.305
27190SOL     OW93631   9.585   4.949   6.003
27190SOL    HW193632   9.631   4.923   6.088
27190SOL    HW293633   9.605   4.881   5.932
27191SOL     OW93634   9.595   4.209   6.809
27191SOL    HW193635   9.585   4.122   6.761
27191SOL    HW293636   9.531   4.276   6.772
27192SOL     OW93637   9.630   3.981   5.968
27192SOL    HW193638   9.584   4.021   6.047
27192SOL    HW293639   9.578   4.000   5.886
27193SOL     OW93640   9.964   4.839   7.284
27193SOL    HW193641   9.935   4.916   7.341
27193SOL    HW293642   9.974   4.758   7.342
27194SOL     OW93643   9.257   4.313   6.063
27194SOL    HW193644   9.259   4.264   6.150
27194SOL    HW293645   9.259   4.412   6.081
27195SOL     OW93646   9.578   3.901   6.384
27195SOL    HW193647   9.630   3.941   6.459
27195SOL    HW293648   9.631   3.828   6.341
27196SOL     OW93649   9.562   3.949   6.718
27196SOL    HW193650   9.527   3.856   6.718
27196SOL    HW293651   9.649   3.952   6.669
27197SOL     OW93652   9.430   5.198   5.917
27197SOL    HW193653   9.457   5.104   5.937
27197SOL    HW293654   9.455   5.220   5.823
27198SOL     OW93655   9.444   5.341   6.154
27198SOL    HW193656   9.360   5.392   6.172
27198SOL    HW293657   9.435   5.290   6.069
27199SOL     OW93658   9.717   4.638   5.556
27199SOL    HW193659   9.686   4.672   5.468
27199SOL    HW293660   9.721   4.713   5.622
27200SOL     OW93661   9.321   4.530   5.729
27200SOL    HW193662   9.381   4.477   5.789
27200SOL    HW293663   9.227   4.498   5.741
27201SOL     OW93664  10.089   5.515   6.577
27201SOL    HW193665  10.135   5.448   6.519
27201SOL    HW293666  10.015   5.471   6.627
27202SOL     OW93667   9.489   4.317   7.059
27202SOL    HW193668   9.509   4.222   7.034
27202SOL    HW293669   9.452   4.320   7.152
27203SOL     OW93670   9.371   3.972   6.949
27203SOL    HW193671   9.443   3.982   6.880
27203SOL    HW293672   9.282   3.971   6.904
27204SOL     OW93673   9.519   4.750   6.409
27204SOL    HW193674   9.442   4.812   6.402
27204SOL    HW293675   9.556   4.751   6.502
27205SOL     OW93676   9.263   4.003   6.011
27205SOL    HW193677   9.323   3.954   5.949
27205SOL    HW293678   9.318   4.055   6.076
27206SOL     OW93679  10.050   4.468   6.860
27206SOL    HW193680  10.052   4.554   6.911
27206SOL    HW293681  10.107   4.400   6.907
27207SOL     OW93682   9.287   5.495   6.931
27207SOL    HW193683   9.295   5.595   6.929
27207SOL    HW293684   9.263   5.466   7.024
27208SOL     OW93685   9.590   4.232   6.464
27208SOL    HW193686   9.646   4.225   6.381
27208SOL    HW293687   9.647   4.210   6.544
27209SOL     OW93688   9.587   5.430   5.735
27209SOL    HW193689   9.679   5.460   5.710
27209SOL    HW293690   9.562   5.469   5.824
27210SOL     OW93691   9.268   4.847   6.484
27210SOL    HW193692   9.178   4.863   6.445
27210SOL    HW293693   9.266   4.763   6.539
27211SOL     OW93694   9.264   4.888   6.028
27211SOL    HW193695   9.342   4.946   6.052
27211SOL    HW293696   9.283   4.839   5.943
27212SOL     OW93697   9.794   5.071   7.336
27212SOL    HW193698   9.755   5.134   7.269
27212SOL    HW293699   9.877   5.111   7.376
27213SOL     OW93700   9.670   4.803   7.168
27213SOL    HW193701   9.689   4.827   7.073
27213SOL    HW293702   9.663   4.886   7.223
27214SOL     OW93703   9.331   5.093   6.642
27214SOL    HW193704   9.300   5.019   6.583
27214SOL    HW293705   9.263   5.111   6.713
27215SOL     OW93706   9.983   5.197   6.975
27215SOL    HW193707   9.920   5.275   6.982
27215SOL    HW293708   9.951   5.135   6.903
27216SOL     OW93709   9.374   3.992   7.240
27216SOL    HW193710   9.392   3.981   7.142
27216SOL    HW293711   9.276   3.988   7.257
27217SOL     OW93712   9.254   5.406   7.184
27217SOL    HW193713   9.326   5.392   7.252
27217SOL    HW293714   9.165   5.409   7.229
27218SOL     OW93715   9.422   4.062   6.208
27218SOL    HW193716   9.365   4.117   6.269
27218SOL    HW293717   9.492   4.014   6.261
27219SOL     OW93718   9.559   4.253   5.806
27219SOL    HW193719   9.631   4.282   5.743
27219SOL    HW293720   9.515   4.333   5.846
27220SOL     OW93721   9.674   5.516   6.272
27220SOL    HW193722   9.598   5.482   6.217
27220SOL    HW293723   9.760   5.479   6.237
27221SOL     OW93724   9.599   5.025   6.717
27221SOL    HW193725   9.611   5.041   6.814
27221SOL    HW293726   9.512   5.065   6.687
27222SOL     OW93727   9.605   4.500   6.255
27222SOL    HW193728   9.597   4.598   6.273
27222SOL    HW293729   9.689   4.466   6.296
27223SOL     OW93730   9.451   3.980   5.770
27223SOL    HW193731   9.495   3.949   5.687
27223SOL    HW293732   9.452   4.080   5.774
27224SOL     OW93733   9.304   4.232   6.381
27224SOL    HW193734   9.268   4.325   6.373
27224SOL    HW293735   9.387   4.233   6.437
27225SOL     OW93736   9.739   4.819   5.767
27225SOL    HW193737   9.839   4.819   5.778
27225SOL    HW293738   9.708   4.912   5.746
27226SOL     OW93739  10.100   4.330   5.726
27226SOL    HW193740  10.190   4.331   5.681
27226SOL    HW293741  10.077   4.236   5.751
27227SOL     OW93742   9.300   3.762   5.680
27227SOL    HW193743   9.363   3.685   5.688
27227SOL    HW293744   9.320   3.830   5.751
27228SOL     OW93745   9.573   4.737   6.681
27228SOL    HW193746   9.584   4.692   6.770
27228SOL    HW293747   9.600   4.833   6.688
27229SOL     OW93748   9.854   4.350   6.703
27229SOL    HW193749   9.929   4.393   6.752
27229SOL    HW293750   9.787   4.315   6.769
27230SOL     OW93751   9.997   4.719   7.020
27230SOL    HW193752  10.066   4.771   6.970
27230SOL    HW293753   9.992   4.752   7.115
27231SOL     OW93754   9.846   3.799   6.447
27231SOL    HW193755   9.774   3.732   6.433
27231SOL    HW293756   9.928   3.753   6.482
27232SOL     OW93757   9.546   5.464   6.814
27232SOL    HW193758   9.526   5.446   6.718
27232SOL    HW293759   9.473   5.426   6.871
27233SOL     OW93760   9.272   4.666   6.687
27233SOL    HW193761   9.361   4.644   6.727
27233SOL    HW293762   9.217   4.582   6.683
27234SOL     OW93763   9.500   3.711   5.967
27234SOL    HW193764   9.538   3.799   5.994
27234SOL    HW293765   9.423   3.687   6.027
27235SOL     OW93766   9.916   4.328   7.295
27235SOL    HW193767   9.868   4.379   7.224
27235SOL    HW293768  10.009   4.307   7.265
27236SOL     OW93769   9.322   4.798   5.787
27236SOL    HW193770   9.312   4.701   5.766
27236SOL    HW293771   9.375   4.843   5.715
27237SOL     OW93772   9.523   4.566   6.916
27237SOL    HW193773   9.487   4.476   6.942
27237SOL    HW293774   9.484   4.636   6.976
27238SOL     OW93775  10.025   5.192   5.574
27238SOL    HW193776  10.000   5.269   5.633
27238SOL    HW293777  10.089   5.132   5.622
27239SOL     OW93778   9.843   5.399   6.608
27239SOL    HW193779   9.863   5.369   6.515
27239SOL    HW293780   9.768   5.344   6.645
27240SOL     OW93781   9.354   4.504   6.394
27240SOL    HW193782   9.449   4.495   6.362
27240SOL    HW293783   9.320   4.596   6.373
27241SOL     OW93784   9.291   4.621   7.321
27241SOL    HW193785   9.206   4.572   7.302
27241SOL    HW293786   9.318   4.608   7.416
27242SOL     OW93787   9.691   4.148   7.321
27242SOL    HW193788   9.727   4.095   7.244
27242SOL    HW293789   9.752   4.225   7.339
27243SOL     OW93790   9.755   4.565   5.893
27243SOL    HW193791   9.705   4.630   5.837
27243SOL    HW293792   9.697   4.486   5.912
27244SOL     OW93793   9.229   3.738   6.088
27244SOL    HW193794   9.142   3.725   6.041
27244SOL    HW293795   9.237   3.833   6.118
27245SOL     OW93796   9.666   5.258   7.154
27245SOL    HW193797   9.608   5.323   7.203
27245SOL    HW293798   9.728   5.308   7.094
27246SOL     OW93799   9.676   5.204   6.217
27246SOL    HW193800   9.674   5.105   6.230
27246SOL    HW293801   9.585   5.237   6.194
27247SOL     OW93802   9.526   5.451   7.304
27247SOL    HW193803   9.569   5.535   7.270
27247SOL    HW293804   9.551   5.438   7.400
27248SOL     OW93805   9.386   4.987   7.175
27248SOL    HW193806   9.365   4.892   7.148
27248SOL    HW293807   9.317   5.048   7.137
27249SOL     OW93808   9.475   5.352   6.579
27249SOL    HW193809   9.417   5.272   6.593
27249SOL    HW293810   9.499   5.359   6.482
27250SOL     OW93811   9.767   4.223   6.264
27250SOL    HW193812   9.805   4.134   6.290
27250SOL    HW293813   9.834   4.273   6.209
27251SOL     OW93814   9.755   4.781   6.918
27251SOL    HW193815   9.851   4.761   6.938
27251SOL    HW293816   9.744   4.879   6.900
27252SOL     OW93817   9.460   4.933   5.579
27252SOL    HW193818   9.452   4.945   5.480
27252SOL    HW293819   9.519   5.004   5.617
27253SOL     OW93820   9.887   5.372   5.739
27253SOL    HW193821   9.862   5.467   5.723
27253SOL    HW293822   9.854   5.344   5.829
27254SOL     OW93823   9.804   5.411   6.963
27254SOL    HW193824   9.853   5.491   6.927
27254SOL    HW293825   9.712   5.409   6.924
27255SOL     OW93826   9.447   4.292   7.325
27255SOL    HW193827   9.464   4.193   7.330
27255SOL    HW293828   9.511   4.340   7.386
27256SOL     OW93829   9.282   4.626   6.125
27256SOL    HW193830   9.289   4.725   6.112
27256SOL    HW293831   9.191   4.603   6.159
27257SOL     OW93832   9.791   4.424   7.063
27257SOL    HW193833   9.697   4.394   7.044
27257SOL    HW293834   9.800   4.521   7.040
27258SOL     OW93835  10.016   4.206   6.544
27258SOL    HW193836  10.108   4.234   6.571
27258SOL    HW293837   9.948   4.257   6.598
27259SOL     OW93838   9.869   5.057   6.771
27259SOL    HW193839   9.782   5.056   6.722
27259SOL    HW293840   9.935   4.997   6.724
27260SOL     OW93841   9.435   4.399   6.685
27260SOL    HW193842   9.473   4.458   6.756
27260SOL    HW293843   9.418   4.452   6.603
27261SOL     OW93844   9.606   5.045   6.983
27261SOL    HW193845   9.625   5.133   7.027
27261SOL    HW293846   9.511   5.019   7.001
27262SOL     OW93847   9.580   3.887   7.401
27262SOL    HW193848   9.493   3.884   7.352
27262SOL    HW293849   9.631   3.969   7.373
27263SOL     OW93850   9.790   5.241   7.805
27263SOL    HW193851   9.746   5.250   7.894
27263SOL    HW293852   9.861   5.171   7.809
27264SOL     OW93853   9.808   3.774   7.527
27264SOL    HW193854   9.896   3.802   7.488
27264SOL    HW293855   9.736   3.837   7.497
27265SOL     OW93856   9.717   4.914   8.100
27265SOL    HW193857   9.650   4.868   8.159
27265SOL    HW293858   9.809   4.882   8.123
27266SOL     OW93859   9.647   5.083   7.584
27266SOL    HW193860   9.711   5.099   7.509
27266SOL    HW293861   9.671   5.141   7.662
27267SOL     OW93862   9.798   4.039   8.394
27267SOL    HW193863   9.874   4.104   8.390
27267SOL    HW293864   9.828   3.950   8.361
27268SOL     OW93865   9.495   4.465   7.812
27268SOL    HW193866   9.510   4.399   7.886
27268SOL    HW293867   9.445   4.544   7.847
27269SOL     OW93868   9.409   4.727   8.956
27269SOL    HW193869   9.505   4.742   8.974
27269SOL    HW293870   9.371   4.665   9.025
27270SOL     OW93871   9.735   4.372   7.499
27270SOL    HW193872   9.695   4.451   7.452
27270SOL    HW293873   9.824   4.351   7.459
27271SOL     OW93874   9.908   5.296   8.197
27271SOL    HW193875   9.981   5.319   8.133
27271SOL    HW293876   9.837   5.243   8.151
27272SOL     OW93877   9.585   4.949   7.849
27272SOL    HW193878   9.631   4.923   7.934
27272SOL    HW293879   9.605   4.881   7.778
27273SOL     OW93880   9.595   4.209   8.655
27273SOL    HW193881   9.585   4.122   8.607
27273SOL    HW293882   9.531   4.276   8.618
27274SOL     OW93883   9.630   3.981   7.814
27274SOL    HW193884   9.584   4.021   7.893
27274SOL    HW293885   9.578   4.000   7.732
27275SOL     OW93886   9.964   4.839   9.130
27275SOL    HW193887   9.935   4.916   9.187
27275SOL    HW293888   9.974   4.758   9.188
27276SOL     OW93889   9.257   4.313   7.909
27276SOL    HW193890   9.259   4.264   7.996
27276SOL    HW293891   9.259   4.412   7.927
27277SOL     OW93892   9.578   3.901   8.230
27277SOL    HW193893   9.630   3.941   8.305
27277SOL    HW293894   9.631   3.828   8.187
27278SOL     OW93895   9.562   3.949   8.564
27278SOL    HW193896   9.527   3.856   8.564
27278SOL    HW293897   9.649   3.952   8.515
27279SOL     OW93898   9.430   5.198   7.763
27279SOL    HW193899   9.457   5.104   7.783
27279SOL    HW293900   9.455   5.220   7.669
27280SOL     OW93901   9.444   5.341   8.000
27280SOL    HW193902   9.360   5.392   8.018
27280SOL    HW293903   9.435   5.290   7.915
27281SOL     OW93904   9.717   4.638   7.402
27281SOL    HW193905   9.686   4.672   7.314
27281SOL    HW293906   9.721   4.713   7.468
27282SOL     OW93907   9.321   4.530   7.575
27282SOL    HW193908   9.381   4.477   7.635
27282SOL    HW293909   9.227   4.498   7.587
27283SOL     OW93910  10.089   5.515   8.423
27283SOL    HW193911  10.135   5.448   8.365
27283SOL    HW293912  10.015   5.471   8.473
27284SOL     OW93913   9.489   4.317   8.905
27284SOL    HW193914   9.509   4.222   8.880
27284SOL    HW293915   9.452   4.320   8.998
27285SOL     OW93916   9.371   3.972   8.795
27285SOL    HW193917   9.443   3.982   8.726
27285SOL    HW293918   9.282   3.971   8.750
27286SOL     OW93919   9.519   4.750   8.255
27286SOL    HW193920   9.442   4.812   8.248
27286SOL    HW293921   9.556   4.751   8.348
27287SOL     OW93922   9.263   4.003   7.857
27287SOL    HW193923   9.323   3.954   7.795
27287SOL    HW293924   9.318   4.055   7.922
27288SOL     OW93925  10.050   4.468   8.706
27288SOL    HW193926  10.052   4.554   8.757
27288SOL    HW293927  10.107   4.400   8.753
27289SOL     OW93928   9.287   5.495   8.777
27289SOL    HW193929   9.295   5.595   8.775
27289SOL    HW293930   9.263   5.466   8.870
27290SOL     OW93931   9.590   4.232   8.310
27290SOL    HW193932   9.646   4.225   8.227
27290SOL    HW293933   9.647   4.210   8.390
27291SOL     OW93934   9.587   5.430   7.581
27291SOL    HW193935   9.679   5.460   7.556
27291SOL    HW293936   9.562   5.469   7.670
27292SOL     OW93937   9.268   4.847   8.330
27292SOL    HW193938   9.178   4.863   8.291
27292SOL    HW293939   9.266   4.763   8.385
27293SOL     OW93940   9.264   4.888   7.874
27293SOL    HW193941   9.342   4.946   7.898
27293SOL    HW293942   9.283   4.839   7.789
27294SOL     OW93943   9.794   5.071   9.182
27294SOL    HW193944   9.755   5.134   9.115
27294SOL    HW293945   9.877   5.111   9.222
27295SOL     OW93946   9.670   4.803   9.014
27295SOL    HW193947   9.689   4.827   8.919
27295SOL    HW293948   9.663   4.886   9.069
27296SOL     OW93949   9.331   5.093   8.488
27296SOL    HW193950   9.300   5.019   8.429
27296SOL    HW293951   9.263   5.111   8.559
27297SOL     OW93952   9.983   5.197   8.821
27297SOL    HW193953   9.920   5.275   8.828
27297SOL    HW293954   9.951   5.135   8.749
27298SOL     OW93955   9.374   3.992   9.086
27298SOL    HW193956   9.392   3.981   8.988
27298SOL    HW293957   9.276   3.988   9.103
27299SOL     OW93958   9.254   5.406   9.030
27299SOL    HW193959   9.326   5.392   9.098
27299SOL    HW293960   9.165   5.409   9.075
27300SOL     OW93961   9.422   4.062   8.054
27300SOL    HW193962   9.365   4.117   8.115
27300SOL    HW293963   9.492   4.014   8.107
27301SOL     OW93964   9.559   4.253   7.652
27301SOL    HW193965   9.631   4.282   7.589
27301SOL    HW293966   9.515   4.333   7.692
27302SOL     OW93967   9.674   5.516   8.118
27302SOL    HW193968   9.598   5.482   8.063
27302SOL    HW293969   9.760   5.479   8.083
27303SOL     OW93970   9.599   5.025   8.563
27303SOL    HW193971   9.611   5.041   8.660
27303SOL    HW293972   9.512   5.065   8.533
27304SOL     OW93973   9.605   4.500   8.101
27304SOL    HW193974   9.597   4.598   8.119
27304SOL    HW293975   9.689   4.466   8.142
27305SOL     OW93976   9.451   3.980   7.616
27305SOL    HW193977   9.495   3.949   7.533
27305SOL    HW293978   9.452   4.080   7.620
27306SOL     OW93979   9.304   4.232   8.227
27306SOL    HW193980   9.268   4.325   8.219
27306SOL    HW293981   9.387   4.233   8.283
27307SOL     OW93982   9.739   4.819   7.613
27307SOL    HW193983   9.839   4.819   7.624
27307SOL    HW293984   9.708   4.912   7.592
27308SOL     OW93985  10.100   4.330   7.572
27308SOL    HW193986  10.190   4.331   7.527
27308SOL    HW293987  10.077   4.236   7.597
27309SOL     OW93988   9.300   3.762   7.526
27309SOL    HW193989   9.363   3.685   7.534
27309SOL    HW293990   9.320   3.830   7.597
27310SOL     OW93991   9.573   4.737   8.527
27310SOL    HW193992   9.584   4.692   8.616
27310SOL    HW293993   9.600   4.833   8.534
27311SOL     OW93994   9.854   4.350   8.549
27311SOL    HW193995   9.929   4.393   8.598
27311SOL    HW293996   9.787   4.315   8.615
27312SOL     OW93997   9.997   4.719   8.866
27312SOL    HW193998  10.066   4.771   8.816
27312SOL    HW293999   9.992   4.752   8.961
27313SOL     OW94000   9.846   3.799   8.293
27313SOL    HW194001   9.774   3.732   8.279
27313SOL    HW294002   9.928   3.753   8.328
27314SOL     OW94003   9.546   5.464   8.660
27314SOL    HW194004   9.526   5.446   8.564
27314SOL    HW294005   9.473   5.426   8.717
27315SOL     OW94006   9.272   4.666   8.533
27315SOL    HW194007   9.361   4.644   8.573
27315SOL    HW294008   9.217   4.582   8.529
27316SOL     OW94009   9.500   3.711   7.813
27316SOL    HW194010   9.538   3.799   7.840
27316SOL    HW294011   9.423   3.687   7.873
27317SOL     OW94012   9.916   4.328   9.141
27317SOL    HW194013   9.868   4.379   9.070
27317SOL    HW294014  10.009   4.307   9.111
27318SOL     OW94015   9.322   4.798   7.633
27318SOL    HW194016   9.312   4.701   7.612
27318SOL    HW294017   9.375   4.843   7.561
27319SOL     OW94018   9.523   4.566   8.762
27319SOL    HW194019   9.487   4.476   8.788
27319SOL    HW294020   9.484   4.636   8.822
27320SOL     OW94021  10.025   5.192   7.420
27320SOL    HW194022  10.000   5.269   7.479
27320SOL    HW294023  10.089   5.132   7.468
27321SOL     OW94024   9.843   5.399   8.454
27321SOL    HW194025   9.863   5.369   8.361
27321SOL    HW294026   9.768   5.344   8.491
27322SOL     OW94027   9.354   4.504   8.240
27322SOL    HW194028   9.449   4.495   8.208
27322SOL    HW294029   9.320   4.596   8.219
27323SOL     OW94030   9.291   4.621   9.167
27323SOL    HW194031   9.206   4.572   9.148
27323SOL    HW294032   9.318   4.608   9.262
27324SOL     OW94033   9.691   4.148   9.167
27324SOL    HW194034   9.727   4.095   9.090
27324SOL    HW294035   9.752   4.225   9.185
27325SOL     OW94036   9.755   4.565   7.739
27325SOL    HW194037   9.705   4.630   7.683
27325SOL    HW294038   9.697   4.486   7.758
27326SOL     OW94039   9.229   3.738   7.934
27326SOL    HW194040   9.142   3.725   7.887
27326SOL    HW294041   9.237   3.833   7.964
27327SOL     OW94042   9.666   5.258   9.000
27327SOL    HW194043   9.608   5.323   9.049
27327SOL    HW294044   9.728   5.308   8.940
27328SOL     OW94045   9.676   5.204   8.063
27328SOL    HW194046   9.674   5.105   8.076
27328SOL    HW294047   9.585   5.237   8.040
27329SOL     OW94048   9.526   5.451   9.150
27329SOL    HW194049   9.569   5.535   9.116
27329SOL    HW294050   9.551   5.438   9.246
27330SOL     OW94051   9.386   4.987   9.021
27330SOL    HW194052   9.365   4.892   8.994
27330SOL    HW294053   9.317   5.048   8.983
27331SOL     OW94054   9.475   5.352   8.425
27331SOL    HW194055   9.417   5.272   8.439
27331SOL    HW294056   9.499   5.359   8.328
27332SOL     OW94057   9.767   4.223   8.110
27332SOL    HW194058   9.805   4.134   8.136
27332SOL    HW294059   9.834   4.273   8.055
27333SOL     OW94060   9.755   4.781   8.764
27333SOL    HW194061   9.851   4.761   8.784
27333SOL    HW294062   9.744   4.879   8.746
27334SOL     OW94063   9.460   4.933   7.425
27334SOL    HW194064   9.452   4.945   7.326
27334SOL    HW294065   9.519   5.004   7.463
27335SOL     OW94066   9.887   5.372   7.585
27335SOL    HW194067   9.862   5.467   7.569
27335SOL    HW294068   9.854   5.344   7.675
27336SOL     OW94069   9.804   5.411   8.809
27336SOL    HW194070   9.853   5.491   8.773
27336SOL    HW294071   9.712   5.409   8.770
27337SOL     OW94072   9.447   4.292   9.171
27337SOL    HW194073   9.464   4.193   9.176
27337SOL    HW294074   9.511   4.340   9.232
27338SOL     OW94075   9.282   4.626   7.971
27338SOL    HW194076   9.289   4.725   7.958
27338SOL    HW294077   9.191   4.603   8.005
27339SOL     OW94078   9.791   4.424   8.909
27339SOL    HW194079   9.697   4.394   8.890
27339SOL    HW294080   9.800   4.521   8.886
27340SOL     OW94081  10.016   4.206   8.390
27340SOL    HW194082  10.108   4.234   8.417
27340SOL    HW294083   9.948   4.257   8.444
27341SOL     OW94084   9.869   5.057   8.617
27341SOL    HW194085   9.782   5.056   8.568
27341SOL    HW294086   9.935   4.997   8.570
27342SOL     OW94087   9.435   4.399   8.531
27342SOL    HW194088   9.473   4.458   8.602
27342SOL    HW294089   9.418   4.452   8.449
27343SOL     OW94090   9.606   5.045   8.829
27343SOL    HW194091   9.625   5.133   8.873
27343SOL    HW294092   9.511   5.019   8.847
27344SOL     OW94093   9.580   3.887   9.246
27344SOL    HW194094   9.493   3.884   9.197
27344SOL    HW294095   9.631   3.969   9.218
27345SOL     OW94096   9.790   5.241   9.650
27345SOL    HW194097   9.746   5.250   9.739
27345SOL    HW294098   9.861   5.171   9.654
27346SOL     OW94099   9.808   3.774   9.372
27346SOL    HW194100   9.896   3.802   9.333
27346SOL    HW294101   9.736   3.837   9.342
27347SOL     OW94102   9.717   4.914   9.945
27347SOL    HW194103   9.650   4.868  10.004
27347SOL    HW294104   9.809   4.882   9.968
27348SOL     OW94105   9.647   5.083   9.429
27348SOL    HW194106   9.711   5.099   9.354
27348SOL    HW294107   9.671   5.141   9.507
27349SOL     OW94108   9.798   4.039  10.239
27349SOL    HW194109   9.874   4.104  10.235
27349SOL    HW294110   9.828   3.950  10.206
27350SOL     OW94111   9.495   4.465   9.657
27350SOL    HW194112   9.510   4.399   9.731
27350SOL    HW294113   9.445   4.544   9.692
27351SOL     OW94114   9.735   4.372   9.344
27351SOL    HW194115   9.695   4.451   9.297
27351SOL    HW294116   9.824   4.351   9.304
27352SOL     OW94117   9.585   4.949   9.694
27352SOL    HW194118   9.631   4.923   9.779
27352SOL    HW294119   9.605   4.881   9.623
27353SOL     OW94120   9.630   3.981   9.659
27353SOL    HW194121   9.584   4.021   9.738
27353SOL    HW294122   9.578   4.000   9.577
27354SOL     OW94123   9.257   4.313   9.754
27354SOL    HW194124   9.259   4.264   9.841
27354SOL    HW294125   9.259   4.412   9.772
27355SOL     OW94126   9.430   5.198   9.608
27355SOL    HW194127   9.457   5.104   9.628
27355SOL    HW294128   9.455   5.220   9.514
27356SOL     OW94129   9.444   5.341   9.845
27356SOL    HW194130   9.360   5.392   9.863
27356SOL    HW294131   9.435   5.290   9.760
27357SOL     OW94132   9.717   4.638   9.247
27357SOL    HW194133   9.686   4.672   9.159
27357SOL    HW294134   9.721   4.713   9.313
27358SOL     OW94135   9.321   4.530   9.420
27358SOL    HW194136   9.381   4.477   9.480
27358SOL    HW294137   9.227   4.498   9.432
27359SOL     OW94138   9.263   4.003   9.702
27359SOL    HW194139   9.323   3.954   9.640
27359SOL    HW294140   9.318   4.055   9.767
27360SOL     OW94141   9.587   5.430   9.426
27360SOL    HW194142   9.679   5.460   9.401
27360SOL    HW294143   9.562   5.469   9.515
27361SOL     OW94144   9.264   4.888   9.719
27361SOL    HW194145   9.342   4.946   9.743
27361SOL    HW294146   9.283   4.839   9.634
27362SOL     OW94147   9.945   3.999   9.956
27362SOL    HW194148   9.934   3.941  10.037
27362SOL    HW294149  10.030   4.051   9.964
27363SOL     OW94150   9.559   4.253   9.497
27363SOL    HW194151   9.631   4.282   9.434
27363SOL    HW294152   9.515   4.333   9.537
27364SOL     OW94153   9.674   5.516   9.963
27364SOL    HW194154   9.598   5.482   9.908
27364SOL    HW294155   9.760   5.479   9.928
27365SOL     OW94156   9.451   3.980   9.461
27365SOL    HW194157   9.495   3.949   9.378
27365SOL    HW294158   9.452   4.080   9.465
27366SOL     OW94159   9.304   4.232  10.072
27366SOL    HW194160   9.268   4.325  10.064
27366SOL    HW294161   9.387   4.233  10.128
27367SOL     OW94162   9.739   4.819   9.458
27367SOL    HW194163   9.839   4.819   9.469
27367SOL    HW294164   9.708   4.912   9.437
27368SOL     OW94165  10.100   4.330   9.417
27368SOL    HW194166  10.190   4.331   9.372
27368SOL    HW294167  10.077   4.236   9.442
27369SOL     OW94168   9.300   3.762   9.371
27369SOL    HW194169   9.363   3.685   9.379
27369SOL    HW294170   9.320   3.830   9.442
27370SOL     OW94171   9.500   3.711   9.658
27370SOL    HW194172   9.538   3.799   9.685
27370SOL    HW294173   9.423   3.687   9.718
27371SOL     OW94174   9.322   4.798   9.478
27371SOL    HW194175   9.312   4.701   9.457
27371SOL    HW294176   9.375   4.843   9.406
27372SOL     OW94177  10.025   5.192   9.265
27372SOL    HW194178  10.000   5.269   9.324
27372SOL    HW294179  10.089   5.132   9.313
27373SOL     OW94180   9.986   4.810  10.016
27373SOL    HW194181  10.075   4.856  10.016
27373SOL    HW294182   9.979   4.750  10.095
27374SOL     OW94183   9.755   4.565   9.584
27374SOL    HW194184   9.705   4.630   9.528
27374SOL    HW294185   9.697   4.486   9.603
27375SOL     OW94186   9.229   3.738   9.779
27375SOL    HW194187   9.142   3.725   9.732
27375SOL    HW294188   9.237   3.833   9.809
27376SOL     OW94189   9.676   5.204   9.908
27376SOL    HW194190   9.674   5.105   9.921
27376SOL    HW294191   9.585   5.237   9.885
27377SOL     OW94192   9.767   4.223   9.955
27377SOL    HW194193   9.805   4.134   9.981
27377SOL    HW294194   9.834   4.273   9.900
27378SOL     OW94195   9.460   4.933   9.270
27378SOL    HW194196   9.452   4.945   9.171
27378SOL    HW294197   9.519   5.004   9.308
27379SOL     OW94198   9.887   5.372   9.430
27379SOL    HW194199   9.862   5.467   9.414
27379SOL    HW294200   9.854   5.344   9.520
27380SOL     OW94201   9.282   4.626   9.816
27380SOL    HW194202   9.289   4.725   9.803
27380SOL    HW294203   9.191   4.603   9.850
27381SOL     OW94204  10.016   4.206  10.235
27381SOL    HW194205  10.108   4.234  10.262
27381SOL    HW294206   9.948   4.257  10.289
27382SOL     OW94207   9.580   5.732   0.019
27382SOL    HW194208   9.493   5.729  -0.030
27382SOL    HW294209   9.631   5.814  -0.009
27383SOL     OW94210   9.790   7.086   0.423
27383SOL    HW194211   9.746   7.095   0.512
27383SOL    HW294212   9.861   7.016   0.427
27384SOL     OW94213   9.808   5.619   0.145
27384SOL    HW194214   9.896   5.647   0.106
27384SOL    HW294215   9.736   5.682   0.115
27385SOL     OW94216   9.798   5.884   1.012
27385SOL    HW194217   9.874   5.949   1.008
27385SOL    HW294218   9.828   5.795   0.979
27386SOL     OW94219   9.495   6.310   0.430
27386SOL    HW194220   9.510   6.244   0.504
27386SOL    HW294221   9.445   6.389   0.465
27387SOL     OW94222   9.409   6.572   1.574
27387SOL    HW194223   9.505   6.587   1.592
27387SOL    HW294224   9.371   6.510   1.643
27388SOL     OW94225   9.735   6.217   0.117
27388SOL    HW194226   9.695   6.296   0.070
27388SOL    HW294227   9.824   6.196   0.077
27389SOL     OW94228   9.908   7.141   0.815
27389SOL    HW194229   9.981   7.164   0.751
27389SOL    HW294230   9.837   7.088   0.769
27390SOL     OW94231   9.595   6.054   1.273
27390SOL    HW194232   9.585   5.967   1.225
27390SOL    HW294233   9.531   6.121   1.236
27391SOL     OW94234   9.630   5.826   0.432
27391SOL    HW194235   9.584   5.866   0.511
27391SOL    HW294236   9.578   5.845   0.350
27392SOL     OW94237   9.964   6.684   1.748
27392SOL    HW194238   9.935   6.761   1.805
27392SOL    HW294239   9.974   6.603   1.806
27393SOL     OW94240   9.257   6.158   0.527
27393SOL    HW194241   9.259   6.109   0.614
27393SOL    HW294242   9.259   6.257   0.545
27394SOL     OW94243   9.578   5.746   0.848
27394SOL    HW194244   9.630   5.786   0.923
27394SOL    HW294245   9.631   5.673   0.805
27395SOL     OW94246   9.562   5.794   1.182
27395SOL    HW194247   9.527   5.701   1.182
27395SOL    HW294248   9.649   5.797   1.133
27396SOL     OW94249   9.717   6.483   0.020
27396SOL    HW194250   9.686   6.517  -0.068
27396SOL    HW294251   9.721   6.558   0.086
27397SOL     OW94252   9.321   6.375   0.193
27397SOL    HW194253   9.381   6.322   0.253
27397SOL    HW294254   9.227   6.343   0.205
27398SOL     OW94255  10.089   7.360   1.041
27398SOL    HW194256  10.135   7.293   0.983
27398SOL    HW294257  10.015   7.316   1.091
27399SOL     OW94258   9.489   6.162   1.523
27399SOL    HW194259   9.509   6.067   1.498
27399SOL    HW294260   9.452   6.165   1.616
27400SOL     OW94261   9.371   5.817   1.413
27400SOL    HW194262   9.443   5.827   1.344
27400SOL    HW294263   9.282   5.816   1.368
27401SOL     OW94264   9.263   5.848   0.475
27401SOL    HW194265   9.323   5.799   0.413
27401SOL    HW294266   9.318   5.900   0.540
27402SOL     OW94267  10.050   6.313   1.324
27402SOL    HW194268  10.052   6.399   1.375
27402SOL    HW294269  10.107   6.245   1.371
27403SOL     OW94270   9.287   7.340   1.395
27403SOL    HW194271   9.295   7.440   1.393
27403SOL    HW294272   9.263   7.311   1.488
27404SOL     OW94273   9.590   6.077   0.928
27404SOL    HW194274   9.646   6.070   0.845
27404SOL    HW294275   9.647   6.055   1.008
27405SOL     OW94276   9.587   7.275   0.199
27405SOL    HW194277   9.679   7.305   0.174
27405SOL    HW294278   9.562   7.314   0.288
27406SOL     OW94279   9.268   6.692   0.948
27406SOL    HW194280   9.178   6.708   0.909
27406SOL    HW294281   9.266   6.608   1.003
27407SOL     OW94282   9.264   6.733   0.492
27407SOL    HW194283   9.342   6.791   0.516
27407SOL    HW294284   9.283   6.684   0.407
27408SOL     OW94285   9.794   6.916   1.800
27408SOL    HW194286   9.755   6.979   1.733
27408SOL    HW294287   9.877   6.956   1.840
27409SOL     OW94288   9.670   6.648   1.632
27409SOL    HW194289   9.689   6.672   1.537
27409SOL    HW294290   9.663   6.731   1.687
27410SOL     OW94291   9.331   6.938   1.106
27410SOL    HW194292   9.300   6.864   1.047
27410SOL    HW294293   9.263   6.956   1.177
27411SOL     OW94294   9.983   7.042   1.439
27411SOL    HW194295   9.920   7.120   1.446
27411SOL    HW294296   9.951   6.980   1.367
27412SOL     OW94297   9.374   5.837   1.704
27412SOL    HW194298   9.392   5.826   1.606
27412SOL    HW294299   9.276   5.833   1.721
27413SOL     OW94300   9.254   7.251   1.648
27413SOL    HW194301   9.326   7.237   1.716
27413SOL    HW294302   9.165   7.254   1.693
27414SOL     OW94303   9.422   5.907   0.672
27414SOL    HW194304   9.365   5.962   0.733
27414SOL    HW294305   9.492   5.859   0.725
27415SOL     OW94306   9.559   6.098   0.270
27415SOL    HW194307   9.631   6.127   0.207
27415SOL    HW294308   9.515   6.178   0.310
27416SOL     OW94309   9.674   7.361   0.736
27416SOL    HW194310   9.598   7.327   0.681
27416SOL    HW294311   9.760   7.324   0.701
27417SOL     OW94312   9.605   6.345   0.719
27417SOL    HW194313   9.597   6.443   0.737
27417SOL    HW294314   9.689   6.311   0.760
27418SOL     OW94315   9.451   5.825   0.234
27418SOL    HW194316   9.495   5.794   0.151
27418SOL    HW294317   9.452   5.925   0.238
27419SOL     OW94318   9.304   6.077   0.845
27419SOL    HW194319   9.268   6.170   0.837
27419SOL    HW294320   9.387   6.078   0.901
27420SOL     OW94321   9.739   6.664   0.231
27420SOL    HW194322   9.839   6.664   0.242
27420SOL    HW294323   9.708   6.757   0.210
27421SOL     OW94324   9.300   5.607   0.144
27421SOL    HW194325   9.363   5.530   0.152
27421SOL    HW294326   9.320   5.675   0.215
27422SOL     OW94327   9.573   6.582   1.145
27422SOL    HW194328   9.584   6.537   1.234
27422SOL    HW294329   9.600   6.678   1.152
27423SOL     OW94330   9.854   6.195   1.167
27423SOL    HW194331   9.929   6.238   1.216
27423SOL    HW294332   9.787   6.160   1.233
27424SOL     OW94333   9.997   6.564   1.484
27424SOL    HW194334  10.066   6.616   1.434
27424SOL    HW294335   9.992   6.597   1.579
27425SOL     OW94336   9.846   5.644   0.911
27425SOL    HW194337   9.774   5.577   0.897
27425SOL    HW294338   9.928   5.598   0.946
27426SOL     OW94339   9.272   6.511   1.151
27426SOL    HW194340   9.361   6.489   1.191
27426SOL    HW294341   9.217   6.427   1.147
27427SOL     OW94342   9.500   5.556   0.431
27427SOL    HW194343   9.538   5.644   0.458
27427SOL    HW294344   9.423   5.532   0.491
27428SOL     OW94345   9.916   6.173   1.759
27428SOL    HW194346   9.868   6.224   1.688
27428SOL    HW294347  10.009   6.152   1.729
27429SOL     OW94348   9.523   6.411   1.380
27429SOL    HW194349   9.487   6.321   1.406
27429SOL    HW294350   9.484   6.481   1.440
27430SOL     OW94351  10.025   7.037   0.038
27430SOL    HW194352  10.000   7.114   0.097
27430SOL    HW294353  10.089   6.977   0.086
27431SOL     OW94354   9.291   6.466   1.785
27431SOL    HW194355   9.206   6.417   1.766
27431SOL    HW294356   9.318   6.453   1.880
27432SOL     OW94357   9.691   5.993   1.785
27432SOL    HW194358   9.727   5.940   1.708
27432SOL    HW294359   9.752   6.070   1.803
27433SOL     OW94360   9.755   6.410   0.357
27433SOL    HW194361   9.705   6.475   0.301
27433SOL    HW294362   9.697   6.331   0.376
27434SOL     OW94363   9.229   5.583   0.552
27434SOL    HW194364   9.142   5.570   0.505
27434SOL    HW294365   9.237   5.678   0.582
27435SOL     OW94366   9.666   7.103   1.618
27435SOL    HW194367   9.608   7.168   1.667
27435SOL    HW294368   9.728   7.153   1.558
27436SOL     OW94369   9.526   7.296   1.768
27436SOL    HW194370   9.569   7.380   1.734
27436SOL    HW294371   9.551   7.283   1.864
27437SOL     OW94372   9.386   6.832   1.639
27437SOL    HW194373   9.365   6.737   1.612
27437SOL    HW294374   9.317   6.893   1.601
27438SOL     OW94375   9.767   6.068   0.728
27438SOL    HW194376   9.805   5.979   0.754
27438SOL    HW294377   9.834   6.118   0.673
27439SOL     OW94378   9.755   6.626   1.382
27439SOL    HW194379   9.851   6.606   1.402
27439SOL    HW294380   9.744   6.724   1.364
27440SOL     OW94381   9.887   7.217   0.203
27440SOL    HW194382   9.862   7.312   0.187
27440SOL    HW294383   9.854   7.189   0.293
27441SOL     OW94384   9.804   7.256   1.427
27441SOL    HW194385   9.853   7.336   1.391
27441SOL    HW294386   9.712   7.254   1.388
27442SOL     OW94387   9.447   6.137   1.789
27442SOL    HW194388   9.464   6.038   1.794
27442SOL    HW294389   9.511   6.185   1.850
27443SOL     OW94390   9.282   6.471   0.589
27443SOL    HW194391   9.289   6.570   0.576
27443SOL    HW294392   9.191   6.448   0.623
27444SOL     OW94393   9.791   6.269   1.527
27444SOL    HW194394   9.697   6.239   1.508
27444SOL    HW294395   9.800   6.366   1.504
27445SOL     OW94396  10.016   6.051   1.008
27445SOL    HW194397  10.108   6.079   1.035
27445SOL    HW294398   9.948   6.102   1.062
27446SOL     OW94399   9.435   6.244   1.149
27446SOL    HW194400   9.473   6.303   1.220
27446SOL    HW294401   9.418   6.297   1.067
27447SOL     OW94402   9.606   6.890   1.447
27447SOL    HW194403   9.625   6.978   1.491
27447SOL    HW294404   9.511   6.864   1.465
27448SOL     OW94405   9.580   5.732   1.864
27448SOL    HW194406   9.493   5.729   1.815
27448SOL    HW294407   9.631   5.814   1.836
27449SOL     OW94408   9.790   7.086   2.268
27449SOL    HW194409   9.746   7.095   2.357
27449SOL    HW294410   9.861   7.016   2.272
27450SOL     OW94411   9.808   5.619   1.990
27450SOL    HW194412   9.896   5.647   1.951
27450SOL    HW294413   9.736   5.682   1.960
27451SOL     OW94414   9.717   6.759   2.563
27451SOL    HW194415   9.650   6.713   2.622
27451SOL    HW294416   9.809   6.727   2.586
27452SOL     OW94417   9.647   6.928   2.047
27452SOL    HW194418   9.711   6.944   1.972
27452SOL    HW294419   9.671   6.986   2.125
27453SOL     OW94420   9.798   5.884   2.857
27453SOL    HW194421   9.874   5.949   2.853
27453SOL    HW294422   9.828   5.795   2.824
27454SOL     OW94423   9.495   6.310   2.275
27454SOL    HW194424   9.510   6.244   2.349
27454SOL    HW294425   9.445   6.389   2.310
27455SOL     OW94426   9.409   6.572   3.419
27455SOL    HW194427   9.505   6.587   3.437
27455SOL    HW294428   9.371   6.510   3.488
27456SOL     OW94429   9.735   6.217   1.962
27456SOL    HW194430   9.695   6.296   1.915
27456SOL    HW294431   9.824   6.196   1.922
27457SOL     OW94432   9.908   7.141   2.660
27457SOL    HW194433   9.981   7.164   2.596
27457SOL    HW294434   9.837   7.088   2.614
27458SOL     OW94435   9.585   6.794   2.312
27458SOL    HW194436   9.631   6.768   2.397
27458SOL    HW294437   9.605   6.726   2.241
27459SOL     OW94438   9.595   6.054   3.118
27459SOL    HW194439   9.585   5.967   3.070
27459SOL    HW294440   9.531   6.121   3.081
27460SOL     OW94441   9.630   5.826   2.277
27460SOL    HW194442   9.584   5.866   2.356
27460SOL    HW294443   9.578   5.845   2.195
27461SOL     OW94444   9.964   6.684   3.593
27461SOL    HW194445   9.935   6.761   3.650
27461SOL    HW294446   9.974   6.603   3.651
27462SOL     OW94447   9.257   6.158   2.372
27462SOL    HW194448   9.259   6.109   2.459
27462SOL    HW294449   9.259   6.257   2.390
27463SOL     OW94450   9.578   5.746   2.693
27463SOL    HW194451   9.630   5.786   2.768
27463SOL    HW294452   9.631   5.673   2.650
27464SOL     OW94453   9.562   5.794   3.027
27464SOL    HW194454   9.527   5.701   3.027
27464SOL    HW294455   9.649   5.797   2.978
27465SOL     OW94456   9.430   7.043   2.226
27465SOL    HW194457   9.457   6.949   2.246
27465SOL    HW294458   9.455   7.065   2.132
27466SOL     OW94459   9.444   7.186   2.463
27466SOL    HW194460   9.360   7.237   2.481
27466SOL    HW294461   9.435   7.135   2.378
27467SOL     OW94462   9.717   6.483   1.865
27467SOL    HW194463   9.686   6.517   1.777
27467SOL    HW294464   9.721   6.558   1.931
27468SOL     OW94465   9.321   6.375   2.038
27468SOL    HW194466   9.381   6.322   2.098
27468SOL    HW294467   9.227   6.343   2.050
27469SOL     OW94468  10.089   7.360   2.886
27469SOL    HW194469  10.135   7.293   2.828
27469SOL    HW294470  10.015   7.316   2.936
27470SOL     OW94471   9.489   6.162   3.368
27470SOL    HW194472   9.509   6.067   3.343
27470SOL    HW294473   9.452   6.165   3.461
27471SOL     OW94474   9.371   5.817   3.258
27471SOL    HW194475   9.443   5.827   3.189
27471SOL    HW294476   9.282   5.816   3.213
27472SOL     OW94477   9.519   6.595   2.718
27472SOL    HW194478   9.442   6.657   2.711
27472SOL    HW294479   9.556   6.596   2.811
27473SOL     OW94480   9.263   5.848   2.320
27473SOL    HW194481   9.323   5.799   2.258
27473SOL    HW294482   9.318   5.900   2.385
27474SOL     OW94483  10.050   6.313   3.169
27474SOL    HW194484  10.052   6.399   3.220
27474SOL    HW294485  10.107   6.245   3.216
27475SOL     OW94486   9.287   7.340   3.240
27475SOL    HW194487   9.295   7.440   3.238
27475SOL    HW294488   9.263   7.311   3.333
27476SOL     OW94489   9.590   6.077   2.773
27476SOL    HW194490   9.646   6.070   2.690
27476SOL    HW294491   9.647   6.055   2.853
27477SOL     OW94492   9.587   7.275   2.044
27477SOL    HW194493   9.679   7.305   2.019
27477SOL    HW294494   9.562   7.314   2.133
27478SOL     OW94495   9.268   6.692   2.793
27478SOL    HW194496   9.178   6.708   2.754
27478SOL    HW294497   9.266   6.608   2.848
27479SOL     OW94498   9.264   6.733   2.337
27479SOL    HW194499   9.342   6.791   2.361
27479SOL    HW294500   9.283   6.684   2.252
27480SOL     OW94501   9.794   6.916   3.645
27480SOL    HW194502   9.755   6.979   3.578
27480SOL    HW294503   9.877   6.956   3.685
27481SOL     OW94504   9.670   6.648   3.477
27481SOL    HW194505   9.689   6.672   3.382
27481SOL    HW294506   9.663   6.731   3.532
27482SOL     OW94507   9.331   6.938   2.951
27482SOL    HW194508   9.300   6.864   2.892
27482SOL    HW294509   9.263   6.956   3.022
27483SOL     OW94510   9.983   7.042   3.284
27483SOL    HW194511   9.920   7.120   3.291
27483SOL    HW294512   9.951   6.980   3.212
27484SOL     OW94513   9.374   5.837   3.549
27484SOL    HW194514   9.392   5.826   3.451
27484SOL    HW294515   9.276   5.833   3.566
27485SOL     OW94516   9.254   7.251   3.493
27485SOL    HW194517   9.326   7.237   3.561
27485SOL    HW294518   9.165   7.254   3.538
27486SOL     OW94519   9.422   5.907   2.517
27486SOL    HW194520   9.365   5.962   2.578
27486SOL    HW294521   9.492   5.859   2.570
27487SOL     OW94522   9.559   6.098   2.115
27487SOL    HW194523   9.631   6.127   2.052
27487SOL    HW294524   9.515   6.178   2.155
27488SOL     OW94525   9.674   7.361   2.581
27488SOL    HW194526   9.598   7.327   2.526
27488SOL    HW294527   9.760   7.324   2.546
27489SOL     OW94528   9.599   6.870   3.026
27489SOL    HW194529   9.611   6.886   3.123
27489SOL    HW294530   9.512   6.910   2.996
27490SOL     OW94531   9.605   6.345   2.564
27490SOL    HW194532   9.597   6.443   2.582
27490SOL    HW294533   9.689   6.311   2.605
27491SOL     OW94534   9.451   5.825   2.079
27491SOL    HW194535   9.495   5.794   1.996
27491SOL    HW294536   9.452   5.925   2.083
27492SOL     OW94537   9.304   6.077   2.690
27492SOL    HW194538   9.268   6.170   2.682
27492SOL    HW294539   9.387   6.078   2.746
27493SOL     OW94540   9.739   6.664   2.076
27493SOL    HW194541   9.839   6.664   2.087
27493SOL    HW294542   9.708   6.757   2.055
27494SOL     OW94543  10.100   6.175   2.035
27494SOL    HW194544  10.190   6.176   1.990
27494SOL    HW294545  10.077   6.081   2.060
27495SOL     OW94546   9.300   5.607   1.989
27495SOL    HW194547   9.363   5.530   1.997
27495SOL    HW294548   9.320   5.675   2.060
27496SOL     OW94549   9.573   6.582   2.990
27496SOL    HW194550   9.584   6.537   3.079
27496SOL    HW294551   9.600   6.678   2.997
27497SOL     OW94552   9.854   6.195   3.012
27497SOL    HW194553   9.929   6.238   3.061
27497SOL    HW294554   9.787   6.160   3.078
27498SOL     OW94555   9.997   6.564   3.329
27498SOL    HW194556  10.066   6.616   3.279
27498SOL    HW294557   9.992   6.597   3.424
27499SOL     OW94558   9.846   5.644   2.756
27499SOL    HW194559   9.774   5.577   2.742
27499SOL    HW294560   9.928   5.598   2.791
27500SOL     OW94561   9.546   7.309   3.123
27500SOL    HW194562   9.526   7.291   3.027
27500SOL    HW294563   9.473   7.271   3.180
27501SOL     OW94564   9.272   6.511   2.996
27501SOL    HW194565   9.361   6.489   3.036
27501SOL    HW294566   9.217   6.427   2.992
27502SOL     OW94567   9.500   5.556   2.276
27502SOL    HW194568   9.538   5.644   2.303
27502SOL    HW294569   9.423   5.532   2.336
27503SOL     OW94570   9.916   6.173   3.604
27503SOL    HW194571   9.868   6.224   3.533
27503SOL    HW294572  10.009   6.152   3.574
27504SOL     OW94573   9.322   6.643   2.096
27504SOL    HW194574   9.312   6.546   2.075
27504SOL    HW294575   9.375   6.688   2.024
27505SOL     OW94576   9.523   6.411   3.225
27505SOL    HW194577   9.487   6.321   3.251
27505SOL    HW294578   9.484   6.481   3.285
27506SOL     OW94579  10.025   7.037   1.883
27506SOL    HW194580  10.000   7.114   1.942
27506SOL    HW294581  10.089   6.977   1.931
27507SOL     OW94582   9.843   7.244   2.917
27507SOL    HW194583   9.863   7.214   2.824
27507SOL    HW294584   9.768   7.189   2.954
27508SOL     OW94585   9.354   6.349   2.703
27508SOL    HW194586   9.449   6.340   2.671
27508SOL    HW294587   9.320   6.441   2.682
27509SOL     OW94588   9.291   6.466   3.630
27509SOL    HW194589   9.206   6.417   3.611
27509SOL    HW294590   9.318   6.453   3.725
27510SOL     OW94591   9.691   5.993   3.630
27510SOL    HW194592   9.727   5.940   3.553
27510SOL    HW294593   9.752   6.070   3.648
27511SOL     OW94594   9.755   6.410   2.202
27511SOL    HW194595   9.705   6.475   2.146
27511SOL    HW294596   9.697   6.331   2.221
27512SOL     OW94597   9.229   5.583   2.397
27512SOL    HW194598   9.142   5.570   2.350
27512SOL    HW294599   9.237   5.678   2.427
27513SOL     OW94600   9.666   7.103   3.463
27513SOL    HW194601   9.608   7.168   3.512
27513SOL    HW294602   9.728   7.153   3.403
27514SOL     OW94603   9.676   7.049   2.526
27514SOL    HW194604   9.674   6.950   2.539
27514SOL    HW294605   9.585   7.082   2.503
27515SOL     OW94606   9.526   7.296   3.613
27515SOL    HW194607   9.569   7.380   3.579
27515SOL    HW294608   9.551   7.283   3.709
27516SOL     OW94609   9.386   6.832   3.484
27516SOL    HW194610   9.365   6.737   3.457
27516SOL    HW294611   9.317   6.893   3.446
27517SOL     OW94612   9.475   7.197   2.888
27517SOL    HW194613   9.417   7.117   2.902
27517SOL    HW294614   9.499   7.204   2.791
27518SOL     OW94615   9.767   6.068   2.573
27518SOL    HW194616   9.805   5.979   2.599
27518SOL    HW294617   9.834   6.118   2.518
27519SOL     OW94618   9.755   6.626   3.227
27519SOL    HW194619   9.851   6.606   3.247
27519SOL    HW294620   9.744   6.724   3.209
27520SOL     OW94621   9.460   6.778   1.888
27520SOL    HW194622   9.452   6.790   1.789
27520SOL    HW294623   9.519   6.849   1.926
27521SOL     OW94624   9.887   7.217   2.048
27521SOL    HW194625   9.862   7.312   2.032
27521SOL    HW294626   9.854   7.189   2.138
27522SOL     OW94627   9.804   7.256   3.272
27522SOL    HW194628   9.853   7.336   3.236
27522SOL    HW294629   9.712   7.254   3.233
27523SOL     OW94630   9.447   6.137   3.634
27523SOL    HW194631   9.464   6.038   3.639
27523SOL    HW294632   9.511   6.185   3.695
27524SOL     OW94633   9.282   6.471   2.434
27524SOL    HW194634   9.289   6.570   2.421
27524SOL    HW294635   9.191   6.448   2.468
27525SOL     OW94636   9.791   6.269   3.372
27525SOL    HW194637   9.697   6.239   3.353
27525SOL    HW294638   9.800   6.366   3.349
27526SOL     OW94639  10.016   6.051   2.853
27526SOL    HW194640  10.108   6.079   2.880
27526SOL    HW294641   9.948   6.102   2.907
27527SOL     OW94642   9.869   6.902   3.080
27527SOL    HW194643   9.782   6.901   3.031
27527SOL    HW294644   9.935   6.842   3.033
27528SOL     OW94645   9.435   6.244   2.994
27528SOL    HW194646   9.473   6.303   3.065
27528SOL    HW294647   9.418   6.297   2.912
27529SOL     OW94648   9.606   6.890   3.292
27529SOL    HW194649   9.625   6.978   3.336
27529SOL    HW294650   9.511   6.864   3.310
27530SOL     OW94651   9.580   5.732   3.710
27530SOL    HW194652   9.493   5.729   3.661
27530SOL    HW294653   9.631   5.814   3.682
27531SOL     OW94654   9.790   7.086   4.114
27531SOL    HW194655   9.746   7.095   4.203
27531SOL    HW294656   9.861   7.016   4.118
27532SOL     OW94657   9.808   5.619   3.836
27532SOL    HW194658   9.896   5.647   3.797
27532SOL    HW294659   9.736   5.682   3.806
27533SOL     OW94660   9.717   6.759   4.409
27533SOL    HW194661   9.650   6.713   4.468
27533SOL    HW294662   9.809   6.727   4.432
27534SOL     OW94663   9.647   6.928   3.893
27534SOL    HW194664   9.711   6.944   3.818
27534SOL    HW294665   9.671   6.986   3.971
27535SOL     OW94666   9.798   5.884   4.703
27535SOL    HW194667   9.874   5.949   4.699
27535SOL    HW294668   9.828   5.795   4.670
27536SOL     OW94669   9.495   6.310   4.121
27536SOL    HW194670   9.510   6.244   4.195
27536SOL    HW294671   9.445   6.389   4.156
27537SOL     OW94672   9.409   6.572   5.265
27537SOL    HW194673   9.505   6.587   5.283
27537SOL    HW294674   9.371   6.510   5.334
27538SOL     OW94675   9.735   6.217   3.808
27538SOL    HW194676   9.695   6.296   3.761
27538SOL    HW294677   9.824   6.196   3.768
27539SOL     OW94678   9.908   7.141   4.506
27539SOL    HW194679   9.981   7.164   4.442
27539SOL    HW294680   9.837   7.088   4.460
27540SOL     OW94681   9.585   6.794   4.158
27540SOL    HW194682   9.631   6.768   4.243
27540SOL    HW294683   9.605   6.726   4.087
27541SOL     OW94684   9.595   6.054   4.964
27541SOL    HW194685   9.585   5.967   4.916
27541SOL    HW294686   9.531   6.121   4.927
27542SOL     OW94687   9.630   5.826   4.123
27542SOL    HW194688   9.584   5.866   4.202
27542SOL    HW294689   9.578   5.845   4.041
27543SOL     OW94690   9.964   6.684   5.439
27543SOL    HW194691   9.935   6.761   5.496
27543SOL    HW294692   9.974   6.603   5.497
27544SOL     OW94693   9.257   6.158   4.218
27544SOL    HW194694   9.259   6.109   4.305
27544SOL    HW294695   9.259   6.257   4.236
27545SOL     OW94696   9.578   5.746   4.539
27545SOL    HW194697   9.630   5.786   4.614
27545SOL    HW294698   9.631   5.673   4.496
27546SOL     OW94699   9.562   5.794   4.873
27546SOL    HW194700   9.527   5.701   4.873
27546SOL    HW294701   9.649   5.797   4.824
27547SOL     OW94702   9.430   7.043   4.072
27547SOL    HW194703   9.457   6.949   4.092
27547SOL    HW294704   9.455   7.065   3.978
27548SOL     OW94705   9.444   7.186   4.309
27548SOL    HW194706   9.360   7.237   4.327
27548SOL    HW294707   9.435   7.135   4.224
27549SOL     OW94708   9.717   6.483   3.711
27549SOL    HW194709   9.686   6.517   3.623
27549SOL    HW294710   9.721   6.558   3.777
27550SOL     OW94711   9.321   6.375   3.884
27550SOL    HW194712   9.381   6.322   3.944
27550SOL    HW294713   9.227   6.343   3.896
27551SOL     OW94714  10.089   7.360   4.732
27551SOL    HW194715  10.135   7.293   4.674
27551SOL    HW294716  10.015   7.316   4.782
27552SOL     OW94717   9.489   6.162   5.214
27552SOL    HW194718   9.509   6.067   5.189
27552SOL    HW294719   9.452   6.165   5.307
27553SOL     OW94720   9.371   5.817   5.104
27553SOL    HW194721   9.443   5.827   5.035
27553SOL    HW294722   9.282   5.816   5.059
27554SOL     OW94723   9.519   6.595   4.564
27554SOL    HW194724   9.442   6.657   4.557
27554SOL    HW294725   9.556   6.596   4.657
27555SOL     OW94726   9.263   5.848   4.166
27555SOL    HW194727   9.323   5.799   4.104
27555SOL    HW294728   9.318   5.900   4.231
27556SOL     OW94729  10.050   6.313   5.015
27556SOL    HW194730  10.052   6.399   5.066
27556SOL    HW294731  10.107   6.245   5.062
27557SOL     OW94732   9.287   7.340   5.086
27557SOL    HW194733   9.295   7.440   5.084
27557SOL    HW294734   9.263   7.311   5.179
27558SOL     OW94735   9.590   6.077   4.619
27558SOL    HW194736   9.646   6.070   4.536
27558SOL    HW294737   9.647   6.055   4.699
27559SOL     OW94738   9.587   7.275   3.890
27559SOL    HW194739   9.679   7.305   3.865
27559SOL    HW294740   9.562   7.314   3.979
27560SOL     OW94741   9.268   6.692   4.639
27560SOL    HW194742   9.178   6.708   4.600
27560SOL    HW294743   9.266   6.608   4.694
27561SOL     OW94744   9.264   6.733   4.183
27561SOL    HW194745   9.342   6.791   4.207
27561SOL    HW294746   9.283   6.684   4.098
27562SOL     OW94747   9.794   6.916   5.491
27562SOL    HW194748   9.755   6.979   5.424
27562SOL    HW294749   9.877   6.956   5.531
27563SOL     OW94750   9.670   6.648   5.323
27563SOL    HW194751   9.689   6.672   5.228
27563SOL    HW294752   9.663   6.731   5.378
27564SOL     OW94753   9.331   6.938   4.797
27564SOL    HW194754   9.300   6.864   4.738
27564SOL    HW294755   9.263   6.956   4.868
27565SOL     OW94756   9.983   7.042   5.130
27565SOL    HW194757   9.920   7.120   5.137
27565SOL    HW294758   9.951   6.980   5.058
27566SOL     OW94759   9.374   5.837   5.395
27566SOL    HW194760   9.392   5.826   5.297
27566SOL    HW294761   9.276   5.833   5.412
27567SOL     OW94762   9.254   7.251   5.339
27567SOL    HW194763   9.326   7.237   5.407
27567SOL    HW294764   9.165   7.254   5.384
27568SOL     OW94765   9.422   5.907   4.363
27568SOL    HW194766   9.365   5.962   4.424
27568SOL    HW294767   9.492   5.859   4.416
27569SOL     OW94768   9.559   6.098   3.961
27569SOL    HW194769   9.631   6.127   3.898
27569SOL    HW294770   9.515   6.178   4.001
27570SOL     OW94771   9.674   7.361   4.427
27570SOL    HW194772   9.598   7.327   4.372
27570SOL    HW294773   9.760   7.324   4.392
27571SOL     OW94774   9.599   6.870   4.872
27571SOL    HW194775   9.611   6.886   4.969
27571SOL    HW294776   9.512   6.910   4.842
27572SOL     OW94777   9.605   6.345   4.410
27572SOL    HW194778   9.597   6.443   4.428
27572SOL    HW294779   9.689   6.311   4.451
27573SOL     OW94780   9.451   5.825   3.925
27573SOL    HW194781   9.495   5.794   3.842
27573SOL    HW294782   9.452   5.925   3.929
27574SOL     OW94783   9.304   6.077   4.536
27574SOL    HW194784   9.268   6.170   4.528
27574SOL    HW294785   9.387   6.078   4.592
27575SOL     OW94786   9.739   6.664   3.922
27575SOL    HW194787   9.839   6.664   3.933
27575SOL    HW294788   9.708   6.757   3.901
27576SOL     OW94789  10.100   6.175   3.881
27576SOL    HW194790  10.190   6.176   3.836
27576SOL    HW294791  10.077   6.081   3.906
27577SOL     OW94792   9.300   5.607   3.835
27577SOL    HW194793   9.363   5.530   3.843
27577SOL    HW294794   9.320   5.675   3.906
27578SOL     OW94795   9.573   6.582   4.836
27578SOL    HW194796   9.584   6.537   4.925
27578SOL    HW294797   9.600   6.678   4.843
27579SOL     OW94798   9.854   6.195   4.858
27579SOL    HW194799   9.929   6.238   4.907
27579SOL    HW294800   9.787   6.160   4.924
27580SOL     OW94801   9.997   6.564   5.175
27580SOL    HW194802  10.066   6.616   5.125
27580SOL    HW294803   9.992   6.597   5.270
27581SOL     OW94804   9.846   5.644   4.602
27581SOL    HW194805   9.774   5.577   4.588
27581SOL    HW294806   9.928   5.598   4.637
27582SOL     OW94807   9.546   7.309   4.969
27582SOL    HW194808   9.526   7.291   4.873
27582SOL    HW294809   9.473   7.271   5.026
27583SOL     OW94810   9.272   6.511   4.842
27583SOL    HW194811   9.361   6.489   4.882
27583SOL    HW294812   9.217   6.427   4.838
27584SOL     OW94813   9.500   5.556   4.122
27584SOL    HW194814   9.538   5.644   4.149
27584SOL    HW294815   9.423   5.532   4.182
27585SOL     OW94816   9.916   6.173   5.450
27585SOL    HW194817   9.868   6.224   5.379
27585SOL    HW294818  10.009   6.152   5.420
27586SOL     OW94819   9.322   6.643   3.942
27586SOL    HW194820   9.312   6.546   3.921
27586SOL    HW294821   9.375   6.688   3.870
27587SOL     OW94822   9.523   6.411   5.071
27587SOL    HW194823   9.487   6.321   5.097
27587SOL    HW294824   9.484   6.481   5.131
27588SOL     OW94825  10.025   7.037   3.729
27588SOL    HW194826  10.000   7.114   3.788
27588SOL    HW294827  10.089   6.977   3.777
27589SOL     OW94828   9.843   7.244   4.763
27589SOL    HW194829   9.863   7.214   4.670
27589SOL    HW294830   9.768   7.189   4.800
27590SOL     OW94831   9.354   6.349   4.549
27590SOL    HW194832   9.449   6.340   4.517
27590SOL    HW294833   9.320   6.441   4.528
27591SOL     OW94834   9.291   6.466   5.476
27591SOL    HW194835   9.206   6.417   5.457
27591SOL    HW294836   9.318   6.453   5.571
27592SOL     OW94837   9.691   5.993   5.476
27592SOL    HW194838   9.727   5.940   5.399
27592SOL    HW294839   9.752   6.070   5.494
27593SOL     OW94840   9.755   6.410   4.048
27593SOL    HW194841   9.705   6.475   3.992
27593SOL    HW294842   9.697   6.331   4.067
27594SOL     OW94843   9.229   5.583   4.243
27594SOL    HW194844   9.142   5.570   4.196
27594SOL    HW294845   9.237   5.678   4.273
27595SOL     OW94846   9.666   7.103   5.309
27595SOL    HW194847   9.608   7.168   5.358
27595SOL    HW294848   9.728   7.153   5.249
27596SOL     OW94849   9.676   7.049   4.372
27596SOL    HW194850   9.674   6.950   4.385
27596SOL    HW294851   9.585   7.082   4.349
27597SOL     OW94852   9.526   7.296   5.459
27597SOL    HW194853   9.569   7.380   5.425
27597SOL    HW294854   9.551   7.283   5.555
27598SOL     OW94855   9.386   6.832   5.330
27598SOL    HW194856   9.365   6.737   5.303
27598SOL    HW294857   9.317   6.893   5.292
27599SOL     OW94858   9.475   7.197   4.734
27599SOL    HW194859   9.417   7.117   4.748
27599SOL    HW294860   9.499   7.204   4.637
27600SOL     OW94861   9.767   6.068   4.419
27600SOL    HW194862   9.805   5.979   4.445
27600SOL    HW294863   9.834   6.118   4.364
27601SOL     OW94864   9.755   6.626   5.073
27601SOL    HW194865   9.851   6.606   5.093
27601SOL    HW294866   9.744   6.724   5.055
27602SOL     OW94867   9.460   6.778   3.734
27602SOL    HW194868   9.452   6.790   3.635
27602SOL    HW294869   9.519   6.849   3.772
27603SOL     OW94870   9.887   7.217   3.894
27603SOL    HW194871   9.862   7.312   3.878
27603SOL    HW294872   9.854   7.189   3.984
27604SOL     OW94873   9.804   7.256   5.118
27604SOL    HW194874   9.853   7.336   5.082
27604SOL    HW294875   9.712   7.254   5.079
27605SOL     OW94876   9.447   6.137   5.480
27605SOL    HW194877   9.464   6.038   5.485
27605SOL    HW294878   9.511   6.185   5.541
27606SOL     OW94879   9.282   6.471   4.280
27606SOL    HW194880   9.289   6.570   4.267
27606SOL    HW294881   9.191   6.448   4.314
27607SOL     OW94882   9.791   6.269   5.218
27607SOL    HW194883   9.697   6.239   5.199
27607SOL    HW294884   9.800   6.366   5.195
27608SOL     OW94885  10.016   6.051   4.699
27608SOL    HW194886  10.108   6.079   4.726
27608SOL    HW294887   9.948   6.102   4.753
27609SOL     OW94888   9.869   6.902   4.926
27609SOL    HW194889   9.782   6.901   4.877
27609SOL    HW294890   9.935   6.842   4.879
27610SOL     OW94891   9.435   6.244   4.840
27610SOL    HW194892   9.473   6.303   4.911
27610SOL    HW294893   9.418   6.297   4.758
27611SOL     OW94894   9.606   6.890   5.138
27611SOL    HW194895   9.625   6.978   5.182
27611SOL    HW294896   9.511   6.864   5.156
27612SOL     OW94897   9.580   5.732   5.555
27612SOL    HW194898   9.493   5.729   5.506
27612SOL    HW294899   9.631   5.814   5.527
27613SOL     OW94900   9.790   7.086   5.959
27613SOL    HW194901   9.746   7.095   6.048
27613SOL    HW294902   9.861   7.016   5.963
27614SOL     OW94903   9.808   5.619   5.681
27614SOL    HW194904   9.896   5.647   5.642
27614SOL    HW294905   9.736   5.682   5.651
27615SOL     OW94906   9.717   6.759   6.254
27615SOL    HW194907   9.650   6.713   6.313
27615SOL    HW294908   9.809   6.727   6.277
27616SOL     OW94909   9.647   6.928   5.738
27616SOL    HW194910   9.711   6.944   5.663
27616SOL    HW294911   9.671   6.986   5.816
27617SOL     OW94912   9.798   5.884   6.548
27617SOL    HW194913   9.874   5.949   6.544
27617SOL    HW294914   9.828   5.795   6.515
27618SOL     OW94915   9.495   6.310   5.966
27618SOL    HW194916   9.510   6.244   6.040
27618SOL    HW294917   9.445   6.389   6.001
27619SOL     OW94918   9.409   6.572   7.110
27619SOL    HW194919   9.505   6.587   7.128
27619SOL    HW294920   9.371   6.510   7.179
27620SOL     OW94921   9.735   6.217   5.653
27620SOL    HW194922   9.695   6.296   5.606
27620SOL    HW294923   9.824   6.196   5.613
27621SOL     OW94924   9.585   6.794   6.003
27621SOL    HW194925   9.631   6.768   6.088
27621SOL    HW294926   9.605   6.726   5.932
27622SOL     OW94927   9.595   6.054   6.809
27622SOL    HW194928   9.585   5.967   6.761
27622SOL    HW294929   9.531   6.121   6.772
27623SOL     OW94930   9.630   5.826   5.968
27623SOL    HW194931   9.584   5.866   6.047
27623SOL    HW294932   9.578   5.845   5.886
27624SOL     OW94933   9.964   6.684   7.284
27624SOL    HW194934   9.935   6.761   7.341
27624SOL    HW294935   9.974   6.603   7.342
27625SOL     OW94936   9.257   6.158   6.063
27625SOL    HW194937   9.259   6.109   6.150
27625SOL    HW294938   9.259   6.257   6.081
27626SOL     OW94939   9.578   5.746   6.384
27626SOL    HW194940   9.630   5.786   6.459
27626SOL    HW294941   9.631   5.673   6.341
27627SOL     OW94942   9.562   5.794   6.718
27627SOL    HW194943   9.527   5.701   6.718
27627SOL    HW294944   9.649   5.797   6.669
27628SOL     OW94945   9.430   7.043   5.917
27628SOL    HW194946   9.457   6.949   5.937
27628SOL    HW294947   9.455   7.065   5.823
27629SOL     OW94948   9.444   7.186   6.154
27629SOL    HW194949   9.360   7.237   6.172
27629SOL    HW294950   9.435   7.135   6.069
27630SOL     OW94951   9.717   6.483   5.556
27630SOL    HW194952   9.686   6.517   5.468
27630SOL    HW294953   9.721   6.558   5.622
27631SOL     OW94954   9.321   6.375   5.729
27631SOL    HW194955   9.381   6.322   5.789
27631SOL    HW294956   9.227   6.343   5.741
27632SOL     OW94957   9.489   6.162   7.059
27632SOL    HW194958   9.509   6.067   7.034
27632SOL    HW294959   9.452   6.165   7.152
27633SOL     OW94960   9.371   5.817   6.949
27633SOL    HW194961   9.443   5.827   6.880
27633SOL    HW294962   9.282   5.816   6.904
27634SOL     OW94963   9.519   6.595   6.409
27634SOL    HW194964   9.442   6.657   6.402
27634SOL    HW294965   9.556   6.596   6.502
27635SOL     OW94966   9.263   5.848   6.011
27635SOL    HW194967   9.323   5.799   5.949
27635SOL    HW294968   9.318   5.900   6.076
27636SOL     OW94969  10.050   6.313   6.860
27636SOL    HW194970  10.052   6.399   6.911
27636SOL    HW294971  10.107   6.245   6.907
27637SOL     OW94972   9.287   7.340   6.931
27637SOL    HW194973   9.295   7.440   6.929
27637SOL    HW294974   9.263   7.311   7.024
27638SOL     OW94975   9.590   6.077   6.464
27638SOL    HW194976   9.646   6.070   6.381
27638SOL    HW294977   9.647   6.055   6.544
27639SOL     OW94978   9.587   7.275   5.735
27639SOL    HW194979   9.679   7.305   5.710
27639SOL    HW294980   9.562   7.314   5.824
27640SOL     OW94981   9.268   6.692   6.484
27640SOL    HW194982   9.178   6.708   6.445
27640SOL    HW294983   9.266   6.608   6.539
27641SOL     OW94984   9.264   6.733   6.028
27641SOL    HW194985   9.342   6.791   6.052
27641SOL    HW294986   9.283   6.684   5.943
27642SOL     OW94987   9.794   6.916   7.336
27642SOL    HW194988   9.755   6.979   7.269
27642SOL    HW294989   9.877   6.956   7.376
27643SOL     OW94990   9.670   6.648   7.168
27643SOL    HW194991   9.689   6.672   7.073
27643SOL    HW294992   9.663   6.731   7.223
27644SOL     OW94993   9.331   6.938   6.642
27644SOL    HW194994   9.300   6.864   6.583
27644SOL    HW294995   9.263   6.956   6.713
27645SOL     OW94996   9.983   7.042   6.975
27645SOL    HW194997   9.920   7.120   6.982
27645SOL    HW294998   9.951   6.980   6.903
27646SOL     OW94999   9.374   5.837   7.240
27646SOL    HW195000   9.392   5.826   7.142
27646SOL    HW295001   9.276   5.833   7.257
27647SOL     OW95002   9.254   7.251   7.184
27647SOL    HW195003   9.326   7.237   7.252
27647SOL    HW295004   9.165   7.254   7.229
27648SOL     OW95005   9.422   5.907   6.208
27648SOL    HW195006   9.365   5.962   6.269
27648SOL    HW295007   9.492   5.859   6.261
27649SOL     OW95008   9.559   6.098   5.806
27649SOL    HW195009   9.631   6.127   5.743
27649SOL    HW295010   9.515   6.178   5.846
27650SOL     OW95011   9.674   7.361   6.272
27650SOL    HW195012   9.598   7.327   6.217
27650SOL    HW295013   9.760   7.324   6.237
27651SOL     OW95014   9.599   6.870   6.717
27651SOL    HW195015   9.611   6.886   6.814
27651SOL    HW295016   9.512   6.910   6.687
27652SOL     OW95017   9.605   6.345   6.255
27652SOL    HW195018   9.597   6.443   6.273
27652SOL    HW295019   9.689   6.311   6.296
27653SOL     OW95020   9.451   5.825   5.770
27653SOL    HW195021   9.495   5.794   5.687
27653SOL    HW295022   9.452   5.925   5.774
27654SOL     OW95023   9.304   6.077   6.381
27654SOL    HW195024   9.268   6.170   6.373
27654SOL    HW295025   9.387   6.078   6.437
27655SOL     OW95026   9.739   6.664   5.767
27655SOL    HW195027   9.839   6.664   5.778
27655SOL    HW295028   9.708   6.757   5.746
27656SOL     OW95029  10.100   6.175   5.726
27656SOL    HW195030  10.190   6.176   5.681
27656SOL    HW295031  10.077   6.081   5.751
27657SOL     OW95032   9.300   5.607   5.680
27657SOL    HW195033   9.363   5.530   5.688
27657SOL    HW295034   9.320   5.675   5.751
27658SOL     OW95035   9.573   6.582   6.681
27658SOL    HW195036   9.584   6.537   6.770
27658SOL    HW295037   9.600   6.678   6.688
27659SOL     OW95038   9.854   6.195   6.703
27659SOL    HW195039   9.929   6.238   6.752
27659SOL    HW295040   9.787   6.160   6.769
27660SOL     OW95041   9.997   6.564   7.020
27660SOL    HW195042  10.066   6.616   6.970
27660SOL    HW295043   9.992   6.597   7.115
27661SOL     OW95044   9.846   5.644   6.447
27661SOL    HW195045   9.774   5.577   6.433
27661SOL    HW295046   9.928   5.598   6.482
27662SOL     OW95047   9.546   7.309   6.814
27662SOL    HW195048   9.526   7.291   6.718
27662SOL    HW295049   9.473   7.271   6.871
27663SOL     OW95050   9.272   6.511   6.687
27663SOL    HW195051   9.361   6.489   6.727
27663SOL    HW295052   9.217   6.427   6.683
27664SOL     OW95053   9.500   5.556   5.967
27664SOL    HW195054   9.538   5.644   5.994
27664SOL    HW295055   9.423   5.532   6.027
27665SOL     OW95056   9.916   6.173   7.295
27665SOL    HW195057   9.868   6.224   7.224
27665SOL    HW295058  10.009   6.152   7.265
27666SOL     OW95059   9.322   6.643   5.787
27666SOL    HW195060   9.312   6.546   5.766
27666SOL    HW295061   9.375   6.688   5.715
27667SOL     OW95062   9.523   6.411   6.916
27667SOL    HW195063   9.487   6.321   6.942
27667SOL    HW295064   9.484   6.481   6.976
27668SOL     OW95065  10.025   7.037   5.574
27668SOL    HW195066  10.000   7.114   5.633
27668SOL    HW295067  10.089   6.977   5.622
27669SOL     OW95068   9.354   6.349   6.394
27669SOL    HW195069   9.449   6.340   6.362
27669SOL    HW295070   9.320   6.441   6.373
27670SOL     OW95071   9.691   5.993   7.321
27670SOL    HW195072   9.727   5.940   7.244
27670SOL    HW295073   9.752   6.070   7.339
27671SOL     OW95074   9.755   6.410   5.893
27671SOL    HW195075   9.705   6.475   5.837
27671SOL    HW295076   9.697   6.331   5.912
27672SOL     OW95077   9.229   5.583   6.088
27672SOL    HW195078   9.142   5.570   6.041
27672SOL    HW295079   9.237   5.678   6.118
27673SOL     OW95080   9.666   7.103   7.154
27673SOL    HW195081   9.608   7.168   7.203
27673SOL    HW295082   9.728   7.153   7.094
27674SOL     OW95083   9.676   7.049   6.217
27674SOL    HW195084   9.674   6.950   6.230
27674SOL    HW295085   9.585   7.082   6.194
27675SOL     OW95086   9.526   7.296   7.304
27675SOL    HW195087   9.569   7.380   7.270
27675SOL    HW295088   9.551   7.283   7.400
27676SOL     OW95089   9.386   6.832   7.175
27676SOL    HW195090   9.365   6.737   7.148
27676SOL    HW295091   9.317   6.893   7.137
27677SOL     OW95092   9.475   7.197   6.579
27677SOL    HW195093   9.417   7.117   6.593
27677SOL    HW295094   9.499   7.204   6.482
27678SOL     OW95095   9.767   6.068   6.264
27678SOL    HW195096   9.805   5.979   6.290
27678SOL    HW295097   9.834   6.118   6.209
27679SOL     OW95098   9.755   6.626   6.918
27679SOL    HW195099   9.851   6.606   6.938
27679SOL    HW295100   9.744   6.724   6.900
27680SOL     OW95101   9.460   6.778   5.579
27680SOL    HW195102   9.452   6.790   5.480
27680SOL    HW295103   9.519   6.849   5.617
27681SOL     OW95104   9.887   7.217   5.739
27681SOL    HW195105   9.862   7.312   5.723
27681SOL    HW295106   9.854   7.189   5.829
27682SOL     OW95107   9.804   7.256   6.963
27682SOL    HW195108   9.853   7.336   6.927
27682SOL    HW295109   9.712   7.254   6.924
27683SOL     OW95110   9.447   6.137   7.325
27683SOL    HW195111   9.464   6.038   7.330
27683SOL    HW295112   9.511   6.185   7.386
27684SOL     OW95113   9.282   6.471   6.125
27684SOL    HW195114   9.289   6.570   6.112
27684SOL    HW295115   9.191   6.448   6.159
27685SOL     OW95116   9.791   6.269   7.063
27685SOL    HW195117   9.697   6.239   7.044
27685SOL    HW295118   9.800   6.366   7.040
27686SOL     OW95119  10.016   6.051   6.544
27686SOL    HW195120  10.108   6.079   6.571
27686SOL    HW295121   9.948   6.102   6.598
27687SOL     OW95122   9.869   6.902   6.771
27687SOL    HW195123   9.782   6.901   6.722
27687SOL    HW295124   9.935   6.842   6.724
27688SOL     OW95125   9.435   6.244   6.685
27688SOL    HW195126   9.473   6.303   6.756
27688SOL    HW295127   9.418   6.297   6.603
27689SOL     OW95128   9.606   6.890   6.983
27689SOL    HW195129   9.625   6.978   7.027
27689SOL    HW295130   9.511   6.864   7.001
27690SOL     OW95131   9.580   5.732   7.401
27690SOL    HW195132   9.493   5.729   7.352
27690SOL    HW295133   9.631   5.814   7.373
27691SOL     OW95134   9.790   7.086   7.805
27691SOL    HW195135   9.746   7.095   7.894
27691SOL    HW295136   9.861   7.016   7.809
27692SOL     OW95137   9.808   5.619   7.527
27692SOL    HW195138   9.896   5.647   7.488
27692SOL    HW295139   9.736   5.682   7.497
27693SOL     OW95140   9.717   6.759   8.100
27693SOL    HW195141   9.650   6.713   8.159
27693SOL    HW295142   9.809   6.727   8.123
27694SOL     OW95143   9.647   6.928   7.584
27694SOL    HW195144   9.711   6.944   7.509
27694SOL    HW295145   9.671   6.986   7.662
27695SOL     OW95146   9.798   5.884   8.394
27695SOL    HW195147   9.874   5.949   8.390
27695SOL    HW295148   9.828   5.795   8.361
27696SOL     OW95149   9.495   6.310   7.812
27696SOL    HW195150   9.510   6.244   7.886
27696SOL    HW295151   9.445   6.389   7.847
27697SOL     OW95152   9.409   6.572   8.956
27697SOL    HW195153   9.505   6.587   8.974
27697SOL    HW295154   9.371   6.510   9.025
27698SOL     OW95155   9.735   6.217   7.499
27698SOL    HW195156   9.695   6.296   7.452
27698SOL    HW295157   9.824   6.196   7.459
27699SOL     OW95158   9.908   7.141   8.197
27699SOL    HW195159   9.981   7.164   8.133
27699SOL    HW295160   9.837   7.088   8.151
27700SOL     OW95161   9.585   6.794   7.849
27700SOL    HW195162   9.631   6.768   7.934
27700SOL    HW295163   9.605   6.726   7.778
27701SOL     OW95164   9.595   6.054   8.655
27701SOL    HW195165   9.585   5.967   8.607
27701SOL    HW295166   9.531   6.121   8.618
27702SOL     OW95167   9.630   5.826   7.814
27702SOL    HW195168   9.584   5.866   7.893
27702SOL    HW295169   9.578   5.845   7.732
27703SOL     OW95170   9.964   6.684   9.130
27703SOL    HW195171   9.935   6.761   9.187
27703SOL    HW295172   9.974   6.603   9.188
27704SOL     OW95173   9.257   6.158   7.909
27704SOL    HW195174   9.259   6.109   7.996
27704SOL    HW295175   9.259   6.257   7.927
27705SOL     OW95176   9.578   5.746   8.230
27705SOL    HW195177   9.630   5.786   8.305
27705SOL    HW295178   9.631   5.673   8.187
27706SOL     OW95179   9.562   5.794   8.564
27706SOL    HW195180   9.527   5.701   8.564
27706SOL    HW295181   9.649   5.797   8.515
27707SOL     OW95182   9.430   7.043   7.763
27707SOL    HW195183   9.457   6.949   7.783
27707SOL    HW295184   9.455   7.065   7.669
27708SOL     OW95185   9.444   7.186   8.000
27708SOL    HW195186   9.360   7.237   8.018
27708SOL    HW295187   9.435   7.135   7.915
27709SOL     OW95188   9.717   6.483   7.402
27709SOL    HW195189   9.686   6.517   7.314
27709SOL    HW295190   9.721   6.558   7.468
27710SOL     OW95191   9.321   6.375   7.575
27710SOL    HW195192   9.381   6.322   7.635
27710SOL    HW295193   9.227   6.343   7.587
27711SOL     OW95194  10.089   7.360   8.423
27711SOL    HW195195  10.135   7.293   8.365
27711SOL    HW295196  10.015   7.316   8.473
27712SOL     OW95197   9.489   6.162   8.905
27712SOL    HW195198   9.509   6.067   8.880
27712SOL    HW295199   9.452   6.165   8.998
27713SOL     OW95200   9.371   5.817   8.795
27713SOL    HW195201   9.443   5.827   8.726
27713SOL    HW295202   9.282   5.816   8.750
27714SOL     OW95203   9.519   6.595   8.255
27714SOL    HW195204   9.442   6.657   8.248
27714SOL    HW295205   9.556   6.596   8.348
27715SOL     OW95206   9.263   5.848   7.857
27715SOL    HW195207   9.323   5.799   7.795
27715SOL    HW295208   9.318   5.900   7.922
27716SOL     OW95209  10.050   6.313   8.706
27716SOL    HW195210  10.052   6.399   8.757
27716SOL    HW295211  10.107   6.245   8.753
27717SOL     OW95212   9.287   7.340   8.777
27717SOL    HW195213   9.295   7.440   8.775
27717SOL    HW295214   9.263   7.311   8.870
27718SOL     OW95215   9.590   6.077   8.310
27718SOL    HW195216   9.646   6.070   8.227
27718SOL    HW295217   9.647   6.055   8.390
27719SOL     OW95218   9.587   7.275   7.581
27719SOL    HW195219   9.679   7.305   7.556
27719SOL    HW295220   9.562   7.314   7.670
27720SOL     OW95221   9.268   6.692   8.330
27720SOL    HW195222   9.178   6.708   8.291
27720SOL    HW295223   9.266   6.608   8.385
27721SOL     OW95224   9.264   6.733   7.874
27721SOL    HW195225   9.342   6.791   7.898
27721SOL    HW295226   9.283   6.684   7.789
27722SOL     OW95227   9.794   6.916   9.182
27722SOL    HW195228   9.755   6.979   9.115
27722SOL    HW295229   9.877   6.956   9.222
27723SOL     OW95230   9.670   6.648   9.014
27723SOL    HW195231   9.689   6.672   8.919
27723SOL    HW295232   9.663   6.731   9.069
27724SOL     OW95233   9.331   6.938   8.488
27724SOL    HW195234   9.300   6.864   8.429
27724SOL    HW295235   9.263   6.956   8.559
27725SOL     OW95236   9.983   7.042   8.821
27725SOL    HW195237   9.920   7.120   8.828
27725SOL    HW295238   9.951   6.980   8.749
27726SOL     OW95239   9.374   5.837   9.086
27726SOL    HW195240   9.392   5.826   8.988
27726SOL    HW295241   9.276   5.833   9.103
27727SOL     OW95242   9.254   7.251   9.030
27727SOL    HW195243   9.326   7.237   9.098
27727SOL    HW295244   9.165   7.254   9.075
27728SOL     OW95245   9.422   5.907   8.054
27728SOL    HW195246   9.365   5.962   8.115
27728SOL    HW295247   9.492   5.859   8.107
27729SOL     OW95248   9.559   6.098   7.652
27729SOL    HW195249   9.631   6.127   7.589
27729SOL    HW295250   9.515   6.178   7.692
27730SOL     OW95251   9.674   7.361   8.118
27730SOL    HW195252   9.598   7.327   8.063
27730SOL    HW295253   9.760   7.324   8.083
27731SOL     OW95254   9.599   6.870   8.563
27731SOL    HW195255   9.611   6.886   8.660
27731SOL    HW295256   9.512   6.910   8.533
27732SOL     OW95257   9.605   6.345   8.101
27732SOL    HW195258   9.597   6.443   8.119
27732SOL    HW295259   9.689   6.311   8.142
27733SOL     OW95260   9.451   5.825   7.616
27733SOL    HW195261   9.495   5.794   7.533
27733SOL    HW295262   9.452   5.925   7.620
27734SOL     OW95263   9.304   6.077   8.227
27734SOL    HW195264   9.268   6.170   8.219
27734SOL    HW295265   9.387   6.078   8.283
27735SOL     OW95266   9.739   6.664   7.613
27735SOL    HW195267   9.839   6.664   7.624
27735SOL    HW295268   9.708   6.757   7.592
27736SOL     OW95269  10.100   6.175   7.572
27736SOL    HW195270  10.190   6.176   7.527
27736SOL    HW295271  10.077   6.081   7.597
27737SOL     OW95272   9.573   6.582   8.527
27737SOL    HW195273   9.584   6.537   8.616
27737SOL    HW295274   9.600   6.678   8.534
27738SOL     OW95275   9.854   6.195   8.549
27738SOL    HW195276   9.929   6.238   8.598
27738SOL    HW295277   9.787   6.160   8.615
27739SOL     OW95278   9.997   6.564   8.866
27739SOL    HW195279  10.066   6.616   8.816
27739SOL    HW295280   9.992   6.597   8.961
27740SOL     OW95281   9.846   5.644   8.293
27740SOL    HW195282   9.774   5.577   8.279
27740SOL    HW295283   9.928   5.598   8.328
27741SOL     OW95284   9.546   7.309   8.660
27741SOL    HW195285   9.526   7.291   8.564
27741SOL    HW295286   9.473   7.271   8.717
27742SOL     OW95287   9.272   6.511   8.533
27742SOL    HW195288   9.361   6.489   8.573
27742SOL    HW295289   9.217   6.427   8.529
27743SOL     OW95290   9.500   5.556   7.813
27743SOL    HW195291   9.538   5.644   7.840
27743SOL    HW295292   9.423   5.532   7.873
27744SOL     OW95293   9.916   6.173   9.141
27744SOL    HW195294   9.868   6.224   9.070
27744SOL    HW295295  10.009   6.152   9.111
27745SOL     OW95296   9.322   6.643   7.633
27745SOL    HW195297   9.312   6.546   7.612
27745SOL    HW295298   9.375   6.688   7.561
27746SOL     OW95299   9.523   6.411   8.762
27746SOL    HW195300   9.487   6.321   8.788
27746SOL    HW295301   9.484   6.481   8.822
27747SOL     OW95302  10.025   7.037   7.420
27747SOL    HW195303  10.000   7.114   7.479
27747SOL    HW295304  10.089   6.977   7.468
27748SOL     OW95305   9.843   7.244   8.454
27748SOL    HW195306   9.863   7.214   8.361
27748SOL    HW295307   9.768   7.189   8.491
27749SOL     OW95308   9.354   6.349   8.240
27749SOL    HW195309   9.449   6.340   8.208
27749SOL    HW295310   9.320   6.441   8.219
27750SOL     OW95311   9.291   6.466   9.167
27750SOL    HW195312   9.206   6.417   9.148
27750SOL    HW295313   9.318   6.453   9.262
27751SOL     OW95314   9.691   5.993   9.167
27751SOL    HW195315   9.727   5.940   9.090
27751SOL    HW295316   9.752   6.070   9.185
27752SOL     OW95317   9.755   6.410   7.739
27752SOL    HW195318   9.705   6.475   7.683
27752SOL    HW295319   9.697   6.331   7.758
27753SOL     OW95320   9.229   5.583   7.934
27753SOL    HW195321   9.142   5.570   7.887
27753SOL    HW295322   9.237   5.678   7.964
27754SOL     OW95323   9.666   7.103   9.000
27754SOL    HW195324   9.608   7.168   9.049
27754SOL    HW295325   9.728   7.153   8.940
27755SOL     OW95326   9.676   7.049   8.063
27755SOL    HW195327   9.674   6.950   8.076
27755SOL    HW295328   9.585   7.082   8.040
27756SOL     OW95329   9.526   7.296   9.150
27756SOL    HW195330   9.569   7.380   9.116
27756SOL    HW295331   9.551   7.283   9.246
27757SOL     OW95332   9.386   6.832   9.021
27757SOL    HW195333   9.365   6.737   8.994
27757SOL    HW295334   9.317   6.893   8.983
27758SOL     OW95335   9.475   7.197   8.425
27758SOL    HW195336   9.417   7.117   8.439
27758SOL    HW295337   9.499   7.204   8.328
27759SOL     OW95338   9.767   6.068   8.110
27759SOL    HW195339   9.805   5.979   8.136
27759SOL    HW295340   9.834   6.118   8.055
27760SOL     OW95341   9.755   6.626   8.764
27760SOL    HW195342   9.851   6.606   8.784
27760SOL    HW295343   9.744   6.724   8.746
27761SOL     OW95344   9.460   6.778   7.425
27761SOL    HW195345   9.452   6.790   7.326
27761SOL    HW295346   9.519   6.849   7.463
27762SOL     OW95347   9.887   7.217   7.585
27762SOL    HW195348   9.862   7.312   7.569
27762SOL    HW295349   9.854   7.189   7.675
27763SOL     OW95350   9.804   7.256   8.809
27763SOL    HW195351   9.853   7.336   8.773
27763SOL    HW295352   9.712   7.254   8.770
27764SOL     OW95353   9.447   6.137   9.171
27764SOL    HW195354   9.464   6.038   9.176
27764SOL    HW295355   9.511   6.185   9.232
27765SOL     OW95356   9.282   6.471   7.971
27765SOL    HW195357   9.289   6.570   7.958
27765SOL    HW295358   9.191   6.448   8.005
27766SOL     OW95359   9.791   6.269   8.909
27766SOL    HW195360   9.697   6.239   8.890
27766SOL    HW295361   9.800   6.366   8.886
27767SOL     OW95362  10.016   6.051   8.390
27767SOL    HW195363  10.108   6.079   8.417
27767SOL    HW295364   9.948   6.102   8.444
27768SOL     OW95365   9.869   6.902   8.617
27768SOL    HW195366   9.782   6.901   8.568
27768SOL    HW295367   9.935   6.842   8.570
27769SOL     OW95368   9.435   6.244   8.531
27769SOL    HW195369   9.473   6.303   8.602
27769SOL    HW295370   9.418   6.297   8.449
27770SOL     OW95371   9.606   6.890   8.829
27770SOL    HW195372   9.625   6.978   8.873
27770SOL    HW295373   9.511   6.864   8.847
27771SOL     OW95374   9.580   5.732   9.246
27771SOL    HW195375   9.493   5.729   9.197
27771SOL    HW295376   9.631   5.814   9.218
27772SOL     OW95377   9.790   7.086   9.650
27772SOL    HW195378   9.746   7.095   9.739
27772SOL    HW295379   9.861   7.016   9.654
27773SOL     OW95380   9.808   5.619   9.372
27773SOL    HW195381   9.896   5.647   9.333
27773SOL    HW295382   9.736   5.682   9.342
27774SOL     OW95383   9.647   6.928   9.429
27774SOL    HW195384   9.711   6.944   9.354
27774SOL    HW295385   9.671   6.986   9.507
27775SOL     OW95386   9.798   5.884  10.239
27775SOL    HW195387   9.874   5.949  10.235
27775SOL    HW295388   9.828   5.795  10.206
27776SOL     OW95389   9.495   6.310   9.657
27776SOL    HW195390   9.510   6.244   9.731
27776SOL    HW295391   9.445   6.389   9.692
27777SOL     OW95392   9.735   6.217   9.344
27777SOL    HW195393   9.695   6.296   9.297
27777SOL    HW295394   9.824   6.196   9.304
27778SOL     OW95395   9.630   5.826   9.659
27778SOL    HW195396   9.584   5.866   9.738
27778SOL    HW295397   9.578   5.845   9.577
27779SOL     OW95398   9.257   6.158   9.754
27779SOL    HW195399   9.259   6.109   9.841
27779SOL    HW295400   9.259   6.257   9.772
27780SOL     OW95401   9.430   7.043   9.608
27780SOL    HW195402   9.457   6.949   9.628
27780SOL    HW295403   9.455   7.065   9.514
27781SOL     OW95404   9.717   6.483   9.247
27781SOL    HW195405   9.686   6.517   9.159
27781SOL    HW295406   9.721   6.558   9.313
27782SOL     OW95407   9.321   6.375   9.420
27782SOL    HW195408   9.381   6.322   9.480
27782SOL    HW295409   9.227   6.343   9.432
27783SOL     OW95410   9.263   5.848   9.702
27783SOL    HW195411   9.323   5.799   9.640
27783SOL    HW295412   9.318   5.900   9.767
27784SOL     OW95413   9.587   7.275   9.426
27784SOL    HW195414   9.679   7.305   9.401
27784SOL    HW295415   9.562   7.314   9.515
27785SOL     OW95416   9.945   5.844   9.956
27785SOL    HW195417   9.934   5.786  10.037
27785SOL    HW295418  10.030   5.896   9.964
27786SOL     OW95419   9.559   6.098   9.497
27786SOL    HW195420   9.631   6.127   9.434
27786SOL    HW295421   9.515   6.178   9.537
27787SOL     OW95422   9.674   7.361   9.963
27787SOL    HW195423   9.598   7.327   9.908
27787SOL    HW295424   9.760   7.324   9.928
27788SOL     OW95425   9.451   5.825   9.461
27788SOL    HW195426   9.495   5.794   9.378
27788SOL    HW295427   9.452   5.925   9.465
27789SOL     OW95428   9.304   6.077  10.072
27789SOL    HW195429   9.268   6.170  10.064
27789SOL    HW295430   9.387   6.078  10.128
27790SOL     OW95431   9.739   6.664   9.458
27790SOL    HW195432   9.839   6.664   9.469
27790SOL    HW295433   9.708   6.757   9.437
27791SOL     OW95434  10.100   6.175   9.417
27791SOL    HW195435  10.190   6.176   9.372
27791SOL    HW295436  10.077   6.081   9.442
27792SOL     OW95437   9.300   5.607   9.371
27792SOL    HW195438   9.363   5.530   9.379
27792SOL    HW295439   9.320   5.675   9.442
27793SOL     OW95440   9.500   5.556   9.658
27793SOL    HW195441   9.538   5.644   9.685
27793SOL    HW295442   9.423   5.532   9.718
27794SOL     OW95443   9.322   6.643   9.478
27794SOL    HW195444   9.312   6.546   9.457
27794SOL    HW295445   9.375   6.688   9.406
27795SOL     OW95446  10.025   7.037   9.265
27795SOL    HW195447  10.000   7.114   9.324
27795SOL    HW295448  10.089   6.977   9.313
27796SOL     OW95449   9.986   6.655  10.016
27796SOL    HW195450  10.075   6.701  10.016
27796SOL    HW295451   9.979   6.595  10.095
27797SOL     OW95452   9.755   6.410   9.584
27797SOL    HW195453   9.705   6.475   9.528
27797SOL    HW295454   9.697   6.331   9.603
27798SOL     OW95455   9.229   5.583   9.779
27798SOL    HW195456   9.142   5.570   9.732
27798SOL    HW295457   9.237   5.678   9.809
27799SOL     OW95458   9.767   6.068   9.955
27799SOL    HW195459   9.805   5.979   9.981
27799SOL    HW295460   9.834   6.118   9.900
27800SOL     OW95461   9.460   6.778   9.270
27800SOL    HW195462   9.452   6.790   9.171
27800SOL    HW295463   9.519   6.849   9.308
27801SOL     OW95464   9.887   7.217   9.430
27801SOL    HW195465   9.862   7.312   9.414
27801SOL    HW295466   9.854   7.189   9.520
27802SOL     OW95467   9.282   6.471   9.816
27802SOL    HW195468   9.289   6.570   9.803
27802SOL    HW295469   9.191   6.448   9.850
27803SOL     OW95470  10.016   6.051  10.235
27803SOL    HW195471  10.108   6.079  10.262
27803SOL    HW295472   9.948   6.102  10.289
27804SOL     OW95473   9.580   7.578   0.019
27804SOL    HW195474   9.493   7.575  -0.030
27804SOL    HW295475   9.631   7.660  -0.009
27805SOL     OW95476   9.790   8.932   0.423
27805SOL    HW195477   9.746   8.941   0.512
27805SOL    HW295478   9.861   8.862   0.427
27806SOL     OW95479   9.808   7.465   0.145
27806SOL    HW195480   9.896   7.493   0.106
27806SOL    HW295481   9.736   7.528   0.115
27807SOL     OW95482   9.717   8.605   0.718
27807SOL    HW195483   9.650   8.559   0.777
27807SOL    HW295484   9.809   8.573   0.741
27808SOL     OW95485   9.647   8.774   0.202
27808SOL    HW195486   9.711   8.790   0.127
27808SOL    HW295487   9.671   8.832   0.280
27809SOL     OW95488   9.798   7.730   1.012
27809SOL    HW195489   9.874   7.795   1.008
27809SOL    HW295490   9.828   7.641   0.979
27810SOL     OW95491   9.495   8.156   0.430
27810SOL    HW195492   9.510   8.090   0.504
27810SOL    HW295493   9.445   8.235   0.465
27811SOL     OW95494   9.735   8.063   0.117
27811SOL    HW195495   9.695   8.142   0.070
27811SOL    HW295496   9.824   8.042   0.077
27812SOL     OW95497   9.908   8.987   0.815
27812SOL    HW195498   9.981   9.010   0.751
27812SOL    HW295499   9.837   8.934   0.769
27813SOL     OW95500   9.585   8.640   0.467
27813SOL    HW195501   9.631   8.614   0.552
27813SOL    HW295502   9.605   8.572   0.396
27814SOL     OW95503   9.595   7.900   1.273
27814SOL    HW195504   9.585   7.813   1.225
27814SOL    HW295505   9.531   7.967   1.236
27815SOL     OW95506   9.630   7.672   0.432
27815SOL    HW195507   9.584   7.712   0.511
27815SOL    HW295508   9.578   7.691   0.350
27816SOL     OW95509   9.257   8.004   0.527
27816SOL    HW195510   9.259   7.955   0.614
27816SOL    HW295511   9.259   8.103   0.545
27817SOL     OW95512   9.578   7.592   0.848
27817SOL    HW195513   9.630   7.632   0.923
27817SOL    HW295514   9.631   7.519   0.805
27818SOL     OW95515   9.562   7.640   1.182
27818SOL    HW195516   9.527   7.547   1.182
27818SOL    HW295517   9.649   7.643   1.133
27819SOL     OW95518   9.430   8.889   0.381
27819SOL    HW195519   9.457   8.795   0.401
27819SOL    HW295520   9.455   8.911   0.287
27820SOL     OW95521   9.444   9.032   0.618
27820SOL    HW195522   9.360   9.083   0.636
27820SOL    HW295523   9.435   8.981   0.533
27821SOL     OW95524   9.717   8.329   0.020
27821SOL    HW195525   9.686   8.363  -0.068
27821SOL    HW295526   9.721   8.404   0.086
27822SOL     OW95527   9.321   8.221   0.193
27822SOL    HW195528   9.381   8.168   0.253
27822SOL    HW295529   9.227   8.189   0.205
27823SOL     OW95530   9.489   8.008   1.523
27823SOL    HW195531   9.509   7.913   1.498
27823SOL    HW295532   9.452   8.011   1.616
27824SOL     OW95533   9.371   7.663   1.413
27824SOL    HW195534   9.443   7.673   1.344
27824SOL    HW295535   9.282   7.662   1.368
27825SOL     OW95536   9.519   8.441   0.873
27825SOL    HW195537   9.442   8.503   0.866
27825SOL    HW295538   9.556   8.442   0.966
27826SOL     OW95539   9.263   7.694   0.475
27826SOL    HW195540   9.323   7.645   0.413
27826SOL    HW295541   9.318   7.746   0.540
27827SOL     OW95542  10.050   8.159   1.324
27827SOL    HW195543  10.052   8.245   1.375
27827SOL    HW295544  10.107   8.091   1.371
27828SOL     OW95545   9.287   9.186   1.395
27828SOL    HW195546   9.295   9.286   1.393
27828SOL    HW295547   9.263   9.157   1.488
27829SOL     OW95548   9.590   7.923   0.928
27829SOL    HW195549   9.646   7.916   0.845
27829SOL    HW295550   9.647   7.901   1.008
27830SOL     OW95551   9.587   9.121   0.199
27830SOL    HW195552   9.679   9.151   0.174
27830SOL    HW295553   9.562   9.160   0.288
27831SOL     OW95554   9.268   8.538   0.948
27831SOL    HW195555   9.178   8.554   0.909
27831SOL    HW295556   9.266   8.454   1.003
27832SOL     OW95557   9.264   8.579   0.492
27832SOL    HW195558   9.342   8.637   0.516
27832SOL    HW295559   9.283   8.530   0.407
27833SOL     OW95560   9.331   8.784   1.106
27833SOL    HW195561   9.300   8.710   1.047
27833SOL    HW295562   9.263   8.802   1.177
27834SOL     OW95563   9.983   8.888   1.439
27834SOL    HW195564   9.920   8.966   1.446
27834SOL    HW295565   9.951   8.826   1.367
27835SOL     OW95566   9.374   7.683   1.704
27835SOL    HW195567   9.392   7.672   1.606
27835SOL    HW295568   9.276   7.679   1.721
27836SOL     OW95569   9.559   7.944   0.270
27836SOL    HW195570   9.631   7.973   0.207
27836SOL    HW295571   9.515   8.024   0.310
27837SOL     OW95572   9.674   9.207   0.736
27837SOL    HW195573   9.598   9.173   0.681
27837SOL    HW295574   9.760   9.170   0.701
27838SOL     OW95575   9.599   8.716   1.181
27838SOL    HW195576   9.611   8.732   1.278
27838SOL    HW295577   9.512   8.756   1.151
27839SOL     OW95578   9.605   8.191   0.719
27839SOL    HW195579   9.597   8.289   0.737
27839SOL    HW295580   9.689   8.157   0.760
27840SOL     OW95581   9.451   7.671   0.234
27840SOL    HW195582   9.495   7.640   0.151
27840SOL    HW295583   9.452   7.771   0.238
27841SOL     OW95584   9.304   7.923   0.845
27841SOL    HW195585   9.268   8.016   0.837
27841SOL    HW295586   9.387   7.924   0.901
27842SOL     OW95587   9.739   8.510   0.231
27842SOL    HW195588   9.839   8.510   0.242
27842SOL    HW295589   9.708   8.603   0.210
27843SOL     OW95590   9.300   7.453   0.144
27843SOL    HW195591   9.363   7.376   0.152
27843SOL    HW295592   9.320   7.521   0.215
27844SOL     OW95593   9.573   8.428   1.145
27844SOL    HW195594   9.584   8.383   1.234
27844SOL    HW295595   9.600   8.524   1.152
27845SOL     OW95596   9.854   8.041   1.167
27845SOL    HW195597   9.929   8.084   1.216
27845SOL    HW295598   9.787   8.006   1.233
27846SOL     OW95599   9.997   8.410   1.484
27846SOL    HW195600  10.066   8.462   1.434
27846SOL    HW295601   9.992   8.443   1.579
27847SOL     OW95602   9.846   7.490   0.911
27847SOL    HW195603   9.774   7.423   0.897
27847SOL    HW295604   9.928   7.444   0.946
27848SOL     OW95605   9.546   9.155   1.278
27848SOL    HW195606   9.526   9.137   1.182
27848SOL    HW295607   9.473   9.117   1.335
27849SOL     OW95608   9.272   8.357   1.151
27849SOL    HW195609   9.361   8.335   1.191
27849SOL    HW295610   9.217   8.273   1.147
27850SOL     OW95611   9.500   7.402   0.431
27850SOL    HW195612   9.538   7.490   0.458
27850SOL    HW295613   9.423   7.378   0.491
27851SOL     OW95614   9.916   8.019   1.759
27851SOL    HW195615   9.868   8.070   1.688
27851SOL    HW295616  10.009   7.998   1.729
27852SOL     OW95617   9.322   8.489   0.251
27852SOL    HW195618   9.312   8.392   0.230
27852SOL    HW295619   9.375   8.534   0.179
27853SOL     OW95620   9.523   8.257   1.380
27853SOL    HW195621   9.487   8.167   1.406
27853SOL    HW295622   9.484   8.327   1.440
27854SOL     OW95623  10.025   8.883   0.038
27854SOL    HW195624  10.000   8.960   0.097
27854SOL    HW295625  10.089   8.823   0.086
27855SOL     OW95626   9.843   9.090   1.072
27855SOL    HW195627   9.863   9.060   0.979
27855SOL    HW295628   9.768   9.035   1.109
27856SOL     OW95629   9.354   8.195   0.858
27856SOL    HW195630   9.449   8.186   0.826
27856SOL    HW295631   9.320   8.287   0.837
27857SOL     OW95632   9.691   7.839   1.785
27857SOL    HW195633   9.727   7.786   1.708
27857SOL    HW295634   9.752   7.916   1.803
27858SOL     OW95635   9.755   8.256   0.357
27858SOL    HW195636   9.705   8.321   0.301
27858SOL    HW295637   9.697   8.177   0.376
27859SOL     OW95638   9.676   8.895   0.681
27859SOL    HW195639   9.674   8.796   0.694
27859SOL    HW295640   9.585   8.928   0.658
27860SOL     OW95641   9.386   8.678   1.639
27860SOL    HW195642   9.365   8.583   1.612
27860SOL    HW295643   9.317   8.739   1.601
27861SOL     OW95644   9.475   9.043   1.043
27861SOL    HW195645   9.417   8.963   1.057
27861SOL    HW295646   9.499   9.050   0.946
27862SOL     OW95647   9.767   7.914   0.728
27862SOL    HW195648   9.805   7.825   0.754
27862SOL    HW295649   9.834   7.964   0.673
27863SOL     OW95650   9.755   8.472   1.382
27863SOL    HW195651   9.851   8.452   1.402
27863SOL    HW295652   9.744   8.570   1.364
27864SOL     OW95653   9.460   8.624   0.043
27864SOL    HW195654   9.452   8.636  -0.056
27864SOL    HW295655   9.519   8.695   0.081
27865SOL     OW95656   9.887   9.063   0.203
27865SOL    HW195657   9.862   9.158   0.187
27865SOL    HW295658   9.854   9.035   0.293
27866SOL     OW95659   9.804   9.102   1.427
27866SOL    HW195660   9.853   9.182   1.391
27866SOL    HW295661   9.712   9.100   1.388
27867SOL     OW95662   9.447   7.983   1.789
27867SOL    HW195663   9.464   7.884   1.794
27867SOL    HW295664   9.511   8.031   1.850
27868SOL     OW95665   9.282   8.317   0.589
27868SOL    HW195666   9.289   8.416   0.576
27868SOL    HW295667   9.191   8.294   0.623
27869SOL     OW95668  10.016   7.897   1.008
27869SOL    HW195669  10.108   7.925   1.035
27869SOL    HW295670   9.948   7.948   1.062
27870SOL     OW95671   9.869   8.748   1.235
27870SOL    HW195672   9.782   8.747   1.186
27870SOL    HW295673   9.935   8.688   1.188
27871SOL     OW95674   9.435   8.090   1.149
27871SOL    HW195675   9.473   8.149   1.220
27871SOL    HW295676   9.418   8.143   1.067
27872SOL     OW95677   9.580   7.578   1.864
27872SOL    HW195678   9.493   7.575   1.815
27872SOL    HW295679   9.631   7.660   1.836
27873SOL     OW95680   9.790   8.932   2.268
27873SOL    HW195681   9.746   8.941   2.357
27873SOL    HW295682   9.861   8.862   2.272
27874SOL     OW95683   9.808   7.465   1.990
27874SOL    HW195684   9.896   7.493   1.951
27874SOL    HW295685   9.736   7.528   1.960
27875SOL     OW95686   9.717   8.605   2.563
27875SOL    HW195687   9.650   8.559   2.622
27875SOL    HW295688   9.809   8.573   2.586
27876SOL     OW95689   9.798   7.730   2.857
27876SOL    HW195690   9.874   7.795   2.853
27876SOL    HW295691   9.828   7.641   2.824
27877SOL     OW95692   9.495   8.156   2.275
27877SOL    HW195693   9.510   8.090   2.349
27877SOL    HW295694   9.445   8.235   2.310
27878SOL     OW95695   9.409   8.418   3.419
27878SOL    HW195696   9.505   8.433   3.437
27878SOL    HW295697   9.371   8.356   3.488
27879SOL     OW95698   9.735   8.063   1.962
27879SOL    HW195699   9.695   8.142   1.915
27879SOL    HW295700   9.824   8.042   1.922
27880SOL     OW95701   9.908   8.987   2.660
27880SOL    HW195702   9.981   9.010   2.596
27880SOL    HW295703   9.837   8.934   2.614
27881SOL     OW95704   9.595   7.900   3.118
27881SOL    HW195705   9.585   7.813   3.070
27881SOL    HW295706   9.531   7.967   3.081
27882SOL     OW95707   9.630   7.672   2.277
27882SOL    HW195708   9.584   7.712   2.356
27882SOL    HW295709   9.578   7.691   2.195
27883SOL     OW95710   9.964   8.530   3.593
27883SOL    HW195711   9.935   8.607   3.650
27883SOL    HW295712   9.974   8.449   3.651
27884SOL     OW95713   9.257   8.004   2.372
27884SOL    HW195714   9.259   7.955   2.459
27884SOL    HW295715   9.259   8.103   2.390
27885SOL     OW95716   9.578   7.592   2.693
27885SOL    HW195717   9.630   7.632   2.768
27885SOL    HW295718   9.631   7.519   2.650
27886SOL     OW95719   9.562   7.640   3.027
27886SOL    HW195720   9.527   7.547   3.027
27886SOL    HW295721   9.649   7.643   2.978
27887SOL     OW95722   9.430   8.889   2.226
27887SOL    HW195723   9.457   8.795   2.246
27887SOL    HW295724   9.455   8.911   2.132
27888SOL     OW95725   9.444   9.032   2.463
27888SOL    HW195726   9.360   9.083   2.481
27888SOL    HW295727   9.435   8.981   2.378
27889SOL     OW95728  10.089   9.206   2.886
27889SOL    HW195729  10.135   9.139   2.828
27889SOL    HW295730  10.015   9.162   2.936
27890SOL     OW95731   9.489   8.008   3.368
27890SOL    HW195732   9.509   7.913   3.343
27890SOL    HW295733   9.452   8.011   3.461
27891SOL     OW95734   9.371   7.663   3.258
27891SOL    HW195735   9.443   7.673   3.189
27891SOL    HW295736   9.282   7.662   3.213
27892SOL     OW95737   9.519   8.441   2.718
27892SOL    HW195738   9.442   8.503   2.711
27892SOL    HW295739   9.556   8.442   2.811
27893SOL     OW95740   9.263   7.694   2.320
27893SOL    HW195741   9.323   7.645   2.258
27893SOL    HW295742   9.318   7.746   2.385
27894SOL     OW95743  10.050   8.159   3.169
27894SOL    HW195744  10.052   8.245   3.220
27894SOL    HW295745  10.107   8.091   3.216
27895SOL     OW95746   9.287   9.186   3.240
27895SOL    HW195747   9.295   9.286   3.238
27895SOL    HW295748   9.263   9.157   3.333
27896SOL     OW95749   9.590   7.923   2.773
27896SOL    HW195750   9.646   7.916   2.690
27896SOL    HW295751   9.647   7.901   2.853
27897SOL     OW95752   9.268   8.538   2.793
27897SOL    HW195753   9.178   8.554   2.754
27897SOL    HW295754   9.266   8.454   2.848
27898SOL     OW95755   9.794   8.762   3.645
27898SOL    HW195756   9.755   8.825   3.578
27898SOL    HW295757   9.877   8.802   3.685
27899SOL     OW95758   9.670   8.494   3.477
27899SOL    HW195759   9.689   8.518   3.382
27899SOL    HW295760   9.663   8.577   3.532
27900SOL     OW95761   9.331   8.784   2.951
27900SOL    HW195762   9.300   8.710   2.892
27900SOL    HW295763   9.263   8.802   3.022
27901SOL     OW95764   9.983   8.888   3.284
27901SOL    HW195765   9.920   8.966   3.291
27901SOL    HW295766   9.951   8.826   3.212
27902SOL     OW95767   9.374   7.683   3.549
27902SOL    HW195768   9.392   7.672   3.451
27902SOL    HW295769   9.276   7.679   3.566
27903SOL     OW95770   9.254   9.097   3.493
27903SOL    HW195771   9.326   9.083   3.561
27903SOL    HW295772   9.165   9.100   3.538
27904SOL     OW95773   9.422   7.753   2.517
27904SOL    HW195774   9.365   7.808   2.578
27904SOL    HW295775   9.492   7.705   2.570
27905SOL     OW95776   9.559   7.944   2.115
27905SOL    HW195777   9.631   7.973   2.052
27905SOL    HW295778   9.515   8.024   2.155
27906SOL     OW95779   9.674   9.207   2.581
27906SOL    HW195780   9.598   9.173   2.526
27906SOL    HW295781   9.760   9.170   2.546
27907SOL     OW95782   9.599   8.716   3.026
27907SOL    HW195783   9.611   8.732   3.123
27907SOL    HW295784   9.512   8.756   2.996
27908SOL     OW95785   9.605   8.191   2.564
27908SOL    HW195786   9.597   8.289   2.582
27908SOL    HW295787   9.689   8.157   2.605
27909SOL     OW95788   9.451   7.671   2.079
27909SOL    HW195789   9.495   7.640   1.996
27909SOL    HW295790   9.452   7.771   2.083
27910SOL     OW95791   9.304   7.923   2.690
27910SOL    HW195792   9.268   8.016   2.682
27910SOL    HW295793   9.387   7.924   2.746
27911SOL     OW95794  10.100   8.021   2.035
27911SOL    HW195795  10.190   8.022   1.990
27911SOL    HW295796  10.077   7.927   2.060
27912SOL     OW95797   9.300   7.453   1.989
27912SOL    HW195798   9.363   7.376   1.997
27912SOL    HW295799   9.320   7.521   2.060
27913SOL     OW95800   9.573   8.428   2.990
27913SOL    HW195801   9.584   8.383   3.079
27913SOL    HW295802   9.600   8.524   2.997
27914SOL     OW95803   9.854   8.041   3.012
27914SOL    HW195804   9.929   8.084   3.061
27914SOL    HW295805   9.787   8.006   3.078
27915SOL     OW95806   9.997   8.410   3.329
27915SOL    HW195807  10.066   8.462   3.279
27915SOL    HW295808   9.992   8.443   3.424
27916SOL     OW95809   9.846   7.490   2.756
27916SOL    HW195810   9.774   7.423   2.742
27916SOL    HW295811   9.928   7.444   2.791
27917SOL     OW95812   9.546   9.155   3.123
27917SOL    HW195813   9.526   9.137   3.027
27917SOL    HW295814   9.473   9.117   3.180
27918SOL     OW95815   9.272   8.357   2.996
27918SOL    HW195816   9.361   8.335   3.036
27918SOL    HW295817   9.217   8.273   2.992
27919SOL     OW95818   9.500   7.402   2.276
27919SOL    HW195819   9.538   7.490   2.303
27919SOL    HW295820   9.423   7.378   2.336
27920SOL     OW95821   9.916   8.019   3.604
27920SOL    HW195822   9.868   8.070   3.533
27920SOL    HW295823  10.009   7.998   3.574
27921SOL     OW95824   9.523   8.257   3.225
27921SOL    HW195825   9.487   8.167   3.251
27921SOL    HW295826   9.484   8.327   3.285
27922SOL     OW95827  10.025   8.883   1.883
27922SOL    HW195828  10.000   8.960   1.942
27922SOL    HW295829  10.089   8.823   1.931
27923SOL     OW95830   9.843   9.090   2.917
27923SOL    HW195831   9.863   9.060   2.824
27923SOL    HW295832   9.768   9.035   2.954
27924SOL     OW95833   9.354   8.195   2.703
27924SOL    HW195834   9.449   8.186   2.671
27924SOL    HW295835   9.320   8.287   2.682
27925SOL     OW95836   9.291   8.312   3.630
27925SOL    HW195837   9.206   8.263   3.611
27925SOL    HW295838   9.318   8.299   3.725
27926SOL     OW95839   9.691   7.839   3.630
27926SOL    HW195840   9.727   7.786   3.553
27926SOL    HW295841   9.752   7.916   3.648
27927SOL     OW95842   9.229   7.429   2.397
27927SOL    HW195843   9.142   7.416   2.350
27927SOL    HW295844   9.237   7.524   2.427
27928SOL     OW95845   9.666   8.949   3.463
27928SOL    HW195846   9.608   9.014   3.512
27928SOL    HW295847   9.728   8.999   3.403
27929SOL     OW95848   9.676   8.895   2.526
27929SOL    HW195849   9.674   8.796   2.539
27929SOL    HW295850   9.585   8.928   2.503
27930SOL     OW95851   9.526   9.142   3.613
27930SOL    HW195852   9.569   9.226   3.579
27930SOL    HW295853   9.551   9.129   3.709
27931SOL     OW95854   9.386   8.678   3.484
27931SOL    HW195855   9.365   8.583   3.457
27931SOL    HW295856   9.317   8.739   3.446
27932SOL     OW95857   9.475   9.043   2.888
27932SOL    HW195858   9.417   8.963   2.902
27932SOL    HW295859   9.499   9.050   2.791
27933SOL     OW95860   9.767   7.914   2.573
27933SOL    HW195861   9.805   7.825   2.599
27933SOL    HW295862   9.834   7.964   2.518
27934SOL     OW95863   9.755   8.472   3.227
27934SOL    HW195864   9.851   8.452   3.247
27934SOL    HW295865   9.744   8.570   3.209
27935SOL     OW95866   9.804   9.102   3.272
27935SOL    HW195867   9.853   9.182   3.236
27935SOL    HW295868   9.712   9.100   3.233
27936SOL     OW95869   9.447   7.983   3.634
27936SOL    HW195870   9.464   7.884   3.639
27936SOL    HW295871   9.511   8.031   3.695
27937SOL     OW95872   9.282   8.317   2.434
27937SOL    HW195873   9.289   8.416   2.421
27937SOL    HW295874   9.191   8.294   2.468
27938SOL     OW95875   9.791   8.115   3.372
27938SOL    HW195876   9.697   8.085   3.353
27938SOL    HW295877   9.800   8.212   3.349
27939SOL     OW95878   9.869   8.748   3.080
27939SOL    HW195879   9.782   8.747   3.031
27939SOL    HW295880   9.935   8.688   3.033
27940SOL     OW95881   9.435   8.090   2.994
27940SOL    HW195882   9.473   8.149   3.065
27940SOL    HW295883   9.418   8.143   2.912
27941SOL     OW95884   9.606   8.736   3.292
27941SOL    HW195885   9.625   8.824   3.336
27941SOL    HW295886   9.511   8.710   3.310
27942SOL     OW95887   9.580   7.578   3.710
27942SOL    HW195888   9.493   7.575   3.661
27942SOL    HW295889   9.631   7.660   3.682
27943SOL     OW95890   9.790   8.932   4.114
27943SOL    HW195891   9.746   8.941   4.203
27943SOL    HW295892   9.861   8.862   4.118
27944SOL     OW95893   9.808   7.465   3.836
27944SOL    HW195894   9.896   7.493   3.797
27944SOL    HW295895   9.736   7.528   3.806
27945SOL     OW95896   9.717   8.605   4.409
27945SOL    HW195897   9.650   8.559   4.468
27945SOL    HW295898   9.809   8.573   4.432
27946SOL     OW95899   9.647   8.774   3.893
27946SOL    HW195900   9.711   8.790   3.818
27946SOL    HW295901   9.671   8.832   3.971
27947SOL     OW95902   9.798   7.730   4.703
27947SOL    HW195903   9.874   7.795   4.699
27947SOL    HW295904   9.828   7.641   4.670
27948SOL     OW95905   9.495   8.156   4.121
27948SOL    HW195906   9.510   8.090   4.195
27948SOL    HW295907   9.445   8.235   4.156
27949SOL     OW95908   9.409   8.418   5.265
27949SOL    HW195909   9.505   8.433   5.283
27949SOL    HW295910   9.371   8.356   5.334
27950SOL     OW95911   9.735   8.063   3.808
27950SOL    HW195912   9.695   8.142   3.761
27950SOL    HW295913   9.824   8.042   3.768
27951SOL     OW95914   9.908   8.987   4.506
27951SOL    HW195915   9.981   9.010   4.442
27951SOL    HW295916   9.837   8.934   4.460
27952SOL     OW95917   9.585   8.640   4.158
27952SOL    HW195918   9.631   8.614   4.243
27952SOL    HW295919   9.605   8.572   4.087
27953SOL     OW95920   9.595   7.900   4.964
27953SOL    HW195921   9.585   7.813   4.916
27953SOL    HW295922   9.531   7.967   4.927
27954SOL     OW95923   9.630   7.672   4.123
27954SOL    HW195924   9.584   7.712   4.202
27954SOL    HW295925   9.578   7.691   4.041
27955SOL     OW95926   9.964   8.530   5.439
27955SOL    HW195927   9.935   8.607   5.496
27955SOL    HW295928   9.974   8.449   5.497
27956SOL     OW95929   9.257   8.004   4.218
27956SOL    HW195930   9.259   7.955   4.305
27956SOL    HW295931   9.259   8.103   4.236
27957SOL     OW95932   9.578   7.592   4.539
27957SOL    HW195933   9.630   7.632   4.614
27957SOL    HW295934   9.631   7.519   4.496
27958SOL     OW95935   9.562   7.640   4.873
27958SOL    HW195936   9.527   7.547   4.873
27958SOL    HW295937   9.649   7.643   4.824
27959SOL     OW95938   9.430   8.889   4.072
27959SOL    HW195939   9.457   8.795   4.092
27959SOL    HW295940   9.455   8.911   3.978
27960SOL     OW95941   9.444   9.032   4.309
27960SOL    HW195942   9.360   9.083   4.327
27960SOL    HW295943   9.435   8.981   4.224
27961SOL     OW95944   9.717   8.329   3.711
27961SOL    HW195945   9.686   8.363   3.623
27961SOL    HW295946   9.721   8.404   3.777
27962SOL     OW95947   9.321   8.221   3.884
27962SOL    HW195948   9.381   8.168   3.944
27962SOL    HW295949   9.227   8.189   3.896
27963SOL     OW95950   9.489   8.008   5.214
27963SOL    HW195951   9.509   7.913   5.189
27963SOL    HW295952   9.452   8.011   5.307
27964SOL     OW95953   9.371   7.663   5.104
27964SOL    HW195954   9.443   7.673   5.035
27964SOL    HW295955   9.282   7.662   5.059
27965SOL     OW95956   9.519   8.441   4.564
27965SOL    HW195957   9.442   8.503   4.557
27965SOL    HW295958   9.556   8.442   4.657
27966SOL     OW95959   9.263   7.694   4.166
27966SOL    HW195960   9.323   7.645   4.104
27966SOL    HW295961   9.318   7.746   4.231
27967SOL     OW95962  10.050   8.159   5.015
27967SOL    HW195963  10.052   8.245   5.066
27967SOL    HW295964  10.107   8.091   5.062
27968SOL     OW95965   9.287   9.186   5.086
27968SOL    HW195966   9.295   9.286   5.084
27968SOL    HW295967   9.263   9.157   5.179
27969SOL     OW95968   9.590   7.923   4.619
27969SOL    HW195969   9.646   7.916   4.536
27969SOL    HW295970   9.647   7.901   4.699
27970SOL     OW95971   9.587   9.121   3.890
27970SOL    HW195972   9.679   9.151   3.865
27970SOL    HW295973   9.562   9.160   3.979
27971SOL     OW95974   9.268   8.538   4.639
27971SOL    HW195975   9.178   8.554   4.600
27971SOL    HW295976   9.266   8.454   4.694
27972SOL     OW95977   9.264   8.579   4.183
27972SOL    HW195978   9.342   8.637   4.207
27972SOL    HW295979   9.283   8.530   4.098
27973SOL     OW95980   9.794   8.762   5.491
27973SOL    HW195981   9.755   8.825   5.424
27973SOL    HW295982   9.877   8.802   5.531
27974SOL     OW95983   9.670   8.494   5.323
27974SOL    HW195984   9.689   8.518   5.228
27974SOL    HW295985   9.663   8.577   5.378
27975SOL     OW95986   9.331   8.784   4.797
27975SOL    HW195987   9.300   8.710   4.738
27975SOL    HW295988   9.263   8.802   4.868
27976SOL     OW95989   9.374   7.683   5.395
27976SOL    HW195990   9.392   7.672   5.297
27976SOL    HW295991   9.276   7.679   5.412
27977SOL     OW95992   9.254   9.097   5.339
27977SOL    HW195993   9.326   9.083   5.407
27977SOL    HW295994   9.165   9.100   5.384
27978SOL     OW95995   9.422   7.753   4.363
27978SOL    HW195996   9.365   7.808   4.424
27978SOL    HW295997   9.492   7.705   4.416
27979SOL     OW95998   9.559   7.944   3.961
27979SOL    HW195999   9.631   7.973   3.898
27979SOL    HW296000   9.515   8.024   4.001
27980SOL     OW96001   9.674   9.207   4.427
27980SOL    HW196002   9.598   9.173   4.372
27980SOL    HW296003   9.760   9.170   4.392
27981SOL     OW96004   9.599   8.716   4.872
27981SOL    HW196005   9.611   8.732   4.969
27981SOL    HW296006   9.512   8.756   4.842
27982SOL     OW96007   9.605   8.191   4.410
27982SOL    HW196008   9.597   8.289   4.428
27982SOL    HW296009   9.689   8.157   4.451
27983SOL     OW96010   9.451   7.671   3.925
27983SOL    HW196011   9.495   7.640   3.842
27983SOL    HW296012   9.452   7.771   3.929
27984SOL     OW96013   9.304   7.923   4.536
27984SOL    HW196014   9.268   8.016   4.528
27984SOL    HW296015   9.387   7.924   4.592
27985SOL     OW96016   9.739   8.510   3.922
27985SOL    HW196017   9.839   8.510   3.933
27985SOL    HW296018   9.708   8.603   3.901
27986SOL     OW96019  10.100   8.021   3.881
27986SOL    HW196020  10.190   8.022   3.836
27986SOL    HW296021  10.077   7.927   3.906
27987SOL     OW96022   9.300   7.453   3.835
27987SOL    HW196023   9.363   7.376   3.843
27987SOL    HW296024   9.320   7.521   3.906
27988SOL     OW96025   9.854   8.041   4.858
27988SOL    HW196026   9.929   8.084   4.907
27988SOL    HW296027   9.787   8.006   4.924
27989SOL     OW96028   9.846   7.490   4.602
27989SOL    HW196029   9.774   7.423   4.588
27989SOL    HW296030   9.928   7.444   4.637
27990SOL     OW96031   9.546   9.155   4.969
27990SOL    HW196032   9.526   9.137   4.873
27990SOL    HW296033   9.473   9.117   5.026
27991SOL     OW96034   9.272   8.357   4.842
27991SOL    HW196035   9.361   8.335   4.882
27991SOL    HW296036   9.217   8.273   4.838
27992SOL     OW96037   9.500   7.402   4.122
27992SOL    HW196038   9.538   7.490   4.149
27992SOL    HW296039   9.423   7.378   4.182
27993SOL     OW96040   9.322   8.489   3.942
27993SOL    HW196041   9.312   8.392   3.921
27993SOL    HW296042   9.375   8.534   3.870
27994SOL     OW96043   9.523   8.257   5.071
27994SOL    HW196044   9.487   8.167   5.097
27994SOL    HW296045   9.484   8.327   5.131
27995SOL     OW96046  10.025   8.883   3.729
27995SOL    HW196047  10.000   8.960   3.788
27995SOL    HW296048  10.089   8.823   3.777
27996SOL     OW96049   9.354   8.195   4.549
27996SOL    HW196050   9.449   8.186   4.517
27996SOL    HW296051   9.320   8.287   4.528
27997SOL     OW96052   9.291   8.312   5.476
27997SOL    HW196053   9.206   8.263   5.457
27997SOL    HW296054   9.318   8.299   5.571
27998SOL     OW96055   9.691   7.839   5.476
27998SOL    HW196056   9.727   7.786   5.399
27998SOL    HW296057   9.752   7.916   5.494
27999SOL     OW96058   9.755   8.256   4.048
27999SOL    HW196059   9.705   8.321   3.992
27999SOL    HW296060   9.697   8.177   4.067
28000SOL     OW96061   9.229   7.429   4.243
28000SOL    HW196062   9.142   7.416   4.196
28000SOL    HW296063   9.237   7.524   4.273
28001SOL     OW96064   9.666   8.949   5.309
28001SOL    HW196065   9.608   9.014   5.358
28001SOL    HW296066   9.728   8.999   5.249
28002SOL     OW96067   9.676   8.895   4.372
28002SOL    HW196068   9.674   8.796   4.385
28002SOL    HW296069   9.585   8.928   4.349
28003SOL     OW96070   9.526   9.142   5.459
28003SOL    HW196071   9.569   9.226   5.425
28003SOL    HW296072   9.551   9.129   5.555
28004SOL     OW96073   9.386   8.678   5.330
28004SOL    HW196074   9.365   8.583   5.303
28004SOL    HW296075   9.317   8.739   5.292
28005SOL     OW96076   9.475   9.043   4.734
28005SOL    HW196077   9.417   8.963   4.748
28005SOL    HW296078   9.499   9.050   4.637
28006SOL     OW96079   9.767   7.914   4.419
28006SOL    HW196080   9.805   7.825   4.445
28006SOL    HW296081   9.834   7.964   4.364
28007SOL     OW96082   9.460   8.624   3.734
28007SOL    HW196083   9.452   8.636   3.635
28007SOL    HW296084   9.519   8.695   3.772
28008SOL     OW96085   9.887   9.063   3.894
28008SOL    HW196086   9.862   9.158   3.878
28008SOL    HW296087   9.854   9.035   3.984
28009SOL     OW96088   9.447   7.983   5.480
28009SOL    HW196089   9.464   7.884   5.485
28009SOL    HW296090   9.511   8.031   5.541
28010SOL     OW96091   9.282   8.317   4.280
28010SOL    HW196092   9.289   8.416   4.267
28010SOL    HW296093   9.191   8.294   4.314
28011SOL     OW96094   9.791   8.115   5.218
28011SOL    HW196095   9.697   8.085   5.199
28011SOL    HW296096   9.800   8.212   5.195
28012SOL     OW96097  10.016   7.897   4.699
28012SOL    HW196098  10.108   7.925   4.726
28012SOL    HW296099   9.948   7.948   4.753
28013SOL     OW96100   9.435   8.090   4.840
28013SOL    HW196101   9.473   8.149   4.911
28013SOL    HW296102   9.418   8.143   4.758
28014SOL     OW96103   9.606   8.736   5.138
28014SOL    HW196104   9.625   8.824   5.182
28014SOL    HW296105   9.511   8.710   5.156
28015SOL     OW96106   9.580   7.578   5.555
28015SOL    HW196107   9.493   7.575   5.506
28015SOL    HW296108   9.631   7.660   5.527
28016SOL     OW96109   9.790   8.932   5.959
28016SOL    HW196110   9.746   8.941   6.048
28016SOL    HW296111   9.861   8.862   5.963
28017SOL     OW96112   9.808   7.465   5.681
28017SOL    HW196113   9.896   7.493   5.642
28017SOL    HW296114   9.736   7.528   5.651
28018SOL     OW96115   9.717   8.605   6.254
28018SOL    HW196116   9.650   8.559   6.313
28018SOL    HW296117   9.809   8.573   6.277
28019SOL     OW96118   9.647   8.774   5.738
28019SOL    HW196119   9.711   8.790   5.663
28019SOL    HW296120   9.671   8.832   5.816
28020SOL     OW96121   9.798   7.730   6.548
28020SOL    HW196122   9.874   7.795   6.544
28020SOL    HW296123   9.828   7.641   6.515
28021SOL     OW96124   9.495   8.156   5.966
28021SOL    HW196125   9.510   8.090   6.040
28021SOL    HW296126   9.445   8.235   6.001
28022SOL     OW96127   9.409   8.418   7.110
28022SOL    HW196128   9.505   8.433   7.128
28022SOL    HW296129   9.371   8.356   7.179
28023SOL     OW96130   9.735   8.063   5.653
28023SOL    HW196131   9.695   8.142   5.606
28023SOL    HW296132   9.824   8.042   5.613
28024SOL     OW96133   9.908   8.987   6.351
28024SOL    HW196134   9.981   9.010   6.287
28024SOL    HW296135   9.837   8.934   6.305
28025SOL     OW96136   9.585   8.640   6.003
28025SOL    HW196137   9.631   8.614   6.088
28025SOL    HW296138   9.605   8.572   5.932
28026SOL     OW96139   9.595   7.900   6.809
28026SOL    HW196140   9.585   7.813   6.761
28026SOL    HW296141   9.531   7.967   6.772
28027SOL     OW96142   9.630   7.672   5.968
28027SOL    HW196143   9.584   7.712   6.047
28027SOL    HW296144   9.578   7.691   5.886
28028SOL     OW96145   9.964   8.530   7.284
28028SOL    HW196146   9.935   8.607   7.341
28028SOL    HW296147   9.974   8.449   7.342
28029SOL     OW96148   9.257   8.004   6.063
28029SOL    HW196149   9.259   7.955   6.150
28029SOL    HW296150   9.259   8.103   6.081
28030SOL     OW96151   9.578   7.592   6.384
28030SOL    HW196152   9.630   7.632   6.459
28030SOL    HW296153   9.631   7.519   6.341
28031SOL     OW96154   9.562   7.640   6.718
28031SOL    HW196155   9.527   7.547   6.718
28031SOL    HW296156   9.649   7.643   6.669
28032SOL     OW96157   9.430   8.889   5.917
28032SOL    HW196158   9.457   8.795   5.937
28032SOL    HW296159   9.455   8.911   5.823
28033SOL     OW96160   9.444   9.032   6.154
28033SOL    HW196161   9.360   9.083   6.172
28033SOL    HW296162   9.435   8.981   6.069
28034SOL     OW96163   9.717   8.329   5.556
28034SOL    HW196164   9.686   8.363   5.468
28034SOL    HW296165   9.721   8.404   5.622
28035SOL     OW96166   9.321   8.221   5.729
28035SOL    HW196167   9.381   8.168   5.789
28035SOL    HW296168   9.227   8.189   5.741
28036SOL     OW96169  10.089   9.206   6.577
28036SOL    HW196170  10.135   9.139   6.519
28036SOL    HW296171  10.015   9.162   6.627
28037SOL     OW96172   9.489   8.008   7.059
28037SOL    HW196173   9.509   7.913   7.034
28037SOL    HW296174   9.452   8.011   7.152
28038SOL     OW96175   9.371   7.663   6.949
28038SOL    HW196176   9.443   7.673   6.880
28038SOL    HW296177   9.282   7.662   6.904
28039SOL     OW96178   9.519   8.441   6.409
28039SOL    HW196179   9.442   8.503   6.402
28039SOL    HW296180   9.556   8.442   6.502
28040SOL     OW96181   9.263   7.694   6.011
28040SOL    HW196182   9.323   7.645   5.949
28040SOL    HW296183   9.318   7.746   6.076
28041SOL     OW96184  10.050   8.159   6.860
28041SOL    HW196185  10.052   8.245   6.911
28041SOL    HW296186  10.107   8.091   6.907
28042SOL     OW96187   9.287   9.186   6.931
28042SOL    HW196188   9.295   9.286   6.929
28042SOL    HW296189   9.263   9.157   7.024
28043SOL     OW96190   9.590   7.923   6.464
28043SOL    HW196191   9.646   7.916   6.381
28043SOL    HW296192   9.647   7.901   6.544
28044SOL     OW96193   9.587   9.121   5.735
28044SOL    HW196194   9.679   9.151   5.710
28044SOL    HW296195   9.562   9.160   5.824
28045SOL     OW96196   9.268   8.538   6.484
28045SOL    HW196197   9.178   8.554   6.445
28045SOL    HW296198   9.266   8.454   6.539
28046SOL     OW96199   9.264   8.579   6.028
28046SOL    HW196200   9.342   8.637   6.052
28046SOL    HW296201   9.283   8.530   5.943
28047SOL     OW96202   9.794   8.762   7.336
28047SOL    HW196203   9.755   8.825   7.269
28047SOL    HW296204   9.877   8.802   7.376
28048SOL     OW96205   9.670   8.494   7.168
28048SOL    HW196206   9.689   8.518   7.073
28048SOL    HW296207   9.663   8.577   7.223
28049SOL     OW96208   9.331   8.784   6.642
28049SOL    HW196209   9.300   8.710   6.583
28049SOL    HW296210   9.263   8.802   6.713
28050SOL     OW96211   9.983   8.888   6.975
28050SOL    HW196212   9.920   8.966   6.982
28050SOL    HW296213   9.951   8.826   6.903
28051SOL     OW96214   9.374   7.683   7.240
28051SOL    HW196215   9.392   7.672   7.142
28051SOL    HW296216   9.276   7.679   7.257
28052SOL     OW96217   9.254   9.097   7.184
28052SOL    HW196218   9.326   9.083   7.252
28052SOL    HW296219   9.165   9.100   7.229
28053SOL     OW96220   9.422   7.753   6.208
28053SOL    HW196221   9.365   7.808   6.269
28053SOL    HW296222   9.492   7.705   6.261
28054SOL     OW96223   9.559   7.944   5.806
28054SOL    HW196224   9.631   7.973   5.743
28054SOL    HW296225   9.515   8.024   5.846
28055SOL     OW96226   9.674   9.207   6.272
28055SOL    HW196227   9.598   9.173   6.217
28055SOL    HW296228   9.760   9.170   6.237
28056SOL     OW96229   9.599   8.716   6.717
28056SOL    HW196230   9.611   8.732   6.814
28056SOL    HW296231   9.512   8.756   6.687
28057SOL     OW96232   9.605   8.191   6.255
28057SOL    HW196233   9.597   8.289   6.273
28057SOL    HW296234   9.689   8.157   6.296
28058SOL     OW96235   9.451   7.671   5.770
28058SOL    HW196236   9.495   7.640   5.687
28058SOL    HW296237   9.452   7.771   5.774
28059SOL     OW96238   9.304   7.923   6.381
28059SOL    HW196239   9.268   8.016   6.373
28059SOL    HW296240   9.387   7.924   6.437
28060SOL     OW96241   9.739   8.510   5.767
28060SOL    HW196242   9.839   8.510   5.778
28060SOL    HW296243   9.708   8.603   5.746
28061SOL     OW96244   9.300   7.453   5.680
28061SOL    HW196245   9.363   7.376   5.688
28061SOL    HW296246   9.320   7.521   5.751
28062SOL     OW96247   9.573   8.428   6.681
28062SOL    HW196248   9.584   8.383   6.770
28062SOL    HW296249   9.600   8.524   6.688
28063SOL     OW96250   9.854   8.041   6.703
28063SOL    HW196251   9.929   8.084   6.752
28063SOL    HW296252   9.787   8.006   6.769
28064SOL     OW96253   9.997   8.410   7.020
28064SOL    HW196254  10.066   8.462   6.970
28064SOL    HW296255   9.992   8.443   7.115
28065SOL     OW96256   9.546   9.155   6.814
28065SOL    HW196257   9.526   9.137   6.718
28065SOL    HW296258   9.473   9.117   6.871
28066SOL     OW96259   9.272   8.357   6.687
28066SOL    HW196260   9.361   8.335   6.727
28066SOL    HW296261   9.217   8.273   6.683
28067SOL     OW96262   9.500   7.402   5.967
28067SOL    HW196263   9.538   7.490   5.994
28067SOL    HW296264   9.423   7.378   6.027
28068SOL     OW96265   9.916   8.019   7.295
28068SOL    HW196266   9.868   8.070   7.224
28068SOL    HW296267  10.009   7.998   7.265
28069SOL     OW96268   9.322   8.489   5.787
28069SOL    HW196269   9.312   8.392   5.766
28069SOL    HW296270   9.375   8.534   5.715
28070SOL     OW96271   9.523   8.257   6.916
28070SOL    HW196272   9.487   8.167   6.942
28070SOL    HW296273   9.484   8.327   6.976
28071SOL     OW96274  10.025   8.883   5.574
28071SOL    HW196275  10.000   8.960   5.633
28071SOL    HW296276  10.089   8.823   5.622
28072SOL     OW96277   9.843   9.090   6.608
28072SOL    HW196278   9.863   9.060   6.515
28072SOL    HW296279   9.768   9.035   6.645
28073SOL     OW96280   9.354   8.195   6.394
28073SOL    HW196281   9.449   8.186   6.362
28073SOL    HW296282   9.320   8.287   6.373
28074SOL     OW96283   9.291   8.312   7.321
28074SOL    HW196284   9.206   8.263   7.302
28074SOL    HW296285   9.318   8.299   7.416
28075SOL     OW96286   9.691   7.839   7.321
28075SOL    HW196287   9.727   7.786   7.244
28075SOL    HW296288   9.752   7.916   7.339
28076SOL     OW96289   9.755   8.256   5.893
28076SOL    HW196290   9.705   8.321   5.837
28076SOL    HW296291   9.697   8.177   5.912
28077SOL     OW96292   9.229   7.429   6.088
28077SOL    HW196293   9.142   7.416   6.041
28077SOL    HW296294   9.237   7.524   6.118
28078SOL     OW96295   9.666   8.949   7.154
28078SOL    HW196296   9.608   9.014   7.203
28078SOL    HW296297   9.728   8.999   7.094
28079SOL     OW96298   9.676   8.895   6.217
28079SOL    HW196299   9.674   8.796   6.230
28079SOL    HW296300   9.585   8.928   6.194
28080SOL     OW96301   9.526   9.142   7.304
28080SOL    HW196302   9.569   9.226   7.270
28080SOL    HW296303   9.551   9.129   7.400
28081SOL     OW96304   9.386   8.678   7.175
28081SOL    HW196305   9.365   8.583   7.148
28081SOL    HW296306   9.317   8.739   7.137
28082SOL     OW96307   9.475   9.043   6.579
28082SOL    HW196308   9.417   8.963   6.593
28082SOL    HW296309   9.499   9.050   6.482
28083SOL     OW96310   9.767   7.914   6.264
28083SOL    HW196311   9.805   7.825   6.290
28083SOL    HW296312   9.834   7.964   6.209
28084SOL     OW96313   9.755   8.472   6.918
28084SOL    HW196314   9.851   8.452   6.938
28084SOL    HW296315   9.744   8.570   6.900
28085SOL     OW96316   9.460   8.624   5.579
28085SOL    HW196317   9.452   8.636   5.480
28085SOL    HW296318   9.519   8.695   5.617
28086SOL     OW96319   9.887   9.063   5.739
28086SOL    HW196320   9.862   9.158   5.723
28086SOL    HW296321   9.854   9.035   5.829
28087SOL     OW96322   9.804   9.102   6.963
28087SOL    HW196323   9.853   9.182   6.927
28087SOL    HW296324   9.712   9.100   6.924
28088SOL     OW96325   9.447   7.983   7.325
28088SOL    HW196326   9.464   7.884   7.330
28088SOL    HW296327   9.511   8.031   7.386
28089SOL     OW96328   9.282   8.317   6.125
28089SOL    HW196329   9.289   8.416   6.112
28089SOL    HW296330   9.191   8.294   6.159
28090SOL     OW96331   9.791   8.115   7.063
28090SOL    HW196332   9.697   8.085   7.044
28090SOL    HW296333   9.800   8.212   7.040
28091SOL     OW96334  10.016   7.897   6.544
28091SOL    HW196335  10.108   7.925   6.571
28091SOL    HW296336   9.948   7.948   6.598
28092SOL     OW96337   9.869   8.748   6.771
28092SOL    HW196338   9.782   8.747   6.722
28092SOL    HW296339   9.935   8.688   6.724
28093SOL     OW96340   9.435   8.090   6.685
28093SOL    HW196341   9.473   8.149   6.756
28093SOL    HW296342   9.418   8.143   6.603
28094SOL     OW96343   9.606   8.736   6.983
28094SOL    HW196344   9.625   8.824   7.027
28094SOL    HW296345   9.511   8.710   7.001
28095SOL     OW96346   9.580   7.578   7.401
28095SOL    HW196347   9.493   7.575   7.352
28095SOL    HW296348   9.631   7.660   7.373
28096SOL     OW96349   9.790   8.932   7.805
28096SOL    HW196350   9.746   8.941   7.894
28096SOL    HW296351   9.861   8.862   7.809
28097SOL     OW96352   9.647   8.774   7.584
28097SOL    HW196353   9.711   8.790   7.509
28097SOL    HW296354   9.671   8.832   7.662
28098SOL     OW96355   9.798   7.730   8.394
28098SOL    HW196356   9.874   7.795   8.390
28098SOL    HW296357   9.828   7.641   8.361
28099SOL     OW96358   9.495   8.156   7.812
28099SOL    HW196359   9.510   8.090   7.886
28099SOL    HW296360   9.445   8.235   7.847
28100SOL     OW96361   9.409   8.418   8.956
28100SOL    HW196362   9.505   8.433   8.974
28100SOL    HW296363   9.371   8.356   9.025
28101SOL     OW96364   9.735   8.063   7.499
28101SOL    HW196365   9.695   8.142   7.452
28101SOL    HW296366   9.824   8.042   7.459
28102SOL     OW96367   9.908   8.987   8.197
28102SOL    HW196368   9.981   9.010   8.133
28102SOL    HW296369   9.837   8.934   8.151
28103SOL     OW96370   9.585   8.640   7.849
28103SOL    HW196371   9.631   8.614   7.934
28103SOL    HW296372   9.605   8.572   7.778
28104SOL     OW96373   9.595   7.900   8.655
28104SOL    HW196374   9.585   7.813   8.607
28104SOL    HW296375   9.531   7.967   8.618
28105SOL     OW96376   9.964   8.530   9.130
28105SOL    HW196377   9.935   8.607   9.187
28105SOL    HW296378   9.974   8.449   9.188
28106SOL     OW96379   9.257   8.004   7.909
28106SOL    HW196380   9.259   7.955   7.996
28106SOL    HW296381   9.259   8.103   7.927
28107SOL     OW96382   9.578   7.592   8.230
28107SOL    HW196383   9.630   7.632   8.305
28107SOL    HW296384   9.631   7.519   8.187
28108SOL     OW96385   9.562   7.640   8.564
28108SOL    HW196386   9.527   7.547   8.564
28108SOL    HW296387   9.649   7.643   8.515
28109SOL     OW96388   9.430   8.889   7.763
28109SOL    HW196389   9.457   8.795   7.783
28109SOL    HW296390   9.455   8.911   7.669
28110SOL     OW96391   9.444   9.032   8.000
28110SOL    HW196392   9.360   9.083   8.018
28110SOL    HW296393   9.435   8.981   7.915
28111SOL     OW96394   9.717   8.329   7.402
28111SOL    HW196395   9.686   8.363   7.314
28111SOL    HW296396   9.721   8.404   7.468
28112SOL     OW96397   9.321   8.221   7.575
28112SOL    HW196398   9.381   8.168   7.635
28112SOL    HW296399   9.227   8.189   7.587
28113SOL     OW96400  10.089   9.206   8.423
28113SOL    HW196401  10.135   9.139   8.365
28113SOL    HW296402  10.015   9.162   8.473
28114SOL     OW96403   9.489   8.008   8.905
28114SOL    HW196404   9.509   7.913   8.880
28114SOL    HW296405   9.452   8.011   8.998
28115SOL     OW96406   9.371   7.663   8.795
28115SOL    HW196407   9.443   7.673   8.726
28115SOL    HW296408   9.282   7.662   8.750
28116SOL     OW96409   9.519   8.441   8.255
28116SOL    HW196410   9.442   8.503   8.248
28116SOL    HW296411   9.556   8.442   8.348
28117SOL     OW96412   9.263   7.694   7.857
28117SOL    HW196413   9.323   7.645   7.795
28117SOL    HW296414   9.318   7.746   7.922
28118SOL     OW96415  10.050   8.159   8.706
28118SOL    HW196416  10.052   8.245   8.757
28118SOL    HW296417  10.107   8.091   8.753
28119SOL     OW96418   9.287   9.186   8.777
28119SOL    HW196419   9.295   9.286   8.775
28119SOL    HW296420   9.263   9.157   8.870
28120SOL     OW96421   9.590   7.923   8.310
28120SOL    HW196422   9.646   7.916   8.227
28120SOL    HW296423   9.647   7.901   8.390
28121SOL     OW96424   9.587   9.121   7.581
28121SOL    HW196425   9.679   9.151   7.556
28121SOL    HW296426   9.562   9.160   7.670
28122SOL     OW96427   9.268   8.538   8.330
28122SOL    HW196428   9.178   8.554   8.291
28122SOL    HW296429   9.266   8.454   8.385
28123SOL     OW96430   9.264   8.579   7.874
28123SOL    HW196431   9.342   8.637   7.898
28123SOL    HW296432   9.283   8.530   7.789
28124SOL     OW96433   9.794   8.762   9.182
28124SOL    HW196434   9.755   8.825   9.115
28124SOL    HW296435   9.877   8.802   9.222
28125SOL     OW96436   9.670   8.494   9.014
28125SOL    HW196437   9.689   8.518   8.919
28125SOL    HW296438   9.663   8.577   9.069
28126SOL     OW96439   9.331   8.784   8.488
28126SOL    HW196440   9.300   8.710   8.429
28126SOL    HW296441   9.263   8.802   8.559
28127SOL     OW96442   9.983   8.888   8.821
28127SOL    HW196443   9.920   8.966   8.828
28127SOL    HW296444   9.951   8.826   8.749
28128SOL     OW96445   9.374   7.683   9.086
28128SOL    HW196446   9.392   7.672   8.988
28128SOL    HW296447   9.276   7.679   9.103
28129SOL     OW96448   9.422   7.753   8.054
28129SOL    HW196449   9.365   7.808   8.115
28129SOL    HW296450   9.492   7.705   8.107
28130SOL     OW96451   9.559   7.944   7.652
28130SOL    HW196452   9.631   7.973   7.589
28130SOL    HW296453   9.515   8.024   7.692
28131SOL     OW96454   9.674   9.207   8.118
28131SOL    HW196455   9.598   9.173   8.063
28131SOL    HW296456   9.760   9.170   8.083
28132SOL     OW96457   9.599   8.716   8.563
28132SOL    HW196458   9.611   8.732   8.660
28132SOL    HW296459   9.512   8.756   8.533
28133SOL     OW96460   9.605   8.191   8.101
28133SOL    HW196461   9.597   8.289   8.119
28133SOL    HW296462   9.689   8.157   8.142
28134SOL     OW96463   9.451   7.671   7.616
28134SOL    HW196464   9.495   7.640   7.533
28134SOL    HW296465   9.452   7.771   7.620
28135SOL     OW96466   9.304   7.923   8.227
28135SOL    HW196467   9.268   8.016   8.219
28135SOL    HW296468   9.387   7.924   8.283
28136SOL     OW96469   9.739   8.510   7.613
28136SOL    HW196470   9.839   8.510   7.624
28136SOL    HW296471   9.708   8.603   7.592
28137SOL     OW96472  10.100   8.021   7.572
28137SOL    HW196473  10.190   8.022   7.527
28137SOL    HW296474  10.077   7.927   7.597
28138SOL     OW96475   9.300   7.453   7.526
28138SOL    HW196476   9.363   7.376   7.534
28138SOL    HW296477   9.320   7.521   7.597
28139SOL     OW96478   9.573   8.428   8.527
28139SOL    HW196479   9.584   8.383   8.616
28139SOL    HW296480   9.600   8.524   8.534
28140SOL     OW96481   9.854   8.041   8.549
28140SOL    HW196482   9.929   8.084   8.598
28140SOL    HW296483   9.787   8.006   8.615
28141SOL     OW96484   9.997   8.410   8.866
28141SOL    HW196485  10.066   8.462   8.816
28141SOL    HW296486   9.992   8.443   8.961
28142SOL     OW96487   9.846   7.490   8.293
28142SOL    HW196488   9.774   7.423   8.279
28142SOL    HW296489   9.928   7.444   8.328
28143SOL     OW96490   9.272   8.357   8.533
28143SOL    HW196491   9.361   8.335   8.573
28143SOL    HW296492   9.217   8.273   8.529
28144SOL     OW96493   9.500   7.402   7.813
28144SOL    HW196494   9.538   7.490   7.840
28144SOL    HW296495   9.423   7.378   7.873
28145SOL     OW96496   9.916   8.019   9.141
28145SOL    HW196497   9.868   8.070   9.070
28145SOL    HW296498  10.009   7.998   9.111
28146SOL     OW96499   9.322   8.489   7.633
28146SOL    HW196500   9.312   8.392   7.612
28146SOL    HW296501   9.375   8.534   7.561
28147SOL     OW96502   9.523   8.257   8.762
28147SOL    HW196503   9.487   8.167   8.788
28147SOL    HW296504   9.484   8.327   8.822
28148SOL     OW96505  10.025   8.883   7.420
28148SOL    HW196506  10.000   8.960   7.479
28148SOL    HW296507  10.089   8.823   7.468
28149SOL     OW96508   9.843   9.090   8.454
28149SOL    HW196509   9.863   9.060   8.361
28149SOL    HW296510   9.768   9.035   8.491
28150SOL     OW96511   9.354   8.195   8.240
28150SOL    HW196512   9.449   8.186   8.208
28150SOL    HW296513   9.320   8.287   8.219
28151SOL     OW96514   9.291   8.312   9.167
28151SOL    HW196515   9.206   8.263   9.148
28151SOL    HW296516   9.318   8.299   9.262
28152SOL     OW96517   9.691   7.839   9.167
28152SOL    HW196518   9.727   7.786   9.090
28152SOL    HW296519   9.752   7.916   9.185
28153SOL     OW96520   9.755   8.256   7.739
28153SOL    HW196521   9.705   8.321   7.683
28153SOL    HW296522   9.697   8.177   7.758
28154SOL     OW96523   9.229   7.429   7.934
28154SOL    HW196524   9.142   7.416   7.887
28154SOL    HW296525   9.237   7.524   7.964
28155SOL     OW96526   9.666   8.949   9.000
28155SOL    HW196527   9.608   9.014   9.049
28155SOL    HW296528   9.728   8.999   8.940
28156SOL     OW96529   9.676   8.895   8.063
28156SOL    HW196530   9.674   8.796   8.076
28156SOL    HW296531   9.585   8.928   8.040
28157SOL     OW96532   9.386   8.678   9.021
28157SOL    HW196533   9.365   8.583   8.994
28157SOL    HW296534   9.317   8.739   8.983
28158SOL     OW96535   9.475   9.043   8.425
28158SOL    HW196536   9.417   8.963   8.439
28158SOL    HW296537   9.499   9.050   8.328
28159SOL     OW96538   9.767   7.914   8.110
28159SOL    HW196539   9.805   7.825   8.136
28159SOL    HW296540   9.834   7.964   8.055
28160SOL     OW96541   9.755   8.472   8.764
28160SOL    HW196542   9.851   8.452   8.784
28160SOL    HW296543   9.744   8.570   8.746
28161SOL     OW96544   9.460   8.624   7.425
28161SOL    HW196545   9.452   8.636   7.326
28161SOL    HW296546   9.519   8.695   7.463
28162SOL     OW96547   9.887   9.063   7.585
28162SOL    HW196548   9.862   9.158   7.569
28162SOL    HW296549   9.854   9.035   7.675
28163SOL     OW96550   9.447   7.983   9.171
28163SOL    HW196551   9.464   7.884   9.176
28163SOL    HW296552   9.511   8.031   9.232
28164SOL     OW96553   9.282   8.317   7.971
28164SOL    HW196554   9.289   8.416   7.958
28164SOL    HW296555   9.191   8.294   8.005
28165SOL     OW96556   9.791   8.115   8.909
28165SOL    HW196557   9.697   8.085   8.890
28165SOL    HW296558   9.800   8.212   8.886
28166SOL     OW96559  10.016   7.897   8.390
28166SOL    HW196560  10.108   7.925   8.417
28166SOL    HW296561   9.948   7.948   8.444
28167SOL     OW96562   9.435   8.090   8.531
28167SOL    HW196563   9.473   8.149   8.602
28167SOL    HW296564   9.418   8.143   8.449
28168SOL     OW96565   9.606   8.736   8.829
28168SOL    HW196566   9.625   8.824   8.873
28168SOL    HW296567   9.511   8.710   8.847
28169SOL     OW96568   9.580   7.578   9.246
28169SOL    HW196569   9.493   7.575   9.197
28169SOL    HW296570   9.631   7.660   9.218
28170SOL     OW96571   9.790   8.932   9.650
28170SOL    HW196572   9.746   8.941   9.739
28170SOL    HW296573   9.861   8.862   9.654
28171SOL     OW96574   9.808   7.465   9.372
28171SOL    HW196575   9.896   7.493   9.333
28171SOL    HW296576   9.736   7.528   9.342
28172SOL     OW96577   9.717   8.605   9.945
28172SOL    HW196578   9.650   8.559  10.004
28172SOL    HW296579   9.809   8.573   9.968
28173SOL     OW96580   9.647   8.774   9.429
28173SOL    HW196581   9.711   8.790   9.354
28173SOL    HW296582   9.671   8.832   9.507
28174SOL     OW96583   9.798   7.730  10.239
28174SOL    HW196584   9.874   7.795  10.235
28174SOL    HW296585   9.828   7.641  10.206
28175SOL     OW96586   9.495   8.156   9.657
28175SOL    HW196587   9.510   8.090   9.731
28175SOL    HW296588   9.445   8.235   9.692
28176SOL     OW96589   9.735   8.063   9.344
28176SOL    HW196590   9.695   8.142   9.297
28176SOL    HW296591   9.824   8.042   9.304
28177SOL     OW96592   9.585   8.640   9.694
28177SOL    HW196593   9.631   8.614   9.779
28177SOL    HW296594   9.605   8.572   9.623
28178SOL     OW96595   9.630   7.672   9.659
28178SOL    HW196596   9.584   7.712   9.738
28178SOL    HW296597   9.578   7.691   9.577
28179SOL     OW96598   9.257   8.004   9.754
28179SOL    HW196599   9.259   7.955   9.841
28179SOL    HW296600   9.259   8.103   9.772
28180SOL     OW96601   9.430   8.889   9.608
28180SOL    HW196602   9.457   8.795   9.628
28180SOL    HW296603   9.455   8.911   9.514
28181SOL     OW96604   9.717   8.329   9.247
28181SOL    HW196605   9.686   8.363   9.159
28181SOL    HW296606   9.721   8.404   9.313
28182SOL     OW96607   9.321   8.221   9.420
28182SOL    HW196608   9.381   8.168   9.480
28182SOL    HW296609   9.227   8.189   9.432
28183SOL     OW96610   9.263   7.694   9.702
28183SOL    HW196611   9.323   7.645   9.640
28183SOL    HW296612   9.318   7.746   9.767
28184SOL     OW96613   9.587   9.121   9.426
28184SOL    HW196614   9.679   9.151   9.401
28184SOL    HW296615   9.562   9.160   9.515
28185SOL     OW96616   9.264   8.579   9.719
28185SOL    HW196617   9.342   8.637   9.743
28185SOL    HW296618   9.283   8.530   9.634
28186SOL     OW96619   9.945   7.690   9.956
28186SOL    HW196620   9.934   7.632  10.037
28186SOL    HW296621  10.030   7.742   9.964
28187SOL     OW96622   9.559   7.944   9.497
28187SOL    HW196623   9.631   7.973   9.434
28187SOL    HW296624   9.515   8.024   9.537
28188SOL     OW96625   9.674   9.207   9.963
28188SOL    HW196626   9.598   9.173   9.908
28188SOL    HW296627   9.760   9.170   9.928
28189SOL     OW96628   9.451   7.671   9.461
28189SOL    HW196629   9.495   7.640   9.378
28189SOL    HW296630   9.452   7.771   9.465
28190SOL     OW96631   9.304   7.923  10.072
28190SOL    HW196632   9.268   8.016  10.064
28190SOL    HW296633   9.387   7.924  10.128
28191SOL     OW96634   9.739   8.510   9.458
28191SOL    HW196635   9.839   8.510   9.469
28191SOL    HW296636   9.708   8.603   9.437
28192SOL     OW96637  10.100   8.021   9.417
28192SOL    HW196638  10.190   8.022   9.372
28192SOL    HW296639  10.077   7.927   9.442
28193SOL     OW96640   9.300   7.453   9.371
28193SOL    HW196641   9.363   7.376   9.379
28193SOL    HW296642   9.320   7.521   9.442
28194SOL     OW96643   9.500   7.402   9.658
28194SOL    HW196644   9.538   7.490   9.685
28194SOL    HW296645   9.423   7.378   9.718
28195SOL     OW96646   9.322   8.489   9.478
28195SOL    HW196647   9.312   8.392   9.457
28195SOL    HW296648   9.375   8.534   9.406
28196SOL     OW96649  10.025   8.883   9.265
28196SOL    HW196650  10.000   8.960   9.324
28196SOL    HW296651  10.089   8.823   9.313
28197SOL     OW96652   9.986   8.501  10.016
28197SOL    HW196653  10.075   8.547  10.016
28197SOL    HW296654   9.979   8.441  10.095
28198SOL     OW96655   9.755   8.256   9.584
28198SOL    HW196656   9.705   8.321   9.528
28198SOL    HW296657   9.697   8.177   9.603
28199SOL     OW96658   9.229   7.429   9.779
28199SOL    HW196659   9.142   7.416   9.732
28199SOL    HW296660   9.237   7.524   9.809
28200SOL     OW96661   9.676   8.895   9.908
28200SOL    HW196662   9.674   8.796   9.921
28200SOL    HW296663   9.585   8.928   9.885
28201SOL     OW96664   9.767   7.914   9.955
28201SOL    HW196665   9.805   7.825   9.981
28201SOL    HW296666   9.834   7.964   9.900
28202SOL     OW96667   9.460   8.624   9.270
28202SOL    HW196668   9.452   8.636   9.171
28202SOL    HW296669   9.519   8.695   9.308
28203SOL     OW96670   9.887   9.063   9.430
28203SOL    HW196671   9.862   9.158   9.414
28203SOL    HW296672   9.854   9.035   9.520
28204SOL     OW96673   9.282   8.317   9.816
28204SOL    HW196674   9.289   8.416   9.803
28204SOL    HW296675   9.191   8.294   9.850
28205SOL     OW96676  10.016   7.897  10.235
28205SOL    HW196677  10.108   7.925  10.262
28205SOL    HW296678   9.948   7.948  10.289
28206SOL     OW96679   9.798   9.575   1.012
28206SOL    HW196680   9.874   9.640   1.008
28206SOL    HW296681   9.828   9.486   0.979
28207SOL     OW96682   9.735   9.908   0.117
28207SOL    HW196683   9.695   9.987   0.070
28207SOL    HW296684   9.824   9.887   0.077
28208SOL     OW96685   9.595   9.745   1.273
28208SOL    HW196686   9.585   9.658   1.225
28208SOL    HW296687   9.531   9.812   1.236
28209SOL     OW96688   9.630   9.517   0.432
28209SOL    HW196689   9.584   9.557   0.511
28209SOL    HW296690   9.578   9.536   0.350
28210SOL     OW96691   9.562   9.485   1.182
28210SOL    HW196692   9.527   9.392   1.182
28210SOL    HW296693   9.649   9.488   1.133
28211SOL     OW96694  10.068  10.050   0.389
28211SOL    HW196695   9.979  10.078   0.354
28211SOL    HW296696  10.109   9.984   0.325
28212SOL     OW96697   9.590   9.768   0.928
28212SOL    HW196698   9.646   9.761   0.845
28212SOL    HW296699   9.647   9.746   1.008
28213SOL     OW96700   9.559   9.789   0.270
28213SOL    HW196701   9.631   9.818   0.207
28213SOL    HW296702   9.515   9.869   0.310
28214SOL     OW96703   9.854   9.886   1.167
28214SOL    HW196704   9.929   9.929   1.216
28214SOL    HW296705   9.787   9.851   1.233
28215SOL     OW96706   9.846   9.335   0.911
28215SOL    HW196707   9.774   9.268   0.897
28215SOL    HW296708   9.928   9.289   0.946
28216SOL     OW96709   9.272  10.202   1.151
28216SOL    HW196710   9.361  10.180   1.191
28216SOL    HW296711   9.217  10.118   1.147
28217SOL     OW96712   9.523  10.102   1.380
28217SOL    HW196713   9.487  10.012   1.406
28217SOL    HW296714   9.484  10.172   1.440
28218SOL     OW96715   9.755  10.101   0.357
28218SOL    HW196716   9.705  10.166   0.301
28218SOL    HW296717   9.697  10.022   0.376
28219SOL     OW96718   9.767   9.759   0.728
28219SOL    HW196719   9.805   9.670   0.754
28219SOL    HW296720   9.834   9.809   0.673
28220SOL     OW96721  10.016   9.742   1.008
28220SOL    HW196722  10.108   9.770   1.035
28220SOL    HW296723   9.948   9.793   1.062
28221SOL     OW96724   9.435   9.935   1.149
28221SOL    HW196725   9.473   9.994   1.220
28221SOL    HW296726   9.418   9.988   1.067
28222SOL     OW96727   9.798   9.575   2.857
28222SOL    HW196728   9.874   9.640   2.853
28222SOL    HW296729   9.828   9.486   2.824
28223SOL     OW96730   9.735   9.908   1.962
28223SOL    HW196731   9.695   9.987   1.915
28223SOL    HW296732   9.824   9.887   1.922
28224SOL     OW96733   9.595   9.745   3.118
28224SOL    HW196734   9.585   9.658   3.070
28224SOL    HW296735   9.531   9.812   3.081
28225SOL     OW96736   9.630   9.517   2.277
28225SOL    HW196737   9.584   9.557   2.356
28225SOL    HW296738   9.578   9.536   2.195
28226SOL     OW96739   9.578   9.437   2.693
28226SOL    HW196740   9.630   9.477   2.768
28226SOL    HW296741   9.631   9.364   2.650
28227SOL     OW96742   9.562   9.485   3.027
28227SOL    HW196743   9.527   9.392   3.027
28227SOL    HW296744   9.649   9.488   2.978
28228SOL     OW96745   9.489   9.853   3.368
28228SOL    HW196746   9.509   9.758   3.343
28228SOL    HW296747   9.452   9.856   3.461
28229SOL     OW96748   9.371   9.508   3.258
28229SOL    HW196749   9.443   9.518   3.189
28229SOL    HW296750   9.282   9.507   3.213
28230SOL     OW96751   9.263   9.539   2.320
28230SOL    HW196752   9.323   9.490   2.258
28230SOL    HW296753   9.318   9.591   2.385
28231SOL     OW96754  10.050  10.004   3.169
28231SOL    HW196755  10.052  10.090   3.220
28231SOL    HW296756  10.107   9.936   3.216
28232SOL     OW96757  10.068  10.050   2.234
28232SOL    HW196758   9.979  10.078   2.199
28232SOL    HW296759  10.109   9.984   2.170
28233SOL     OW96760   9.590   9.768   2.773
28233SOL    HW196761   9.646   9.761   2.690
28233SOL    HW296762   9.647   9.746   2.853
28234SOL     OW96763   9.374   9.528   3.549
28234SOL    HW196764   9.392   9.517   3.451
28234SOL    HW296765   9.276   9.524   3.566
28235SOL     OW96766   9.422   9.598   2.517
28235SOL    HW196767   9.365   9.653   2.578
28235SOL    HW296768   9.492   9.550   2.570
28236SOL     OW96769   9.304   9.768   2.690
28236SOL    HW196770   9.268   9.861   2.682
28236SOL    HW296771   9.387   9.769   2.746
28237SOL     OW96772   9.300   9.298   1.989
28237SOL    HW196773   9.363   9.221   1.997
28237SOL    HW296774   9.320   9.366   2.060
28238SOL     OW96775   9.854   9.886   3.012
28238SOL    HW196776   9.929   9.929   3.061
28238SOL    HW296777   9.787   9.851   3.078
28239SOL     OW96778   9.846   9.335   2.756
28239SOL    HW196779   9.774   9.268   2.742
28239SOL    HW296780   9.928   9.289   2.791
28240SOL     OW96781   9.272  10.202   2.996
28240SOL    HW196782   9.361  10.180   3.036
28240SOL    HW296783   9.217  10.118   2.992
28241SOL     OW96784   9.500   9.247   2.276
28241SOL    HW196785   9.538   9.335   2.303
28241SOL    HW296786   9.423   9.223   2.336
28242SOL     OW96787   9.523  10.102   3.225
28242SOL    HW196788   9.487  10.012   3.251
28242SOL    HW296789   9.484  10.172   3.285
28243SOL     OW96790   9.691   9.684   3.630
28243SOL    HW196791   9.727   9.631   3.553
28243SOL    HW296792   9.752   9.761   3.648
28244SOL     OW96793   9.755  10.101   2.202
28244SOL    HW196794   9.705  10.166   2.146
28244SOL    HW296795   9.697  10.022   2.221
28245SOL     OW96796   9.229   9.274   2.397
28245SOL    HW196797   9.142   9.261   2.350
28245SOL    HW296798   9.237   9.369   2.427
28246SOL     OW96799   9.767   9.759   2.573
28246SOL    HW196800   9.805   9.670   2.599
28246SOL    HW296801   9.834   9.809   2.518
28247SOL     OW96802   9.447   9.828   3.634
28247SOL    HW196803   9.464   9.729   3.639
28247SOL    HW296804   9.511   9.876   3.695
28248SOL     OW96805  10.016   9.742   2.853
28248SOL    HW196806  10.108   9.770   2.880
28248SOL    HW296807   9.948   9.793   2.907
28249SOL     OW96808   9.435   9.935   2.994
28249SOL    HW196809   9.473   9.994   3.065
28249SOL    HW296810   9.418   9.988   2.912
28250SOL     OW96811   9.580   9.423   3.710
28250SOL    HW196812   9.493   9.420   3.661
28250SOL    HW296813   9.631   9.505   3.682
28251SOL     OW96814   9.808   9.310   3.836
28251SOL    HW196815   9.896   9.338   3.797
28251SOL    HW296816   9.736   9.373   3.806
28252SOL     OW96817   9.735   9.908   3.808
28252SOL    HW196818   9.695   9.987   3.761
28252SOL    HW296819   9.824   9.887   3.768
28253SOL     OW96820   9.595   9.745   4.964
28253SOL    HW196821   9.585   9.658   4.916
28253SOL    HW296822   9.531   9.812   4.927
28254SOL     OW96823   9.630   9.517   4.123
28254SOL    HW196824   9.584   9.557   4.202
28254SOL    HW296825   9.578   9.536   4.041
28255SOL     OW96826   9.578   9.437   4.539
28255SOL    HW196827   9.630   9.477   4.614
28255SOL    HW296828   9.631   9.364   4.496
28256SOL     OW96829   9.562   9.485   4.873
28256SOL    HW196830   9.527   9.392   4.873
28256SOL    HW296831   9.649   9.488   4.824
28257SOL     OW96832   9.489   9.853   5.214
28257SOL    HW196833   9.509   9.758   5.189
28257SOL    HW296834   9.452   9.856   5.307
28258SOL     OW96835   9.371   9.508   5.104
28258SOL    HW196836   9.443   9.518   5.035
28258SOL    HW296837   9.282   9.507   5.059
28259SOL     OW96838   9.263   9.539   4.166
28259SOL    HW196839   9.323   9.490   4.104
28259SOL    HW296840   9.318   9.591   4.231
28260SOL     OW96841  10.050  10.004   5.015
28260SOL    HW196842  10.052  10.090   5.066
28260SOL    HW296843  10.107   9.936   5.062
28261SOL     OW96844  10.068  10.050   4.080
28261SOL    HW196845   9.979  10.078   4.045
28261SOL    HW296846  10.109   9.984   4.016
28262SOL     OW96847   9.590   9.768   4.619
28262SOL    HW196848   9.646   9.761   4.536
28262SOL    HW296849   9.647   9.746   4.699
28263SOL     OW96850   9.374   9.528   5.395
28263SOL    HW196851   9.392   9.517   5.297
28263SOL    HW296852   9.276   9.524   5.412
28264SOL     OW96853   9.422   9.598   4.363
28264SOL    HW196854   9.365   9.653   4.424
28264SOL    HW296855   9.492   9.550   4.416
28265SOL     OW96856   9.559   9.789   3.961
28265SOL    HW196857   9.631   9.818   3.898
28265SOL    HW296858   9.515   9.869   4.001
28266SOL     OW96859   9.451   9.516   3.925
28266SOL    HW196860   9.495   9.485   3.842
28266SOL    HW296861   9.452   9.616   3.929
28267SOL     OW96862   9.304   9.768   4.536
28267SOL    HW196863   9.268   9.861   4.528
28267SOL    HW296864   9.387   9.769   4.592
28268SOL     OW96865   9.300   9.298   3.835
28268SOL    HW196866   9.363   9.221   3.843
28268SOL    HW296867   9.320   9.366   3.906
28269SOL     OW96868   9.854   9.886   4.858
28269SOL    HW196869   9.929   9.929   4.907
28269SOL    HW296870   9.787   9.851   4.924
28270SOL     OW96871   9.272  10.202   4.842
28270SOL    HW196872   9.361  10.180   4.882
28270SOL    HW296873   9.217  10.118   4.838
28271SOL     OW96874   9.500   9.247   4.122
28271SOL    HW196875   9.538   9.335   4.149
28271SOL    HW296876   9.423   9.223   4.182
28272SOL     OW96877   9.523  10.102   5.071
28272SOL    HW196878   9.487  10.012   5.097
28272SOL    HW296879   9.484  10.172   5.131
28273SOL     OW96880   9.691   9.684   5.476
28273SOL    HW196881   9.727   9.631   5.399
28273SOL    HW296882   9.752   9.761   5.494
28274SOL     OW96883   9.755  10.101   4.048
28274SOL    HW196884   9.705  10.166   3.992
28274SOL    HW296885   9.697  10.022   4.067
28275SOL     OW96886   9.229   9.274   4.243
28275SOL    HW196887   9.142   9.261   4.196
28275SOL    HW296888   9.237   9.369   4.273
28276SOL     OW96889   9.767   9.759   4.419
28276SOL    HW196890   9.805   9.670   4.445
28276SOL    HW296891   9.834   9.809   4.364
28277SOL     OW96892   9.447   9.828   5.480
28277SOL    HW196893   9.464   9.729   5.485
28277SOL    HW296894   9.511   9.876   5.541
28278SOL     OW96895  10.016   9.742   4.699
28278SOL    HW196896  10.108   9.770   4.726
28278SOL    HW296897   9.948   9.793   4.753
28279SOL     OW96898   9.435   9.935   4.840
28279SOL    HW196899   9.473   9.994   4.911
28279SOL    HW296900   9.418   9.988   4.758
28280SOL     OW96901   9.580   9.423   5.555
28280SOL    HW196902   9.493   9.420   5.506
28280SOL    HW296903   9.631   9.505   5.527
28281SOL     OW96904   9.808   9.310   5.681
28281SOL    HW196905   9.896   9.338   5.642
28281SOL    HW296906   9.736   9.373   5.651
28282SOL     OW96907   9.798   9.575   6.548
28282SOL    HW196908   9.874   9.640   6.544
28282SOL    HW296909   9.828   9.486   6.515
28283SOL     OW96910   9.735   9.908   5.653
28283SOL    HW196911   9.695   9.987   5.606
28283SOL    HW296912   9.824   9.887   5.613
28284SOL     OW96913   9.595   9.745   6.809
28284SOL    HW196914   9.585   9.658   6.761
28284SOL    HW296915   9.531   9.812   6.772
28285SOL     OW96916   9.630   9.517   5.968
28285SOL    HW196917   9.584   9.557   6.047
28285SOL    HW296918   9.578   9.536   5.886
28286SOL     OW96919   9.578   9.437   6.384
28286SOL    HW196920   9.630   9.477   6.459
28286SOL    HW296921   9.631   9.364   6.341
28287SOL     OW96922   9.562   9.485   6.718
28287SOL    HW196923   9.527   9.392   6.718
28287SOL    HW296924   9.649   9.488   6.669
28288SOL     OW96925   9.371   9.508   6.949
28288SOL    HW196926   9.443   9.518   6.880
28288SOL    HW296927   9.282   9.507   6.904
28289SOL     OW96928   9.263   9.539   6.011
28289SOL    HW196929   9.323   9.490   5.949
28289SOL    HW296930   9.318   9.591   6.076
28290SOL     OW96931  10.050  10.004   6.860
28290SOL    HW196932  10.052  10.090   6.911
28290SOL    HW296933  10.107   9.936   6.907
28291SOL     OW96934  10.068  10.050   5.925
28291SOL    HW196935   9.979  10.078   5.890
28291SOL    HW296936  10.109   9.984   5.861
28292SOL     OW96937   9.590   9.768   6.464
28292SOL    HW196938   9.646   9.761   6.381
28292SOL    HW296939   9.647   9.746   6.544
28293SOL     OW96940   9.374   9.528   7.240
28293SOL    HW196941   9.392   9.517   7.142
28293SOL    HW296942   9.276   9.524   7.257
28294SOL     OW96943   9.422   9.598   6.208
28294SOL    HW196944   9.365   9.653   6.269
28294SOL    HW296945   9.492   9.550   6.261
28295SOL     OW96946   9.559   9.789   5.806
28295SOL    HW196947   9.631   9.818   5.743
28295SOL    HW296948   9.515   9.869   5.846
28296SOL     OW96949   9.451   9.516   5.770
28296SOL    HW196950   9.495   9.485   5.687
28296SOL    HW296951   9.452   9.616   5.774
28297SOL     OW96952   9.304   9.768   6.381
28297SOL    HW196953   9.268   9.861   6.373
28297SOL    HW296954   9.387   9.769   6.437
28298SOL     OW96955   9.300   9.298   5.680
28298SOL    HW196956   9.363   9.221   5.688
28298SOL    HW296957   9.320   9.366   5.751
28299SOL     OW96958   9.854   9.886   6.703
28299SOL    HW196959   9.929   9.929   6.752
28299SOL    HW296960   9.787   9.851   6.769
28300SOL     OW96961   9.846   9.335   6.447
28300SOL    HW196962   9.774   9.268   6.433
28300SOL    HW296963   9.928   9.289   6.482
28301SOL     OW96964   9.272  10.202   6.687
28301SOL    HW196965   9.361  10.180   6.727
28301SOL    HW296966   9.217  10.118   6.683
28302SOL     OW96967   9.500   9.247   5.967
28302SOL    HW196968   9.538   9.335   5.994
28302SOL    HW296969   9.423   9.223   6.027
28303SOL     OW96970   9.523  10.102   6.916
28303SOL    HW196971   9.487  10.012   6.942
28303SOL    HW296972   9.484  10.172   6.976
28304SOL     OW96973   9.691   9.684   7.321
28304SOL    HW196974   9.727   9.631   7.244
28304SOL    HW296975   9.752   9.761   7.339
28305SOL     OW96976   9.755  10.101   5.893
28305SOL    HW196977   9.705  10.166   5.837
28305SOL    HW296978   9.697  10.022   5.912
28306SOL     OW96979   9.229   9.274   6.088
28306SOL    HW196980   9.142   9.261   6.041
28306SOL    HW296981   9.237   9.369   6.118
28307SOL     OW96982   9.767   9.759   6.264
28307SOL    HW196983   9.805   9.670   6.290
28307SOL    HW296984   9.834   9.809   6.209
28308SOL     OW96985  10.016   9.742   6.544
28308SOL    HW196986  10.108   9.770   6.571
28308SOL    HW296987   9.948   9.793   6.598
28309SOL     OW96988   9.435   9.935   6.685
28309SOL    HW196989   9.473   9.994   6.756
28309SOL    HW296990   9.418   9.988   6.603
28310SOL     OW96991   9.580   9.423   7.401
28310SOL    HW196992   9.493   9.420   7.352
28310SOL    HW296993   9.631   9.505   7.373
28311SOL     OW96994   9.808   9.310   7.527
28311SOL    HW196995   9.896   9.338   7.488
28311SOL    HW296996   9.736   9.373   7.497
28312SOL     OW96997   9.798   9.575   8.394
28312SOL    HW196998   9.874   9.640   8.390
28312SOL    HW296999   9.828   9.486   8.361
28313SOL     OW97000   9.735   9.908   7.499
28313SOL    HW197001   9.695   9.987   7.452
28313SOL    HW297002   9.824   9.887   7.459
28314SOL     OW97003   9.630   9.517   7.814
28314SOL    HW197004   9.584   9.557   7.893
28314SOL    HW297005   9.578   9.536   7.732
28315SOL     OW97006   9.578   9.437   8.230
28315SOL    HW197007   9.630   9.477   8.305
28315SOL    HW297008   9.631   9.364   8.187
28316SOL     OW97009   9.489   9.853   8.905
28316SOL    HW197010   9.509   9.758   8.880
28316SOL    HW297011   9.452   9.856   8.998
28317SOL     OW97012   9.263   9.539   7.857
28317SOL    HW197013   9.323   9.490   7.795
28317SOL    HW297014   9.318   9.591   7.922
28318SOL     OW97015  10.050  10.004   8.706
28318SOL    HW197016  10.052  10.090   8.757
28318SOL    HW297017  10.107   9.936   8.753
28319SOL     OW97018  10.068  10.050   7.771
28319SOL    HW197019   9.979  10.078   7.736
28319SOL    HW297020  10.109   9.984   7.707
28320SOL     OW97021   9.590   9.768   8.310
28320SOL    HW197022   9.646   9.761   8.227
28320SOL    HW297023   9.647   9.746   8.390
28321SOL     OW97024   9.422   9.598   8.054
28321SOL    HW197025   9.365   9.653   8.115
28321SOL    HW297026   9.492   9.550   8.107
28322SOL     OW97027   9.559   9.789   7.652
28322SOL    HW197028   9.631   9.818   7.589
28322SOL    HW297029   9.515   9.869   7.692
28323SOL     OW97030   9.451   9.516   7.616
28323SOL    HW197031   9.495   9.485   7.533
28323SOL    HW297032   9.452   9.616   7.620
28324SOL     OW97033   9.304   9.768   8.227
28324SOL    HW197034   9.268   9.861   8.219
28324SOL    HW297035   9.387   9.769   8.283
28325SOL     OW97036   9.300   9.298   7.526
28325SOL    HW197037   9.363   9.221   7.534
28325SOL    HW297038   9.320   9.366   7.597
28326SOL     OW97039   9.854   9.886   8.549
28326SOL    HW197040   9.929   9.929   8.598
28326SOL    HW297041   9.787   9.851   8.615
28327SOL     OW97042   9.846   9.335   8.293
28327SOL    HW197043   9.774   9.268   8.279
28327SOL    HW297044   9.928   9.289   8.328
28328SOL     OW97045   9.272  10.202   8.533
28328SOL    HW197046   9.361  10.180   8.573
28328SOL    HW297047   9.217  10.118   8.529
28329SOL     OW97048   9.500   9.247   7.813
28329SOL    HW197049   9.538   9.335   7.840
28329SOL    HW297050   9.423   9.223   7.873
28330SOL     OW97051   9.523  10.102   8.762
28330SOL    HW197052   9.487  10.012   8.788
28330SOL    HW297053   9.484  10.172   8.822
28331SOL     OW97054   9.691   9.684   9.167
28331SOL    HW197055   9.727   9.631   9.090
28331SOL    HW297056   9.752   9.761   9.185
28332SOL     OW97057   9.755  10.101   7.739
28332SOL    HW197058   9.705  10.166   7.683
28332SOL    HW297059   9.697  10.022   7.758
28333SOL     OW97060   9.767   9.759   8.110
28333SOL    HW197061   9.805   9.670   8.136
28333SOL    HW297062   9.834   9.809   8.055
28334SOL     OW97063   9.447   9.828   9.171
28334SOL    HW197064   9.464   9.729   9.176
28334SOL    HW297065   9.511   9.876   9.232
28335SOL     OW97066  10.016   9.742   8.390
28335SOL    HW197067  10.108   9.770   8.417
28335SOL    HW297068   9.948   9.793   8.444
28336SOL     OW97069   9.435   9.935   8.531
28336SOL    HW197070   9.473   9.994   8.602
28336SOL    HW297071   9.418   9.988   8.449
28337SOL     OW97072   9.798   9.575  10.239
28337SOL    HW197073   9.874   9.640  10.235
28337SOL    HW297074   9.828   9.486  10.206
28338SOL     OW97075   9.735   9.908   9.344
28338SOL    HW197076   9.695   9.987   9.297
28338SOL    HW297077   9.824   9.887   9.304
28339SOL     OW97078   9.630   9.517   9.659
28339SOL    HW197079   9.584   9.557   9.738
28339SOL    HW297080   9.578   9.536   9.577
28340SOL     OW97081  10.183   9.728   9.901
28340SOL    HW197082  10.259   9.756   9.960
28340SOL    HW297083  10.139   9.808   9.862
28341SOL     OW97084  10.068  10.050   9.616
28341SOL    HW197085   9.979  10.078   9.581
28341SOL    HW297086  10.109   9.984   9.552
28342SOL     OW97087   9.945   9.535   9.956
28342SOL    HW197088   9.934   9.477  10.037
28342SOL    HW297089  10.030   9.587   9.964
28343SOL     OW97090   9.559   9.789   9.497
28343SOL    HW197091   9.631   9.818   9.434
28343SOL    HW297092   9.515   9.869   9.537
28344SOL     OW97093   9.755  10.101   9.584
28344SOL    HW197094   9.705  10.166   9.528
28344SOL    HW297095   9.697  10.022   9.603
28345SOL     OW97096   9.767   9.759   9.955
28345SOL    HW197097   9.805   9.670   9.981
28345SOL    HW297098   9.834   9.809   9.900
28346SOL     OW97099  10.016   9.742  10.235
28346SOL    HW197100  10.108   9.770  10.262
28346SOL    HW297101   9.948   9.793  10.289
  10.00000  10.00000  10.00000
